
# Define the lattice
#
variable	    lattice_constant equal 6.36339
lattice		    diamond ${lattice_constant}
lattice		    diamond 6.36339
Lattice spacing in x,y,z = 6.3633900 6.3633900 6.3633900

# Define region
# multiples of lattice spacing
#
region 		    simbox block 0 8 0 8 0 8

# Create Atoms
#
create_box          1 simbox
Created orthogonal box = (0.0000000 0.0000000 0.0000000) to (50.907120 50.907120 50.907120)
  1 by 2 by 3 MPI processor grid
create_atoms        1 box
Created 4096 atoms
  create_atoms CPU = 0.001 seconds
mass                1 18.015

# Define potential
#
pair_style          sw
pair_coeff          * * ML_mW.sw mW
Reading sw potential file ML_mW.sw with DATE: 2019-02-27

# Add velocity/set timestep
#
velocity            all create ${TEMP} 120598 rot yes dist gaussian
velocity            all create 223 120598 rot yes dist gaussian
timestep            5.0

# Define output
#
compute	            1 all msd
thermo              100
thermo_style        custom step temp press vol etotal ke pe c_1[4]

# Neighbor lists
#
neigh_modify        delay 0 every 1 check yes

# Set fixes
#
fix                 1 all momentum 10 linear 1 1 1 rescale
fix                 2 all nve
fix                 3 all temp/csvr ${TEMP} ${TEMP} 500.0 928347
fix                 3 all temp/csvr 223 ${TEMP} 500.0 928347
fix                 3 all temp/csvr 223 223 500.0 928347
fix                 4 all press/berendsen iso ${PRES} ${PRES} 1000.0 modulus 20000
fix                 4 all press/berendsen iso -1000 ${PRES} 1000.0 modulus 20000
fix                 4 all press/berendsen iso -1000 -1000 1000.0 modulus 20000

# Run 0.5 ns equilibration
#
dump		    1 all custom 1000 eq.${NAME}.dump id type x y z vx vy vz
dump		    1 all custom 1000 eq.ice_223K_1000atm_ML.dump id type x y z vx vy vz
run                 100000
Neighbor list info ...
  update every 1 steps, delay 0 steps, check yes
  max neighbors/atom: 2000, page size: 100000
  master list distance cutoff = 6.0032907
  ghost atom cutoff = 6.0032907
  binsize = 3.0016454, bins = 17 17 17
  1 neighbor lists, perpetual/occasional/extra = 1 0 0
  (1) pair sw, perpetual
      attributes: full, newton on
      pair build: full/bin/atomonly
      stencil: full/bin/3d
      bin: standard
Per MPI rank memory allocation (min/avg/max) = 4.800 | 4.800 | 4.801 Mbytes
Step Temp Press Volume TotEng KinEng PotEng c_1[4] 
       0          223   -919.12154    131927.58   -46964.355     2722.031   -49686.386            0 
     100    149.14157   -868.10619    132067.94   -45860.501    1820.4843   -47680.986  0.074083252 
     200    176.24527   -896.03997     132289.7   -45206.677    2151.3233       -47358  0.080716985 
     300     195.6255   -860.84293    132425.01   -44782.851    2387.8865   -47170.738  0.092030876 
     400    214.02408   -866.06507    132527.73   -44536.257    2612.4672   -47148.724  0.094032463 
     500    208.28696   -999.97379    132623.71    -44356.13    2542.4375   -46898.568   0.10178184 
     600    217.03438   -1038.1204    132638.62   -44137.908    2649.2122    -46787.12    0.1126954 
     700    207.38676   -1078.3509    132665.58   -44111.377    2531.4493   -46642.826   0.12124304 
     800    222.36059   -1023.3019    132691.84   -44050.449    2714.2262   -46764.676   0.12079061 
     900    219.58978    -1021.507    132699.39   -44046.712    2680.4045   -46727.116   0.12361578 
    1000    221.73558   -1049.0477    132730.08   -44119.423     2706.597    -46826.02   0.11229327 
    1100    225.11078   -1022.0858    132701.56   -44059.656    2747.7961   -46807.452   0.12107415 
    1200    222.04709   -1037.5614     132730.4    -44047.28    2710.3994   -46757.679   0.10693914 
    1300    228.13464   -967.78711    132720.75   -43993.271    2784.7066   -46777.977   0.11721607 
    1400    221.95847   -996.64166    132716.95   -44048.039    2709.3177   -46757.357   0.10956693 
    1500    217.33804   -1014.1468    132669.87   -44084.924    2652.9187   -46737.843   0.12251417 
    1600    225.81787   -991.67953    132717.42   -44053.868    2756.4271   -46810.296    0.1144042 
    1700    228.37726   -953.08161    132725.55   -44071.393    2787.6681   -46859.061   0.10660573 
    1800     217.1729   -1024.9106    132698.51   -44033.417     2650.903    -46684.32   0.11900594 
    1900    216.80864   -1063.0476    132719.08   -43983.109    2646.4567   -46629.565   0.12118001 
    2000    222.33092   -1004.4462    132744.34   -43953.152     2713.864   -46667.016   0.11394894 
    2100     219.6029   -1022.3725     132712.4   -44063.611    2680.5646   -46744.176   0.12290412 
    2200    224.35348   -1025.1293    132731.39    -44025.34    2738.5521   -46763.892   0.11170565 
    2300    229.31423   -943.97419    132738.29   -43986.716    2799.1051   -46785.821   0.10576173 
    2400    222.99571    -1011.166    132745.41   -44011.151    2721.9787    -46733.13    0.1035512 
    2500    226.81656   -995.36349    132721.95   -44027.869    2768.6176   -46796.486    0.1070528 
    2600    223.71338   -954.02804    132704.67   -44046.851    2730.7389    -46777.59   0.10435584 
    2700    226.31934   -971.08191    132705.63   -44054.105    2762.5482   -46816.653   0.11386598 
    2800    225.80243   -997.35516    132722.68    -43974.18    2756.2387   -46730.419   0.10992315 
    2900    226.26285   -1009.0413    132738.81   -43985.345    2761.8588   -46747.203   0.11502284 
    3000    230.05955   -959.88763    132716.31   -44019.571    2808.2029   -46827.774    0.1056816 
    3100    228.89589   -986.58175    132713.91   -43999.372    2793.9988   -46793.371   0.10832879 
    3200    222.69509    -982.1203    132687.29   -44070.752    2718.3092   -46789.061   0.11954599 
    3300    221.33536   -985.76826    132679.43   -44142.948    2701.7118    -46844.66   0.11155385 
    3400    218.17289   -1022.4977    132678.53   -44085.828    2663.1093   -46748.937   0.11939676 
    3500    223.66348   -1028.6121    132684.36   -44059.554    2730.1297   -46789.684   0.11387825 
    3600    224.97125   -981.18507    132704.22   -44059.257     2746.093    -46805.35   0.10231956 
    3700    226.17525   -1005.1241    132716.53   -44034.199    2760.7895   -46794.988   0.11294362 
    3800    224.86699   -984.11998     132721.4   -44026.916    2744.8203   -46771.736   0.11211362 
    3900    223.51239   -1007.0202    132709.62   -44027.651    2728.2855   -46755.936   0.11967536 
    4000    220.29106   -968.97366     132695.8   -44053.676    2688.9646   -46742.641   0.10798735 
    4100    223.06209   -1017.2599    132718.48   -44076.695     2722.789   -46799.484   0.10962444 
    4200    221.69344   -1000.0268    132710.43   -44038.305    2706.0826   -46744.387   0.11205646 
    4300    219.18715   -1044.7318     132682.4   -44137.944    2675.4898   -46813.434   0.11154741 
    4400    219.85961   -1035.0392    132699.38   -44054.587    2683.6981   -46738.285   0.12150979 
    4500    221.66935   -1022.0362    132694.08   -44097.581    2705.7886   -46803.369   0.11090568 
    4600    220.00296   -978.40696    132687.12   -44118.945     2685.448   -46804.393   0.11351914 
    4700    223.39245   -985.91924    132700.71   -44046.239    2726.8215    -46773.06   0.10932022 
    4800     227.3023   -983.76992    132727.65   -43977.434    2774.5466    -46751.98   0.10584015 
    4900    224.99838   -1015.8833    132729.72     -43952.8    2746.4241   -46699.224   0.11802627 
    5000    223.74392   -975.95082     132719.6   -44045.829    2731.1116    -46776.94    0.1043863 
    5100    224.57787   -1002.5349    132728.02   -43995.104    2741.2912   -46736.395   0.11641583 
    5200    223.94914   -1012.4933    132712.09   -44044.115    2733.6166   -46777.732   0.11282825 
    5300    218.31206   -1009.1256    132689.88   -44120.944    2664.8081   -46785.752   0.10709703 
    5400    223.58638   -998.97986    132673.84   -44094.135    2729.1887   -46823.324   0.10902291 
    5500    220.12761   -1006.1498    132687.29   -44072.009    2686.9695   -46758.978   0.10848702 
    5600    222.67325   -995.75252     132674.4   -44094.323    2718.0426   -46812.366   0.11643864 
    5700    223.20639   -981.65177    132700.74   -44092.875    2724.5503   -46817.425   0.10874113 
    5800    225.89624   -986.18607     132711.7   -44053.575    2757.3838   -46810.959   0.11381809 
    5900    225.67097   -987.91208    132704.64    -44106.11     2754.634   -46860.744   0.10035144 
    6000    223.72302   -974.37847    132697.03   -44088.117    2730.8565   -46818.973   0.10675721 
    6100     221.5021   -999.71389    132690.57   -44144.779     2703.747   -46848.526   0.10417822 
    6200    218.04758   -990.76553    132694.97    -44127.11    2661.5797   -46788.689   0.10627198 
    6300    223.82232   -988.76618    132715.84   -44042.349    2732.0686   -46774.417   0.11249329 
    6400    219.31595   -996.24585    132716.88   -44082.191    2677.0619   -46759.253   0.10132465 
    6500    218.30627   -1012.9829    132713.24   -44091.794    2664.7374   -46756.532   0.11014146 
    6600     221.6296   -986.36184    132685.92   -44092.256    2705.3033   -46797.559   0.10955303 
    6700    218.91674   -975.78264    132691.87   -44133.799    2672.1891   -46805.988   0.10106367 
    6800    224.88143   -987.73835    132696.19   -44102.175    2744.9966   -46847.172   0.11684977 
    6900     221.2818   -990.47607    132720.56    -44047.81    2701.0579   -46748.868   0.10658532 
    7000    221.71485   -1018.5131    132712.27   -44049.066     2706.344    -46755.41   0.11958609 
    7100     224.3679   -965.97977    132724.34   -44051.672    2738.7281     -46790.4   0.10284407 
    7200    218.17252   -1022.6949    132700.46   -44138.706    2663.1048   -46801.811   0.11240113 
    7300    219.90169   -1003.6058    132691.62   -44174.311    2684.2117   -46858.523   0.10371325 
    7400    221.50154    -1017.645    132711.94    -44089.08    2703.7401    -46792.82   0.11315861 
    7500    220.35694   -1004.3909    132723.54    -44039.24    2689.7687   -46729.008   0.11384977 
    7600    221.49329   -999.58181     132727.9   -44021.741    2703.6395    -46725.38   0.11003403 
    7700    223.62313   -1000.5182    132712.87   -44094.753    2729.6372    -46824.39   0.10965165 
    7800    222.44944   -1012.2473    132693.25   -44136.791    2715.3107   -46852.101   0.10958413 
    7900    220.06287   -997.77042    132694.12   -44089.676    2686.1792   -46775.855    0.1073201 
    8000    219.12045   -994.59683    132706.06    -44019.04    2674.6756   -46693.715   0.12241565 
    8100    224.68056   -987.06513    132738.33   -43995.297    2742.5446   -46737.842    0.1077377 
    8200     223.3733   -1006.7227    132708.95   -44009.124    2726.5877   -46735.712   0.12351328 
    8300     226.7774   -1015.9537     132726.7    -43985.66    2768.1396   -46753.799   0.10853628 
    8400    226.99268   -1003.4072    132736.99   -43967.111    2770.7673   -46737.879   0.11438351 
    8500    226.38845   -998.13125    132720.66   -44027.685    2763.3918   -46791.077   0.11053584 
    8600    223.66157   -1015.8679    132727.55   -44048.017    2730.1064   -46778.124   0.11354601 
    8700    224.10546   -1011.6253    132720.79   -44023.705    2735.5248   -46759.229   0.10991728 
    8800    226.65577   -984.37082    132709.15   -44050.565    2766.6549   -46817.219   0.11037166 
    8900    223.49236   -1003.2072    132700.93   -44093.478     2728.041   -46821.519   0.10473264 
    9000    224.23258   -947.67656    132703.75    -44035.26    2737.0765   -46772.337   0.10896726 
    9100    220.86535   -1015.4697    132714.55   -44077.666    2695.9746    -46773.64   0.11310265 
    9200    224.96349   -996.96213    132730.54   -43999.841    2745.9982    -46745.84   0.11321132 
    9300    223.72381   -1007.0809    132724.93   -44112.255    2730.8662   -46843.121   0.10562352 
    9400    222.26328   -1028.7212    132716.79   -44084.887    2713.0384   -46797.926   0.11466354 
    9500    220.50338   -989.80047    132721.31   -44112.818    2691.5563   -46804.374  0.099261432 
    9600    220.32834   -992.03367    132710.09   -44107.873    2689.4196   -46797.293   0.11375162 
    9700    225.64982   -1003.7925    132723.53    -44019.09    2754.3758   -46773.466   0.10618548 
    9800    224.63161   -1025.1569    132733.76   -43989.018    2741.9471   -46730.965   0.11302263 
    9900    225.21567   -1008.0543    132721.76   -44007.302    2749.0764   -46756.378   0.10880974 
   10000    224.31591   -967.60731    132738.51   -44051.524    2738.0935   -46789.618   0.10342197 
   10100    221.92318   -989.20331    132730.57   -44009.529    2708.8869   -46718.416    0.1121978 
   10200    228.11484   -996.76311    132738.53   -43989.529    2784.4649   -46773.994   0.11129741 
   10300    226.38937   -1013.0398    132746.11    -43989.97    2763.4031   -46753.373   0.11383268 
   10400    223.22484   -987.46817    132748.23   -43982.659    2724.7755   -46707.434   0.11285277 
   10500    224.07293   -987.13304     132732.2   -44022.457    2735.1277   -46757.585   0.11225116 
   10600    222.10607   -1024.7072    132732.28    -44044.87    2711.1193    -46755.99   0.11846895 
   10700    221.42325   -1020.7207     132711.1   -44069.853    2702.7846   -46772.637   0.11061971 
   10800    215.18724   -1023.7499    132695.53   -44156.101    2626.6652   -46782.766   0.11807164 
   10900    219.06022   -1010.3588    132691.24   -44144.173    2673.9405   -46818.114   0.10404734 
   11000    214.17924    -1017.867    132687.89    -44150.12    2614.3611   -46764.481   0.11678382 
   11100      218.588   -1023.8032    132717.04   -44089.558    2668.1763   -46757.734   0.11549381 
   11200    219.56921   -986.08385    132714.12   -44160.308    2680.1533   -46840.461   0.10179111 
   11300    221.67893   -979.62556    132697.18   -44096.297    2705.9056   -46802.202   0.11460222 
   11400    222.79342   -983.43984    132723.95   -44083.006    2719.5094   -46802.516   0.10353156 
   11500    226.56753   -990.55843    132744.01   -44010.217    2765.5778   -46775.795   0.11283945 
   11600    223.87124   -1030.5206    132761.25   -44016.763    2732.6657   -46749.428   0.11467616 
   11700    232.46807   -968.91386     132780.4   -43916.391    2837.6022   -46753.993   0.10461355 
   11800    223.07885     -990.353    132767.99   -43983.798    2722.9936   -46706.792   0.11458948 
   11900    226.32297   -991.42187    132763.61   -44015.446    2762.5926   -46778.039   0.10408456 
   12000    226.27162   -1006.5867    132758.62   -43975.204    2761.9657    -46737.17   0.11257386 
   12100    226.41167   -1008.1095    132745.87   -44034.533    2763.6752   -46798.209   0.10721053 
   12200    225.37119   -1016.6653    132760.24   -44031.839    2750.9748   -46782.814   0.10611124 
   12300    223.22002   -1005.1074    132734.02   -44070.471    2724.7167   -46795.188   0.10546975 
   12400      226.927   -975.68454     132731.8   -44042.502    2769.9656   -46812.467   0.10235847 
   12500    228.56714    -1004.473    132732.45   -43994.815    2789.9858   -46784.801   0.11137782 
   12600    226.61032    -965.0934    132740.56   -43993.099       2766.1   -46759.199   0.10524894 
   12700    223.62187   -1013.8222    132725.09   -44015.994    2729.6218   -46745.615    0.1161487 
   12800    222.91065   -1015.3684    132727.42   -44040.714    2720.9404   -46761.655   0.11007302 
   12900     224.0184   -1006.4658    132720.83    -44076.64    2734.4621   -46811.102   0.11080271 
   13000     222.1717   -1012.6161    132709.66   -44071.407    2711.9204   -46783.328   0.11233054 
   13100    220.11041   -995.52698    132716.28   -44096.352    2686.7595   -46783.112   0.11062034 
   13200    216.40735   -1034.7025     132709.7    -44126.56    2641.5584   -46768.118   0.11384464 
   13300    220.08627   -1029.2733     132707.6   -44167.987    2686.4648   -46854.452    0.1104472 
   13400    215.50046   -1008.0288    132702.69   -44204.647    2630.4885   -46835.135   0.10767236 
   13500    220.62315   -1009.7356    132717.42   -44108.791    2693.0182   -46801.809   0.10759705 
   13600    223.24572   -1000.0935    132738.22   -44095.472    2725.0303   -46820.502   0.10846484 
   13700    219.98329   -1003.0698    132721.03     -44097.6    2685.2078   -46782.808   0.10706356 
   13800     222.9745   -1007.9701    132721.14   -44070.534    2721.7197   -46792.254   0.11170745 
   13900    220.74925   -999.63026    132730.39   -44042.577    2694.5575   -46737.134   0.11561315 
   14000    225.93891   -983.78148    132753.33   -43971.502    2757.9046   -46729.406   0.10355032 
   14100    223.34355   -1004.3895    132736.68   -44042.694    2726.2245   -46768.918   0.11629807 
   14200    223.13183   -978.70888    132736.82   -44034.483    2723.6402   -46758.123    0.1019104 
   14300    220.35763   -969.89063    132731.27   -44057.835    2689.7771   -46747.612   0.11035773 
   14400    221.33031   -985.77254    132708.19   -44093.074    2701.6501   -46794.724   0.11126302 
   14500    221.48508   -996.81947    132710.46   -44096.897    2703.5393   -46800.437   0.10348998 
   14600    218.83744   -990.05612    132717.09   -44093.744     2671.221   -46764.965    0.1118899 
   14700     222.0337   -967.44998    132727.82    -44058.55    2710.2359   -46768.786    0.1029734 
   14800    219.79522   -994.30791    132745.45   -44032.535    2682.9122   -46715.447   0.10629677 
   14900    228.78837   -964.07577    132729.13   -44014.339    2792.6863   -46807.025      0.11153 
   15000    219.36453   -978.53356    132736.74   -44068.749     2677.655   -46746.404   0.10288959 
   15100    215.07905   -1047.4668    132727.37   -44088.697    2625.3446   -46714.041    0.1209284 
   15200    226.06357   -1020.2519    132743.26    -44057.26    2759.4262   -46816.686   0.10353358 
   15300    221.34656   -991.48726    132737.27   -44092.972    2701.8484   -46794.821   0.10918731 
   15400    220.27843   -966.90576    132727.13   -44116.885    2688.8104   -46805.695    0.1036024 
   15500    218.99534   -1030.1133    132730.91   -44063.729    2673.1484   -46736.877   0.11461468 
   15600    226.42076   -982.92689    132762.92   -43975.211    2763.7862   -46738.997   0.11497644 
   15700    226.13517   -1007.5572    132773.71    -43966.71    2760.3003    -46727.01   0.11094936 
   15800     225.6483   -1018.9959    132769.23    -43979.02    2754.3573   -46733.377   0.11227988 
   15900    228.20142   -987.98871    132768.15   -43979.712    2785.5217   -46765.234   0.10591986 
   16000    226.68337   -999.27637    132758.06   -44022.965    2766.9917   -46789.957   0.10467596 
   16100     218.2704   -1009.0339    132738.61   -44073.807    2664.2995   -46738.107   0.11586757 
   16200    226.56228   -980.32398    132752.01   -44047.374    2765.5137   -46812.888   0.10235416 
   16300    222.69563   -1005.4163    132743.51   -44057.517    2718.3157   -46775.833   0.11398594 
   16400    224.77998   -1013.7941    132755.26   -44076.493    2743.7582   -46820.251    0.1030111 
   16500    226.22558   -987.54453    132769.59    -44006.24    2761.4038   -46767.644   0.10778666 
   16600     224.9159    -982.6322     132779.8   -43983.815    2745.4173   -46729.232   0.10923414 
   16700    223.93726   -1022.8009    132778.07   -44010.684    2733.4716   -46744.155   0.11056655 
   16800    218.95814   -1026.2014    132767.98   -44044.152    2672.6945   -46716.846   0.11009937 
   16900    220.88801   -1013.5187    132775.31     -44060.9    2696.2512   -46757.151   0.11289338 
   17000    220.64251   -1000.1842    132760.61   -44101.224    2693.2545   -46794.479   0.10007006 
   17100    222.40709   -1010.4109     132750.2   -44050.705    2714.7937   -46765.499   0.11120883 
   17200    222.85336   -990.43423    132752.53    -44094.92    2720.2411   -46815.161   0.10351174 
   17300    220.64403   -989.03583    132727.63   -44144.226     2693.273   -46837.499   0.10178074 
   17400    215.10711   -981.39108    132709.94    -44162.73    2625.6871   -46788.417   0.11060416 
   17500      220.762   -968.99039    132732.42   -44068.943     2694.713   -46763.656   0.10663231 
   17600    222.89022   -995.97434    132746.36   -44083.903     2720.691   -46804.594   0.10542832 
   17700     220.5037   -1002.8749    132735.77    -44110.28    2691.5602    -46801.84   0.11012971 
   17800    221.03588   -1006.9283    132721.11   -44102.904    2698.0562    -46800.96   0.10185988 
   17900    220.27195   -993.66848    132722.21    -44043.43    2688.7312   -46732.162    0.1162409 
   18000    221.06008   -1009.4359    132737.07   -44011.495    2698.3515   -46709.847   0.10802591 
   18100    222.82752   -1033.1023    132756.61   -43989.893    2719.9256   -46709.818   0.11815116 
   18200    219.07301   -1006.8818    132743.24   -44066.831    2674.0966   -46740.928   0.10756008 
   18300    221.70212   -990.76311    132742.95   -44019.656    2706.1885   -46725.844   0.10526239 
   18400     224.6236   -1021.5297    132730.58   -44103.542    2741.8494   -46845.391   0.10627984 
   18500    222.30314   -965.07226    132719.96    -44070.06    2713.5249   -46783.585   0.10306051 
   18600    224.73202   -980.55466    132728.09   -44013.433    2743.1728   -46756.605    0.1144146 
   18700    223.42713   -1013.5043    132740.31   -44040.149    2727.2447   -46767.394   0.10787227 
   18800    227.76898   -978.46308     132728.5    -44062.53    2780.2432   -46842.773   0.10210207 
   18900    227.87621   -993.82793    132736.17   -44044.266    2781.5521   -46825.818   0.10872063 
   19000    227.13999   -982.43256    132741.06   -44024.885    2772.5654   -46797.451  0.099070644 
   19100     222.7472   -1005.8342    132746.79   -44002.149    2718.9453   -46721.094   0.11894176 
   19200    218.41238    -999.1843    132748.53   -44042.649    2666.0326   -46708.682   0.10777152 
   19300     226.8416   -999.75012     132768.8   -43934.894    2768.9232   -46703.817   0.11035104 
   19400    228.06314    -1002.537    132764.83   -44002.769    2783.8338   -46786.603     0.111158 
   19500    223.24032   -999.17012    132772.13   -43978.407    2724.9645   -46703.371   0.10182742 
   19600    226.27259   -986.55395    132752.04   -43992.547    2761.9776   -46754.525   0.11038926 
   19700    222.32412   -1035.1629    132761.91   -44003.085    2713.7809   -46716.866   0.11036541 
   19800     227.1469   -1006.1445    132745.51   -43997.005    2772.6499   -46769.654   0.10742874 
   19900    231.32127   -992.46777    132758.08    -44019.06    2823.6039   -46842.664     0.109123 
   20000    224.77658   -993.11984    132745.68   -44044.661    2743.7167   -46788.378   0.10387207 
   20100    222.68794   -1003.8837    132739.73   -44075.045    2718.2219   -46793.266   0.10630344 
   20200    222.19563   -1006.5827     132724.5   -44089.212    2712.2125   -46801.424   0.10757968 
   20300    219.53225    -978.9447     132738.8   -44032.323    2679.7022   -46712.025   0.10897841 
   20400    222.79865   -1009.8174    132745.93    -44043.37    2719.5733   -46762.943   0.11116879 
   20500    220.25329   -1027.6554    132741.13   -44091.056    2688.5035   -46779.559   0.11115663 
   20600    222.69738   -997.94287    132735.99   -44111.939    2718.3372   -46830.276   0.10614021 
   20700    221.48894    -987.4261    132735.66   -44080.563    2703.5863   -46784.149   0.10422176 
   20800    226.07045   -1008.0166    132762.45   -44020.512    2759.5102   -46780.023   0.10811515 
   20900    224.34956   -1014.9803    132760.75   -44029.671    2738.5043   -46768.176   0.10751342 
   21000    222.19413   -1010.9829    132744.69   -44061.253    2712.1942   -46773.447   0.11111367 
   21100    219.93027   -1005.8259    132766.12   -44027.711    2684.5606   -46712.272   0.10966354 
   21200    229.46785   -982.01967    132774.54   -44019.904    2800.9803   -46820.884   0.10230184 
   21300    224.02486   -1012.0839    132784.07   -43988.808    2734.5409   -46723.348   0.10379471 
   21400    224.57479   -992.72127    132770.69   -44027.307    2741.2536   -46768.561   0.10683863 
   21500    224.86769   -1002.0661    132773.84   -43983.304    2744.8289   -46728.133   0.10639212 
   21600    226.39612   -1005.5105    132780.69   -43965.788    2763.4855   -46729.273    0.1109289 
   21700      221.135   -1013.5241    132778.81   -44051.666    2699.2661   -46750.932   0.10698266 
   21800    224.74321   -998.07859    132764.52   -44060.208    2743.3094   -46803.518   0.10048685 
   21900    226.87737   -989.45206     132756.1   -44060.434    2769.3598   -46829.794   0.10479451 
   22000    218.98067   -999.61321    132743.72   -44106.163    2672.9694   -46779.133   0.10172421 
   22100    219.83662   -999.01922     132755.1   -44088.537    2683.4175   -46771.954    0.1032858 
   22200    216.41283    -1019.897    132726.42   -44185.582    2641.6253   -46827.207   0.10733965 
   22300    222.10376   -978.60575    132743.86   -44115.701    2711.0911   -46826.792  0.095619883 
   22400    223.52684   -1004.8013    132762.05   -44030.341    2728.4618   -46758.803   0.11121848 
   22500    222.98285   -1003.7683    132764.95   -44040.791    2721.8217   -46762.613    0.1023453 
   22600    225.98871   -987.87066    132759.99   -44054.932    2758.5125   -46813.445    0.1045681 
   22700    220.30792   -1014.4249    132735.87   -44094.518    2689.1704   -46783.688   0.10943858 
   22800     222.3488   -996.00082    132758.88   -44043.453    2714.0822   -46757.535   0.10624966 
   22900    220.04845   -1010.4497    132745.14   -44063.727    2686.0031    -46749.73   0.11085515 
   23000    219.73956     -1007.67    132740.45   -44115.511    2682.2327   -46797.744   0.10714204 
   23100    225.75069    -973.1445    132737.46   -44047.204     2755.607   -46802.811   0.10377574 
   23200     223.6529   -986.40399    132747.38   -44041.094    2730.0006   -46771.095   0.10819847 
   23300    221.63522   -999.29084    132755.55   -44046.073    2705.3719   -46751.445   0.10533427 
   23400    220.74841   -992.34196    132753.89   -44027.735    2694.5472   -46722.283   0.11456799 
   23500    223.06829   -1013.5413    132754.92   -44017.461    2722.8646   -46740.326   0.10511571 
   23600     229.3579   -992.77581    132766.04   -43974.623    2799.6382   -46774.261   0.11248622 
   23700    222.90691   -995.57085    132757.55   -43995.274    2720.8947   -46716.169   0.10272592 
   23800    224.51859   -1027.2367    132753.46   -43998.665    2740.5675   -46739.233   0.11079686 
   23900    220.84815   -1012.1856    132742.97   -44068.002    2695.7647   -46763.766   0.10723736 
   24000    221.92477   -1023.8642    132740.99   -44031.507    2708.9064   -46740.414   0.11036327 
   24100    225.02798   -994.49786    132753.65    -44004.32    2746.7853   -46751.105    0.1089111 
   24200    223.46202   -1008.2622    132742.77   -44052.747    2727.6706   -46780.418   0.10530116 
   24300    226.18203   -1004.6273    132728.95   -44088.184    2760.8722   -46849.057   0.10073733 
   24400    219.74535   -990.60089    132714.23   -44120.483    2682.3034   -46802.786   0.10904501 
   24500    221.38686   -997.84976    132730.28   -44090.958    2702.3404   -46793.298   0.10366214 
   24600    219.69564    -1019.432    132728.41   -44124.675    2681.6967   -46806.372   0.10988856 
   24700     219.3047   -1015.4265    132723.99   -44128.001    2676.9247   -46804.926    0.1030734 
   24800    224.34636   -981.53982    132740.18   -44107.886    2738.4652   -46846.351   0.10265329 
   24900    218.74171   -984.35228    132722.86   -44114.253    2670.0525   -46784.305   0.10303446 
   25000    220.01941   -1006.9484    132707.85   -44086.096    2685.6487   -46771.745   0.11327414 
   25100    222.06495   -995.12739    132708.63    -44121.74    2710.6174   -46832.357   0.10360198 
   25200    216.91951   -995.87872    132701.34   -44207.322      2647.81   -46855.132    0.1082658 
   25300    221.38228   -997.20136    132703.31   -44162.413    2702.2844   -46864.697   0.10360433 
   25400    216.88341    -1021.326    132725.63   -44116.453    2647.3694   -46763.823   0.10856595 
   25500    216.35157   -1023.0136    132735.49    -44083.02    2640.8775   -46723.897   0.11119749 
   25600    225.28731    -1003.056    132760.65   -43969.826    2749.9509   -46719.777   0.11009519 
   25700    221.96284   -1002.9188    132753.63   -44060.316     2709.371   -46769.687    0.1061365 
   25800    220.90982   -994.83939    132761.99   -43975.119    2696.5174   -46671.636   0.11176139 
   25900    224.52594    -1019.922    132791.57   -43980.269    2740.6573   -46720.926   0.10753032 
   26000     227.6788    -977.7257    132755.53   -44004.513    2779.1424   -46783.655   0.10861549 
   26100    228.46101   -994.71364    132761.51   -44019.471    2788.6904   -46808.162   0.10336005 
   26200     226.1747   -998.32771    132757.86   -44048.056    2760.7827   -46808.838   0.10606117 
   26300    224.02098    -964.9816    132736.35   -44088.704    2734.4936   -46823.198   0.10048459 
   26400     224.7364   -977.31219     132731.7   -44105.811    2743.2263   -46849.037   0.10700547 
   26500    226.94475   -986.56231    132738.65   -44030.272    2770.1823   -46800.455   0.10559917 
   26600    222.65307   -1003.4867       132741   -44004.397    2717.7962   -46722.193   0.11047877 
   26700    226.60672   -980.93768    132757.71   -43973.235    2766.0562   -46739.291    0.1087431 
   26800    226.22237   -1000.3555    132764.15   -44024.245    2761.3646    -46785.61   0.10363053 
   26900    226.50212   -963.82637    132760.88   -43997.489    2764.7794   -46762.269    0.1103788 
   27000    225.13019   -1023.7103    132771.72    -43999.77    2748.0331   -46747.803    0.1101787 
   27100      227.162   -994.38478    132756.79   -43987.808    2772.8342   -46760.643   0.10815906 
   27200    224.89535   -984.95418    132751.18    -44018.69    2745.1665   -46763.857   0.10857126 
   27300    228.64766   -988.97322    132762.84   -43943.038    2790.9687   -46734.007   0.10565506 
   27400    228.23172   -1003.4818    132768.51   -43969.617    2785.8916   -46755.508   0.11168653 
   27500    223.30109   -1039.9206    132745.45   -44056.386    2725.7063   -46782.092   0.11052852 
   27600    216.85532   -1027.8411    132725.27   -44138.962    2647.0265   -46785.989   0.10923797 
   27700    224.97946   -986.22912    132720.56   -44065.376    2746.1932   -46811.569     0.107882 
   27800    226.61184   -1004.6288    132755.48   -44006.822    2766.1186    -46772.94   0.10926487 
   27900    222.72314   -990.09369    132735.43   -44073.397    2718.6516   -46792.048   0.10479792 
   28000    222.02436   -1018.7327    132730.41   -44120.807    2710.1219   -46830.929   0.10747416 
   28100    218.97845   -1042.1255    132732.12   -44105.019    2672.9423   -46777.962   0.10866631 
   28200    222.62003   -998.01066    132742.62   -44085.415    2717.3929   -46802.808   0.10359546 
   28300    225.68597   -999.31491    132740.83   -44080.147    2754.8171   -46834.964   0.10822913 
   28400    222.02614   -996.51753    132755.96   -44071.353    2710.1436   -46781.496   0.10322141 
   28500    224.07979   -992.61625    132742.31   -44075.101    2735.2114   -46810.312    0.1040572 
   28600    221.58209   -1011.3229    132733.57   -44092.679    2704.7235   -46797.403   0.10838821 
   28700     221.6222   -1019.6679    132735.66   -44082.517     2705.213    -46787.73   0.10479299 
   28800    219.78044     -1014.03    132730.43   -44101.217    2682.7318   -46783.949   0.11132986 
   28900      222.834   -990.70034    132747.85   -44079.138    2720.0048   -46799.143   0.10664133 
   29000    222.26467   -1022.1188    132747.49   -44058.031    2713.0553   -46771.086    0.1058933 
   29100    222.46659    -1003.825    132757.97   -44027.324      2715.52   -46742.844    0.1098209 
   29200    226.17934   -973.39035    132774.45   -43964.277    2760.8394   -46725.117   0.10657645 
   29300    223.28482   -1007.1255    132775.21   -43983.567    2725.5077   -46709.075   0.11307022 
   29400    224.19268   -1011.2124    132777.32   -44025.463    2736.5894   -46762.053   0.10986294 
   29500    224.42152   -990.55489    132760.92   -44009.752    2739.3827   -46749.135   0.10880707 
   29600    218.63662    -1009.207    132750.59   -44003.497    2668.7697   -46672.267   0.10740614 
   29700    219.95349   -1006.4019    132753.09    -44050.26    2684.8441   -46735.104   0.10874074 
   29800    218.85562   -999.36986    132734.03   -44126.953     2671.443   -46798.396   0.10402244 
   29900    223.79895   -986.41447    132739.56   -44085.355    2731.7833   -46817.139   0.10820255 
   30000    219.35241   -987.38741    132724.96    -44123.72     2677.507   -46801.227   0.10628567 
   30100    221.27259    -988.5994    132740.33   -44048.549    2700.9455   -46749.495   0.10624943 
   30200     223.1177   -1024.9193    132745.99   -44085.941    2723.4677   -46809.409   0.10660495 
   30300    223.41929   -1000.4175    132742.49   -44082.754     2727.149   -46809.903   0.10695741 
   30400    221.39324   -998.98383    132761.42   -44062.536    2702.4183   -46764.954   0.10702356 
   30500    218.95256   -994.70744    132725.88   -44146.946    2672.6263   -46819.572   0.10615818 
   30600    221.15195   -992.43695    132744.22   -44105.429     2699.473   -46804.902   0.10297426 
   30700    223.67843   -1001.0356    132749.73   -44126.393    2730.3122   -46856.705   0.10439669 
   30800    220.40136   -1004.2036     132761.2   -44088.858    2690.3109   -46779.169   0.10377711 
   30900    224.59059   -1003.6656    132776.42   -44038.421    2741.4464   -46779.868   0.10911984 
   31000    221.09414   -1002.0825    132770.42   -44057.935    2698.7673   -46756.702   0.10286094 
   31100    224.47557   -1025.5018    132764.21   -44065.635    2740.0425   -46805.678    0.1098087 
   31200    226.62837   -971.63964    132763.11   -44057.911    2766.3205   -46824.232   0.10123946 
   31300    221.90185   -992.92368    132793.46   -43978.834    2708.6266   -46687.461   0.11064985 
   31400    222.91808   -1018.9757    132768.31   -44040.873     2721.031   -46761.904   0.11100101 
   31500    224.98036   -976.41682    132768.05   -44011.054    2746.2041   -46757.259   0.10246901 
   31600    224.85002   -995.51518    132762.38    -44033.69    2744.6131   -46778.304   0.10795763 
   31700    224.18095   -1002.8785     132773.5   -44029.856    2736.4461   -46766.302   0.10864362 
   31800    224.00784   -1013.9298    132795.74   -44018.117    2734.3331    -46752.45   0.10611253 
   31900     218.4076   -1003.4738    132767.32   -44059.735    2665.9742    -46725.71   0.11390999 
   32000    223.98105   -1004.9446    132772.14   -44053.872    2734.0062   -46787.878  0.099928264 
   32100    224.01816   -1007.9276    132762.81   -44073.697    2734.4591   -46808.156   0.10711346 
   32200    220.38563   -1012.7734    132744.75   -44156.638    2690.1189   -46846.757   0.10188963 
   32300    220.41719   -982.50424    132723.21   -44122.115    2690.5042   -46812.619    0.1065229 
   32400    219.71545   -993.09511    132730.85   -44135.137    2681.9385   -46817.075   0.10676543 
   32500    224.15147   -977.75698    132735.54   -44058.457    2736.0863   -46794.544   0.10503355 
   32600    224.97297   -996.67762    132752.55   -44021.246    2746.1139    -46767.36   0.10565122 
   32700    220.83421   -1008.6919     132759.4   -44093.599    2695.5945   -46789.194   0.10697747 
   32800    222.81505   -989.33444    132754.74   -43996.836    2719.7735   -46716.609   0.11021306 
   32900    224.24487   -995.99808    132756.76   -44039.112    2737.2265   -46776.338   0.11048372 
   33000    220.42832   -1027.0889    132749.68   -44030.775      2690.64   -46721.415   0.10846546 
   33100    224.13796   -1002.6872    132742.44   -44040.256    2735.9215   -46776.178   0.11069206 
   33200    221.31934   -1021.1562    132753.53   -44056.307    2701.5162   -46757.823   0.10467748 
   33300    220.90244    -1005.404    132747.42   -44037.833    2696.4274    -46734.26   0.11120042 
   33400    225.25264   -1008.8739     132754.4   -44066.692    2749.5277    -46816.22   0.10514175 
   33500    220.30365   -998.92745    132733.77   -44105.623    2689.1182   -46794.741   0.10377182 
   33600     221.0556   -983.95825    132738.31   -44086.736    2698.2968   -46785.033   0.10519673 
   33700    225.13205   -1007.8263    132752.21   -44059.023    2748.0557   -46807.079   0.10567726 
   33800     223.8839   -976.18064    132782.16   -43948.879    2732.8203     -46681.7   0.10656272 
   33900    228.17584     -994.066    132795.77   -43941.943    2785.2095   -46727.152   0.10891625 
   34000    223.75182   -1034.8918    132769.22   -44067.612     2731.208    -46798.82   0.10016748 
   34100     225.8951   -1021.1073    132750.92   -44058.542    2757.3698   -46815.912   0.10571267 
   34200     221.0415   -973.93477    132749.07   -44085.938    2698.1248   -46784.062   0.10359867 
   34300    220.09173     -978.251     132739.9   -44116.649    2686.5315    -46803.18   0.10003461 
   34400    223.29662   -977.44675    132745.56   -44095.781    2725.6517   -46821.433    0.1052528 
   34500     227.9213   -958.96333     132761.7    -43996.98    2782.1024   -46779.082   0.10087692 
   34600     225.7403   -1011.6052    132776.39   -43965.474    2755.4802   -46720.954   0.10432879 
   34700    223.83274     -1020.52    132755.92   -44040.657    2732.1958   -46772.853   0.11021235 
   34800     222.3418   -1015.7368    132730.44   -44078.189    2713.9968   -46792.186   0.10165417 
   34900    224.82702   -1001.3231    132725.58    -44047.09    2744.3324   -46791.422   0.10890517 
   35000    225.48746   -981.09622    132731.71   -44063.971    2752.3939   -46816.365   0.10276619 
   35100    222.35397   -1026.2004    132743.31   -44033.858    2714.1453   -46748.003   0.10784935 
   35200    225.26783    -1020.483    132734.66   -43996.994    2749.7131   -46746.707   0.11188454 
   35300    224.58361   -1006.4578    132744.66   -44029.721    2741.3612   -46771.082   0.10637492 
   35400    221.99127   -1007.6401    132744.37   -44060.351     2709.718   -46770.069   0.11041281 
   35500    221.96988   -1012.9543    132733.82     -44068.9     2709.457   -46778.357   0.10461339 
   35600    220.52563   -1031.9722    132754.87   -44055.443    2691.8278   -46747.271   0.10747566 
   35700    221.99859   -965.14612    132762.68   -44021.035    2709.8074   -46730.843   0.10714302 
   35800    226.43236    -984.5862    132790.96    -43923.09    2763.9278   -46687.018   0.10472888 
   35900     224.5302   -1000.5548    132776.77   -44001.191    2740.7093     -46741.9   0.10950832 
   36000    219.39477   -992.31079     132749.4    -44050.24    2678.0241   -46728.264  0.099979905 
   36100     219.9412   -1026.3525    132753.95   -44082.415     2684.694   -46767.109   0.10614074 
   36200     227.1948   -1000.2079    132751.47   -44065.058    2773.2345   -46838.293   0.10191922 
   36300    220.91577   -984.85081    132739.81   -44064.073    2696.5901   -46760.663   0.10201649 
   36400    222.10911   -1009.5904    132750.68   -44079.575    2711.1564   -46790.731   0.11005275 
   36500    224.11571   -969.11436    132743.98   -44085.289    2735.6499   -46820.939  0.095939022 
   36600    223.53471   -978.88477    132756.42   -44051.673     2728.558   -46780.231   0.10650669 
   36700    223.50576   -981.38416    132754.49   -44095.126    2728.2045    -46823.33   0.10312919 
   36800    219.42014    -985.8362    132739.86   -44138.744    2678.3338   -46817.078  0.099266746 
   36900    221.31849   -1014.9593    132747.37   -44098.452    2701.5058   -46799.958   0.10848651 
   37000    221.70187   -1006.2592    132762.01     -44087.1    2706.1855   -46793.286   0.10191635 
   37100    221.89478   -1005.7181    132743.26    -44108.53    2708.5403    -46817.07   0.10302944 
   37200     222.8728   -988.91663    132751.64   -44115.614    2720.4783   -46836.092   0.10533124 
   37300    222.35287   -1004.2291    132748.65   -44120.151    2714.1319   -46834.283   0.10138991 
   37400    219.10759   -1000.7687    132730.51   -44137.103    2674.5186   -46811.622    0.1056408 
   37500     219.0301   -996.82923    132738.28   -44107.106    2673.5728   -46780.679   0.10383505 
   37600    218.10527   -962.51893     132717.1   -44120.907     2662.284   -46783.191   0.10463885 
   37700    216.43184   -1004.5327    132713.17   -44204.811    2641.8573   -46846.669   0.10592525 
   37800    212.55022   -1001.6701    132702.71    -44227.81    2594.4767   -46822.287   0.10401433 
   37900    222.35507   -1003.1818    132720.87   -44139.366    2714.1588   -46853.524   0.10356393 
   38000    220.40345   -1015.2395    132737.71   -44071.825    2690.3365   -46762.161   0.10861057 
   38100    225.89309   -1003.0221    132732.41   -44068.341    2757.3453   -46825.686   0.10351026 
   38200    222.80824    -999.5948    132747.78    -44029.18    2719.6903    -46748.87   0.11057414 
   38300    224.38914   -1007.7864    132749.24   -44057.325    2738.9874   -46796.312     0.103212 
   38400    219.06664   -995.99036    132758.68   -44031.556    2674.0188   -46705.575   0.11071536 
   38500    222.39388   -1012.6519    132748.47   -44049.767    2714.6325     -46764.4   0.10496857 
   38600    222.82662   -992.18024    132748.51   -44042.898    2719.9146   -46762.813   0.10665081 
   38700    222.45493    -995.1265    132754.35   -44024.026    2715.3777   -46739.404   0.10971744 
   38800    222.36719   -973.56031    132740.61   -44059.406    2714.3067   -46773.713   0.10168616 
   38900    227.21937   -987.47289    132753.55   -43986.677    2773.5345   -46760.212   0.11057038 
   39000    221.75637   -1018.1146    132743.72   -44022.705    2706.8508   -46729.556   0.10889315 
   39100    220.61426    -1001.321    132743.04   -44044.467    2692.9097   -46737.377   0.10353958 
   39200    218.79431    -1029.416     132733.1    -44129.91    2670.6946   -46800.604   0.11221711 
   39300    218.34211   -990.01146    132704.71   -44155.856    2665.1749   -46821.031  0.098416076 
   39400    221.90106   -991.58019    132727.61   -44031.686    2708.6169   -46740.302   0.11216112 
   39500    221.50319    -1014.632    132743.74   -44058.581    2703.7603   -46762.341   0.10692373 
   39600    227.18034   -1019.1113    132762.46   -44034.156     2773.058   -46807.214   0.10451407 
   39700    223.52366   -996.45509    132750.22   -44038.548    2728.4231   -46766.971   0.11150251 
   39800     224.9481   -999.20395    132755.83   -44064.614    2745.8104   -46810.424   0.10298069 
   39900    226.89981   -994.30181    132753.97   -44025.522    2769.6338   -46795.156   0.10715982 
   40000    222.95521   -998.49998    132747.98   -44061.658    2721.4843   -46783.142   0.10715535 
   40100     221.3509   -1030.4741    132731.26   -44077.519    2701.9014    -46779.42   0.10376562 
   40200    220.83161   -1002.8477    132736.73   -44059.242    2695.5628   -46754.805   0.11252329 
   40300    219.78937   -999.22134    132743.58   -44109.581    2682.8407   -46792.422   0.10164657 
   40400    220.83842   -1005.2725    132742.14   -44135.355    2695.6459   -46831.001   0.10780498 
   40500    223.26076   -968.48114    132749.75    -44051.34    2725.2139   -46776.554   0.10101499 
   40600    223.83151   -1007.2066    132767.32   -44062.243    2732.1808   -46794.424   0.10329266 
   40700    217.64053   -996.96883    132752.24   -44110.583    2656.6111   -46767.194   0.10637257 
   40800    222.22035   -990.76981     132762.9   -44044.909    2712.5142   -46757.423   0.10499043 
   40900    221.75436   -995.13857    132741.86   -44090.684    2706.8263    -46797.51     0.109303 
   41000    223.06481   -999.05877    132750.89   -44093.259    2722.8221   -46816.081   0.10245257 
   41100     220.1136   -1024.3805    132743.35    -44094.65    2686.7985   -46781.448   0.10438503 
   41200    225.87568   -989.72803    132768.98   -44019.342    2757.1328   -46776.474   0.11092242 
   41300    222.60105   -1002.0127    132759.17    -44057.05    2717.1612   -46774.212   0.10269113 
   41400     223.4374   -990.90813    132744.37   -44038.743    2727.3702   -46766.113   0.11211808 
   41500    223.77278    -1001.915    132760.77   -44020.353    2731.4639   -46751.817   0.10507099 
   41600    223.18997   -1013.0387    132764.11   -44035.654    2724.3499   -46760.004   0.10546322 
   41700    224.21334   -1009.5915    132733.93   -44112.633    2736.8416   -46849.475    0.1062986 
   41800    223.68998   -979.69172    132748.85   -44060.726    2730.4532   -46791.179   0.10333518 
   41900    222.02904   -992.24461    132745.53   -44115.894    2710.1791   -46826.073   0.10339585 
   42000    222.16837   -1006.7017    132744.92   -44095.795    2711.8799   -46807.675   0.10719803 
   42100    219.32893   -988.03817    132735.56   -44145.123    2677.2204   -46822.344   0.10039554 
   42200    220.84569   -991.35521    132735.64   -44100.265    2695.7346       -46796   0.10769881 
   42300    222.35287   -982.89282    132751.13   -44088.199    2714.1318   -46802.331   0.10080751 
   42400    222.13477   -1010.4145    132754.24   -44092.961    2711.4696    -46804.43   0.10323288 
   42500     223.4725    -1009.078    132743.73   -44074.037    2727.7986   -46801.836    0.1057829 
   42600    222.11527    -1014.229    132734.49   -44083.629    2711.2316    -46794.86   0.10398103 
   42700    219.91248   -1019.8799    132719.43   -44146.976    2684.3435   -46831.319   0.10499861 
   42800    224.16342   -993.06146    132730.16   -44088.077    2736.2322   -46824.309   0.10546023 
   42900    220.95515     -988.389    132740.64   -44111.372    2697.0708   -46808.442   0.10125389 
   43000    223.54422   -1005.8517    132740.62   -44096.445     2728.674   -46825.119   0.10560931 
   43100    220.06947   -1005.3048    132741.13   -44058.766    2686.2597   -46745.025   0.10544541 
   43200    221.45612   -992.40225    132735.99   -44073.117    2703.1858   -46776.302   0.10968426 
   43300    219.53049   -994.03892    132723.84   -44107.691    2679.6808   -46787.372   0.10425747 
   43400    223.38293   -996.18314    132740.99   -44054.728    2726.7052   -46781.433    0.1078261 
   43500    225.15683   -1020.1206    132748.05   -44059.801    2748.3582   -46808.159   0.10794557 
   43600    221.75386   -1016.6391    132729.45   -44077.999    2706.8202   -46784.819   0.10442817 
   43700    219.28209   -1001.8006    132714.38   -44135.213    2676.6487   -46811.862   0.10974609 
   43800    218.02046   -1027.1339    132709.93   -44151.503    2661.2487   -46812.751   0.10462861 
   43900    221.54811   -1024.5243    132723.69   -44089.363    2704.3087   -46793.672   0.10837418 
   44000    223.03017   -988.73868    132707.11   -44158.428    2722.3993   -46880.827   0.10290928 
   44100    220.17787   -988.68238    132712.23   -44157.251    2687.5829   -46844.834  0.099930407 
   44200    225.62702   -1004.5921    132736.05   -44096.063    2754.0975    -46850.16   0.10877937 
   44300    222.60826   -980.61678    132733.44   -44098.931    2717.2492    -46816.18   0.10168112 
   44400    219.91599   -1008.0164    132723.19    -44125.43    2684.3863   -46809.817   0.10631691 
   44500    219.43944   -1005.6681    132728.55   -44113.825    2678.5694   -46792.394   0.10726382 
   44600    221.81385   -994.97049    132728.26    -44100.67    2707.5524   -46808.223  0.099258304 
   44700    220.48422   -974.51536    132719.32   -44088.928    2691.3224    -46780.25    0.1088964 
   44800     217.0066   -1012.2391     132722.7   -44089.436    2648.8731    -46738.31   0.10718516 
   44900    221.44163   -1000.9304    132732.98   -44069.888     2703.009   -46772.897   0.10510327 
   45000    221.28729    -1005.641    132731.57   -44076.612    2701.1249   -46777.737   0.10599378 
   45100    229.38459   -976.36213    132743.83   -44004.316     2799.964    -46804.28   0.10342247 
   45200    221.89724   -1016.9375    132728.56   -44034.816    2708.5703   -46743.387   0.11009615 
   45300    220.87453   -995.16729    132736.57   -44066.257    2696.0866   -46762.344   0.10737709 
   45400    224.22928    -999.7955    132728.52   -44077.327    2737.0362   -46814.364   0.10548611 
   45500    221.73395   -992.19838    132727.74   -44046.688    2706.5772   -46753.265   0.10607373 
   45600    219.80435   -990.63659    132743.54   -44027.529    2683.0236   -46710.553   0.10651612 
   45700    224.26195   -998.87299    132748.26   -44009.095    2737.4349    -46746.53   0.10800525 
   45800     220.2967   -1003.1884    132739.94   -44046.646    2689.0334    -46735.68   0.10722929 
   45900    225.23361   -976.04767    132745.71   -43990.534    2749.2954    -46739.83   0.10796273 
   46000    224.94961   -1014.3016    132757.01   -44017.153    2745.8288   -46762.981   0.10381396 
   46100    230.97584   -983.15343    132776.39   -43957.624    2819.3875   -46777.011   0.10498696 
   46200    227.42848   -1014.8151    132770.92   -44004.269    2776.0869   -46780.356   0.10732552 
   46300    223.83037   -993.69351    132765.32    -43977.95    2732.1669   -46710.117   0.10619682 
   46400    223.38348   -1005.2813    132749.12   -44027.619     2726.712   -46754.331    0.1059456 
   46500     224.2527   -986.36863    132743.76     -43973.5     2737.322   -46710.822   0.10732054 
   46600    220.14118   -1021.4715    132725.98    -44053.23    2687.1351   -46740.365   0.10469661 
   46700    228.09145   -983.03462    132740.63   -44002.385    2784.1794   -46786.564   0.10806006 
   46800    220.77011   -978.34012    132736.35   -43993.224     2694.812   -46688.036   0.10514699 
   46900    223.81527    -984.7439    132734.73   -44019.813    2731.9825   -46751.795    0.1050298 
   47000     222.5944   -1011.2518    132726.52   -44065.248    2717.0801   -46782.328   0.10681389 
   47100    220.22206   -986.55128     132731.5   -44069.993    2688.1223   -46758.116   0.10287437 
   47200    224.89801    -978.7667     132711.7   -44070.659    2745.1989   -46815.858   0.10740311 
   47300    223.46779    -1023.678    132730.44   -44124.666    2727.7411   -46852.407   0.10540551 
   47400    224.82057   -986.76211    132731.29   -44086.081    2744.2536   -46830.335  0.099548347 
   47500     220.4791   -1011.9384    132721.65   -44102.751    2691.2599   -46794.011   0.10943227 
   47600    220.12218   -1020.7386    132739.96   -44083.769    2686.9031   -46770.672   0.10551069 
   47700    222.06733   -981.72362    132744.33   -44042.608    2710.6465   -46753.254   0.10829394 
   47800    221.39847   -999.85089    132743.66   -44075.394     2702.482   -46777.876   0.10519537 
   47900    221.26315   -1006.7824    132728.05   -44114.653    2700.8303   -46815.483   0.10295928 
   48000    222.18407   -998.73024    132735.16   -44081.328    2712.0714   -46793.399   0.10418511 
   48100    218.10477   -997.95161    132721.78    -44116.13    2662.2778   -46778.407   0.10364471 
   48200    223.45925   -1000.5235    132732.65   -44110.774    2727.6368   -46838.411   0.10563982 
   48300    220.70754   -992.93127       132722   -44085.207    2694.0483   -46779.255   0.10297922 
   48400    220.79212   -1009.7005    132732.49   -44090.386    2695.0807   -46785.467   0.10156477 
   48500    217.71829   -1020.1722    132708.88   -44150.548    2657.5602   -46808.109   0.10319861 
   48600    217.62809    -999.7156    132702.56   -44143.405    2656.4593   -46799.864   0.10068473 
   48700    222.07128   -997.00401    132721.84   -44073.851    2710.6947   -46784.546   0.10866179 
   48800    221.38663   -966.28548    132730.36   -44078.811    2702.3375   -46781.149   0.09905271 
   48900    224.38173   -995.37132    132737.79   -44063.338     2738.897   -46802.235   0.10602587 
   49000    218.99934   -993.20719    132742.58   -44101.147    2673.1973   -46774.344   0.10177392 
   49100    221.66628   -992.13769    132751.13    -44053.06    2705.7511   -46758.811   0.10006314 
   49200    225.06665   -1001.3647    132754.77   -44056.546    2747.2574   -46803.804   0.10758207 
   49300    221.19405   -1016.6319    132739.49   -44099.175    2699.9868   -46799.162   0.10191916 
   49400    219.72457   -1004.0504    132730.85   -44136.071    2682.0498   -46818.121   0.10306364 
   49500    217.89014   -1019.6207    132734.09   -44073.005    2659.6579   -46732.663   0.10836707 
   49600    222.86387   -985.78543     132730.1   -44093.024    2720.3694   -46813.394  0.098942008 
   49700    223.29746   -979.32524    132733.93   -44107.785    2725.6619   -46833.447    0.1050447 
   49800    221.47301   -1027.7118    132725.97   -44094.042     2703.392   -46797.434   0.10427102 
   49900    222.83787   -997.22471    132729.57   -44062.898     2720.052    -46782.95   0.10777264 
   50000    217.82338   -979.73434    132736.36   -44066.851     2658.843   -46725.694   0.10495063 
   50100    225.94738   -996.68072     132765.3   -43976.214     2758.008   -46734.222   0.10696276 
   50200      227.125   -1005.5295    132763.79   -44037.294    2772.3825   -46809.676   0.10423126 
   50300    223.84196   -1027.2112    132758.54   -44049.768    2732.3084   -46782.076   0.10525066 
   50400    219.52323   -1012.9491    132746.76   -44064.101    2679.5921   -46743.693   0.10446347 
   50500    226.88244   -992.78564    132757.02   -44018.519    2769.4217   -46787.941   0.10416651 
   50600    227.79802   -1001.0332    132782.31   -43940.418    2780.5977   -46721.016   0.11005793 
   50700    225.27663   -1000.2956    132757.12   -44118.877    2749.8205   -46868.697   0.10202626 
   50800    221.05656   -1009.5132    132724.82   -44121.544    2698.3086   -46819.853   0.10132913 
   50900    222.79997    -1028.305    132723.79   -44128.735    2719.5894   -46848.325    0.1044997 
   51000    220.40082   -992.99686     132728.2   -44099.044    2690.3044   -46789.349   0.10234559 
   51100    220.49514   -991.28346    132728.49   -44100.101    2691.4557   -46791.556   0.10767069 
   51200    220.13189   -1010.3579     132713.5   -44138.787    2687.0217   -46825.809   0.10654663 
   51300    217.88639   -979.32319     132691.7   -44145.821    2659.6122   -46805.433   0.10194145 
   51400    223.74685    -967.5245    132705.81   -44096.447    2731.1473   -46827.594   0.10088213 
   51500    218.43448   -984.95216    132717.35    -44121.13    2666.3024   -46787.433   0.10481978 
   51600    220.10789   -1024.5371    132720.18    -44082.27    2686.7287   -46768.999   0.10526944 
   51700    222.23757   -991.48711    132729.03   -44037.855    2712.7245   -46750.579   0.10907545 
   51800    219.61572   -1010.2892    132734.13   -44033.216    2680.7211   -46713.938    0.1075406 
   51900    223.67141   -1001.3699     132749.3   -44080.121    2730.2265   -46810.347   0.10168328 
   52000    221.11236   -986.62283    132741.41   -44078.845    2698.9897   -46777.835   0.10545188 
   52100     221.5406     -1005.52    132732.27    -44138.84     2704.217   -46843.057   0.10128609 
   52200    220.16349    -978.3731    132705.77   -44158.414    2687.4074   -46845.821   0.10273871 
   52300    220.12076   -992.70825    132703.46   -44156.244    2686.8858    -46843.13   0.10364113 
   52400    216.55875   -994.69212    132695.34   -44217.785    2643.4064   -46861.192  0.097475192 
   52500    219.01362   -995.10788    132694.95   -44123.774    2673.3716   -46797.146   0.10771686 
   52600    220.78636   -994.48789     132723.2   -44061.438    2695.0104   -46756.449   0.10475614 
   52700    220.61255   -989.24966    132725.12   -44071.427    2692.8889   -46764.316   0.10589621 
   52800    226.30991   -987.26006    132739.73   -43991.199    2762.4332   -46753.632   0.10426535 
   52900    226.33154   -984.63423    132757.81   -44036.618    2762.6971   -46799.315   0.10319843 
   53000     221.2521   -1012.2953     132751.6   -44010.599    2700.6955   -46711.295   0.10764562 
   53100    220.56275    -1011.283     132718.9   -44098.276    2692.2809   -46790.557   0.10595935 
   53200     222.7673   -996.50433    132716.01    -44138.94    2719.1905   -46858.131    0.1043949 
   53300    220.84088   -979.92823    132712.63   -44126.073    2695.6759   -46821.749  0.099150013 
   53400    222.77586   -992.68498    132732.98   -44065.562    2719.2951   -46784.858   0.10541152 
   53500    220.44333   -1017.6167    132732.29   -44039.704    2690.8232   -46730.527   0.11052443 
   53600    218.34086   -1010.7619    132721.17   -44099.699    2665.1596   -46764.859    0.1043218 
   53700     219.5485   -996.93766    132738.88   -44071.491    2679.9006   -46751.391   0.11040841 
   53800    222.35668   -1004.8756    132731.42    -44100.05    2714.1784   -46814.228  0.099857021 
   53900    217.53488   -1029.9242    132723.95   -44106.682    2655.3215   -46762.003   0.10677546 
   54000    223.46172   -995.62467    132726.54   -44129.124    2727.6669   -46856.791    0.1035236 
   54100    216.70615   -1013.7326    132740.04   -44088.368    2645.2056   -46733.573   0.10311356 
   54200    224.44248   -985.91947    132746.28    -44047.87    2739.6386   -46787.509   0.10908713 
   54300    224.39337   -982.23002     132774.7   -44001.076    2739.0391   -46740.115   0.10120951 
   54400    226.10145   -985.93509    132782.83   -43968.541    2759.8886    -46728.43   0.10476449 
   54500    227.68231   -998.02009     132763.1    -44014.69    2779.1852   -46793.875   0.10777759 
   54600    226.84586   -980.81012    132769.62   -44005.144    2768.9751   -46774.119    0.1015969 
   54700    221.87859   -972.33461     132757.1   -44026.461    2708.3426   -46734.804   0.10674854 
   54800    225.51701   -1008.6051    132768.19   -44011.713    2752.7547   -46764.468    0.1051112 
   54900    224.48167   -998.26853     132768.2   -44020.322     2740.117   -46760.439   0.10503363 
   55000    226.15972   -1017.2616    132765.24   -44029.973    2760.5999   -46790.573   0.10663574 
   55100    221.80256   -990.70378    132761.57     -44034.9    2707.4146   -46742.315   0.10418458 
   55200    220.14751   -1017.0976    132742.51    -44142.24    2687.2124   -46829.452   0.10097786 
   55300      217.764   -998.18901    132720.51   -44175.005    2658.1182   -46833.123   0.10062496 
   55400    221.25763    -1017.668    132725.29    -44131.18    2700.7629   -46831.943   0.10453823 
   55500    224.10792   -1012.8997    132730.72   -44128.335    2735.5548    -46863.89   0.10428843 
   55600    221.39254   -978.21982    132756.26   -44039.328    2702.4097   -46741.738   0.10530513 
   55700    227.35361   -985.70556    132781.86   -44004.603     2775.173   -46779.776   0.10599179 
   55800    226.84706   -982.85772    132791.88   -43992.834    2768.9898   -46761.824   0.10029242 
   55900    223.48824   -982.70144    132780.14   -44018.399    2727.9906   -46746.389    0.1048182 
   56000    224.15974   -1043.1562     132790.7    -44023.72    2736.1873   -46759.907   0.10901184 
   56100    225.80523   -971.50414    132782.53   -44007.111    2756.2728   -46763.383   0.10288695 
   56200    223.46168   -1020.5064    132780.67   -44028.434    2727.6665     -46756.1    0.1102934 
   56300    220.76264   -1012.6975    132763.12   -44096.497    2694.7209   -46791.218   0.10120335 
   56400    220.11828   -1001.0004    132742.61   -44119.902    2686.8555   -46806.757   0.10047968 
   56500     221.3923   -1000.0009    132725.41   -44160.363    2702.4068    -46862.77   0.10319981 
   56600    216.67919   -1009.9884     132707.6   -44189.423    2644.8766     -46834.3  0.099384237 
   56700    220.71989   -1007.0662    132713.78   -44151.348    2694.1991   -46845.547   0.10559752 
   56800    224.00772    -997.3023    132730.45   -44076.197    2734.3317   -46810.529   0.10348589 
   56900    222.38359   -1002.2619    132722.52   -44158.526    2714.5068   -46873.032   0.09790814 
   57000     218.9987   -996.89891    132710.92   -44172.608    2673.1894   -46845.797   0.10594748 
   57100    222.39845   -976.24734    132740.71   -44083.446    2714.6883   -46798.135  0.099596333 
   57200    222.27576   -1005.3739    132751.25   -44058.314    2713.1907   -46771.505   0.10935969 
   57300     221.1165   -999.48405    132727.15   -44154.045    2699.0402   -46853.085   0.10342398 
   57400    225.65629   -1005.1857    132741.26   -44085.347    2754.4548   -46839.801   0.10323148 
   57500    218.88705   -995.30117    132761.86   -44079.019    2671.8267   -46750.846   0.10826787 
   57600     221.5733   -980.79992    132732.37   -44133.772    2704.6161   -46838.389  0.098356995 
   57700    218.54772   -1005.9354    132755.13   -44100.703    2667.6846   -46768.388   0.10666627 
   57800    227.41332    -976.6619    132766.53   -44039.925    2775.9018   -46815.827   0.10355516 
   57900    220.92413   -994.29936    132760.13   -44093.767    2696.6921   -46790.459   0.10285275 
   58000    222.53036   -987.05481    132755.74   -44035.771    2716.2984   -46752.069   0.10888611 
   58100    222.21177   -994.60789    132763.39   -44091.685    2712.4096   -46804.095   0.09869011 
   58200    228.07898   -1021.7327     132779.3   -43971.919    2784.0271   -46755.946   0.10903716 
   58300    226.41976   -999.90486    132784.98   -44031.231     2763.774   -46795.005  0.099557372 
   58400    225.16915   -1013.8266    132765.78   -44060.864    2748.5085   -46809.372   0.10488563 
   58500    222.38164   -1020.6186     132762.8   -44078.127    2714.4831    -46792.61   0.10686647 
   58600    220.01143   -994.37196     132760.3   -44111.798    2685.5513   -46797.349  0.098114526 
   58700    219.67883   -1027.7482    132756.14    -44076.74    2681.4914   -46758.232   0.10849475 
   58800    219.11072    -995.6061    132758.32   -44084.945    2674.5568   -46759.502    0.1002146 
   58900    225.13758   -977.09835    132773.95   -44042.064    2748.1232   -46790.187      0.10086 
   59000    223.42618   -1013.4519    132768.57   -43976.764    2727.2331   -46703.998   0.10975425 
   59100    228.85216    -995.4593    132775.86    -43992.28     2793.465   -46785.745   0.10082172 
   59200    219.76122   -1030.0223    132745.59   -44047.492    2682.4972   -46729.989   0.10900843 
   59300    226.40649   -980.54637    132752.93   -44063.883    2763.6121   -46827.496     0.101467 
   59400    221.81222   -991.93067    132752.59   -44043.843    2707.5324   -46751.375   0.10202342 
   59500    221.98675   -1019.2331    132735.67   -44123.143    2709.6629   -46832.806   0.10740157 
   59600    222.59307   -991.06259    132717.77    -44078.49    2717.0639   -46795.554     0.102966 
   59700    219.47685   -991.09928     132736.6   -44039.994    2679.0259    -46719.02    0.1087735 
   59800    218.01684   -1018.6473    132717.11    -44145.09    2661.2045   -46806.295    0.1079114 
   59900    223.84327   -1002.9363    132716.75    -44142.46    2732.3243   -46874.784   0.10165777 
   60000    219.60438    -993.8143    132729.33   -44101.165    2680.5826   -46781.748   0.10580262 
   60100     218.4253   -999.97594    132733.12   -44093.181    2666.1903   -46759.372   0.10527339 
   60200    223.61816   -1013.3975    132737.14   -44066.166    2729.5765   -46795.743   0.10701592 
   60300    224.78058   -1008.4708    132746.14   -44022.855    2743.7655   -46766.621   0.10746377 
   60400    225.82772   -1004.4088    132752.06   -43990.789    2756.5473   -46747.336   0.10707375 
   60500    226.77775   -1027.4695    132766.15   -43988.504    2768.1439   -46756.648   0.10713455 
   60600    225.57466    -980.6786     132755.9   -44055.871    2753.4584   -46809.329  0.099902434 
   60700    225.42842   -1001.1117    132764.65   -43951.275    2751.6733   -46702.949   0.10749069 
   60800    224.49069   -1011.6946    132777.44   -43952.309     2740.227   -46692.536   0.10793972 
   60900    228.23582   -1000.0943    132779.05   -43989.801    2785.9417   -46775.743   0.10362597 
   61000     221.7543   -1008.4039    132760.07   -44061.204    2706.8254    -46768.03   0.10778085 
   61100    225.48934   -979.53094    132747.99   -44013.471    2752.4169   -46765.888   0.10132087 
   61200    222.68691   -1002.8798    132745.34   -44028.438    2718.2093   -46746.647   0.10776809 
   61300    226.58628   -997.68046    132737.94   -44045.122    2765.8067   -46810.929   0.10365581 
   61400    224.44714   -1001.3957    132730.09   -44058.614    2739.6954   -46798.309   0.10258002 
   61500    222.11959   -996.73477    132736.93   -44053.229    2711.2844   -46764.513   0.11071181 
   61600    219.24249   -995.91319    132733.35   -44096.898    2676.1653   -46773.063   0.10184399 
   61700    219.61928   -1000.5693    132728.15   -44106.284    2680.7645   -46787.049   0.10539511 
   61800    217.52432   -1003.2154    132732.18    -44100.92    2655.1926   -46756.112   0.10747112 
   61900    224.03294   -979.76239    132745.47   -44035.216    2734.6396   -46769.855  0.099214155 
   62000    226.42889   -1008.0635    132750.65   -44054.625    2763.8855   -46818.511   0.10965646 
   62100    222.36119   -1023.1903    132744.55   -44074.002    2714.2334   -46788.236   0.10297862 
   62200    225.65209   -992.38039    132754.12    -44006.42    2754.4035   -46760.824   0.10791829 
   62300    222.54294   -1009.0865    132756.32   -44090.089     2716.452   -46806.541   0.10585628 
   62400    221.20049   -985.98105    132754.57   -44085.976    2700.0655   -46786.041   0.10288615 
   62500    221.10842   -1002.0999    132762.85   -44087.001    2698.9416   -46785.943   0.10628345 
   62600    220.81984   -1012.8953    132750.36    -44108.43    2695.4191   -46803.849   0.10275563 
   62700    218.63671   -1003.6909    132733.45   -44102.659    2668.7709    -46771.43   0.10605391 
   62800     221.4851   -991.53774    132723.29   -44102.668    2703.5395   -46806.207   0.10469797 
   62900    220.18058   -991.60087     132742.8   -44063.125     2687.616   -46750.741   0.10407138 
   63000    220.34632   -996.34667    132750.06   -44096.814    2689.6391   -46786.453   0.10560172 
   63100    218.31245   -989.19183    132739.16   -44140.215    2664.8128   -46805.028    0.0991176 
   63200    226.08602   -976.66448    132749.06   -44040.617    2759.7002   -46800.317   0.10617156 
   63300    220.06801   -1004.4306    132754.19   -44110.162     2686.242   -46796.404   0.10249991 
   63400    220.26659   -1010.2556    132725.17   -44160.394    2688.6659    -46849.06   0.10315678 
   63500    221.74342   -983.06962     132733.7   -44125.532    2706.6927   -46832.225   0.10525536 
   63600    215.37924   -1008.1854    132727.85   -44175.998    2629.0089   -46805.006   0.10201111 
   63700    216.88368   -1006.2065    132718.25   -44183.755    2647.3727   -46831.128   0.10439985 
   63800    221.17974   -1028.0841    132718.87   -44206.263    2699.8122   -46906.076   0.10188293 
   63900    219.06328   -1017.3179    132721.33    -44127.22    2673.9777   -46801.198   0.10320819 
   64000    221.30648   -1011.3626    132740.72   -44068.664    2701.3592   -46770.023   0.11074602 
   64100    223.90379   -1008.7383    132754.53   -44044.432    2733.0631   -46777.495   0.10426554 
   64200    221.48257   -997.18073    132759.39   -44015.672    2703.5086    -46719.18    0.1056312 
   64300    227.35072    -1010.619    132766.23    -44032.51    2775.1377   -46807.648   0.10618656 
   64400    223.50874   -1004.8826    132750.98   -44092.882    2728.2409   -46821.123   0.10046469 
   64500    221.98745   -985.39726    132731.57   -44079.252    2709.6714   -46788.923   0.10621481 
   64600    217.32108   -1025.6387    132721.59   -44128.102    2652.7117   -46780.814   0.10591756 
   64700    216.76054   -1023.9428    132728.87   -44144.387    2645.8696   -46790.257    0.1026205 
   64800    219.54025   -1029.0627    132717.17   -44090.915    2679.7999   -46770.715    0.1098915 
   64900    227.89521   -968.39492    132749.53   -44040.722     2781.784   -46822.506   0.10065914 
   65000    225.53712   -1011.3724    132759.35   -44020.758    2753.0001   -46773.758   0.10809877 
   65100    222.93654   -1025.7406    132746.47    -44061.23    2721.2564   -46782.486   0.10788757 
   65200    219.84308   -1019.8491    132744.93    -44080.96    2683.4964   -46764.456   0.10540453 
   65300    223.90045   -978.09724     132750.5   -44010.232    2733.0223   -46743.254   0.10661503 
   65400    226.30661   -978.06535    132737.35   -44050.811    2762.3928   -46813.204   0.10287839 
   65500     227.2655    -982.7709    132753.41   -43999.986    2774.0975   -46774.083   0.10904798 
   65600    224.72241   -972.50703    132757.46   -43996.899    2743.0555   -46739.954   0.10399977 
   65700    224.21739   -974.02537    132764.74   -43997.712    2736.8909   -46734.603   0.10745996 
   65800    222.35602   -997.82653    132745.87   -44032.539    2714.1703   -46746.709   0.10802344 
   65900    221.90627   -1019.6638    132744.85   -44046.024    2708.6805   -46754.704   0.10553532 
   66000    222.88322   -1001.8088    132752.44   -44044.758    2720.6055   -46765.364    0.1127364 
   66100    223.68184    -1005.728    132746.94    -44066.91    2730.3538   -46797.264   0.10153536 
   66200    219.72879   -1012.1612    132732.14   -44120.614    2682.1013   -46802.715   0.10659289 
   66300    218.25094   -1020.7946    132729.95   -44113.863     2664.062   -46777.925   0.10771132 
   66400    222.87498   -1025.8883    132731.87    -44098.97     2720.505   -46819.475   0.10327046 
   66500    220.87789   -1017.0796    132740.14   -44077.447    2696.1277   -46773.575   0.11127216 
   66600     222.2896   -985.87341    132741.98   -44110.106    2713.3595   -46823.466  0.099736133 
   66700     221.6005   -999.71601    132736.85   -44103.107    2704.9481   -46808.056   0.10269059 
   66800    219.77873   -1006.7961    132738.68   -44135.615    2682.7108   -46818.326   0.10436317 
   66900    218.63754   -1002.8496    132743.04   -44118.022     2668.781   -46786.803   0.10189702 
   67000     219.7893   -995.67258    132714.53   -44199.615    2682.8399   -46882.455   0.10482771 
   67100    227.52919   -966.89074    132733.41   -44065.215    2777.3162   -46842.531   0.10105234 
   67200     222.1797   -1010.2147    132723.31   -44107.148    2712.0182   -46819.167   0.10416792 
   67300    220.63326   -1000.5452    132734.13   -44105.481    2693.1416   -46798.623   0.10342057 
   67400    224.39255   -1002.8939    132742.45   -44077.352    2739.0291   -46816.381   0.10560147 
   67500    220.98484   -1008.0863     132730.2   -44063.356    2697.4331   -46760.789   0.10975332 
   67600    224.42974     -984.388    132751.71   -43975.595     2739.483   -46715.078    0.1088398 
   67700    224.54629   -987.12565     132749.4   -44012.048    2740.9057   -46752.953   0.10584086 
   67800    226.10633   -996.65419    132741.94   -44045.001    2759.9482    -46804.95   0.10478195 
   67900    220.71055   -1014.6756     132720.2   -44058.754    2694.0851   -46752.839   0.10831286 
   68000    224.12266   -1006.7107    132708.42   -44096.781    2735.7347   -46832.515   0.10744628 
   68100    222.73075   -991.44845    132710.02   -44098.085    2718.7444   -46816.829   0.10647782 
   68200    223.48271   -988.40728       132708   -44104.131    2727.9232   -46832.054    0.1048267 
   68300    219.01613   -996.10948     132726.5   -44045.595    2673.4023   -46718.997   0.10896025 
   68400    225.81324   -990.65703    132727.29   -43987.518    2756.3706   -46743.888   0.10949196 
   68500    224.81862   -986.58909    132743.28   -44018.475    2744.2298   -46762.705   0.10991716 
   68600    222.46651   -1010.5252     132732.9   -44037.281     2715.519     -46752.8   0.10980084 
   68700    222.75305   -990.27429     132725.5    -44067.14    2719.0166   -46786.156   0.10587013 
   68800    219.44529   -1010.2806    132730.09   -44059.418    2678.6407   -46738.059   0.11002157 
   68900    227.35833   -994.06657    132719.32   -44054.124    2775.2307   -46829.355   0.10527146 
   69000    225.73319   -990.06103    132716.13   -44046.608    2755.3935   -46802.001   0.10773746 
   69100    217.51232   -1017.1734    132691.38   -44134.174    2655.0462    -46789.22   0.10814335 
   69200    217.94505   -1002.4914    132696.13   -44111.584    2660.3282   -46771.913   0.10392918 
   69300    220.29658   -1008.9685    132686.99   -44124.277    2689.0319   -46813.309   0.11038687 
   69400    219.17002    -1000.027    132684.81   -44167.626    2675.2807   -46842.906    0.1028487 
   69500    221.19921   -983.97309       132692   -44117.075    2700.0499   -46817.125   0.10632304 
   69600    224.64791   -1012.1341     132736.6   -43972.645    2742.1461   -46714.791   0.11173803 
   69700    226.17743     -1022.97    132741.47   -44037.119     2760.816   -46797.935   0.10489267 
   69800    219.98189   -1025.0168    132727.17   -44077.004    2685.1907   -46762.195   0.11198344 
   69900    220.03185   -1003.9398    132719.74   -44127.836    2685.8005   -46813.637   0.10480645 
   70000    224.99328   -978.82031    132720.31   -44066.433    2746.3618   -46812.795   0.10643715 
   70100    219.95272   -977.34644    132705.84   -44144.282    2684.8347   -46829.117   0.10341733 
   70200    224.97089   -990.99561    132719.62   -44054.797    2746.0886   -46800.886   0.10394935 
   70300    221.11531   -1010.1897    132714.38   -44085.975    2699.0257       -46785   0.10986102 
   70400     229.6279   -967.78628    132722.23   -43988.087     2802.934   -46791.021   0.10507447 
   70500     223.2687   -1004.3672    132719.19   -44069.314    2725.3109   -46794.625   0.10921975 
   70600    223.76785   -1008.9095    132705.38   -44068.867    2731.4038   -46800.271   0.10707334 
   70700    220.35968   -1008.8668     132700.8   -44072.125    2689.8022   -46761.927   0.10751389 
   70800    220.41714   -992.59095    132714.01   -44090.882    2690.5035   -46781.385   0.10830309 
   70900    221.33715   -1014.8036    132713.89   -44116.491    2701.7335   -46818.225    0.1040465 
   71000    220.73561   -1021.8334    132706.88    -44088.89     2694.391   -46783.281   0.11302696 
   71100     219.7115   -1015.4801    132704.18   -44134.332    2681.8903   -46816.222   0.10563546 
   71200     225.9229     -1004.93    132699.88   -44078.964    2757.7091   -46836.673   0.10732085 
   71300    217.20966   -1010.7492    132682.11   -44155.911    2651.3517   -46807.263   0.10957059 
   71400    219.70452   -1008.9504    132678.76   -44106.311     2681.805   -46788.116   0.10564103 
   71500    223.29247   -972.23085     132693.7   -44073.353    2725.6011   -46798.954   0.10997141 
   71600    224.10587   -1012.4423    132708.15   -44064.559    2735.5297   -46800.088   0.10586637 
   71700    220.93231   -998.17856    132709.75    -44088.81    2696.7919   -46785.602   0.10838356 
   71800     219.2908   -1012.9951    132690.39   -44160.247    2676.7549   -46837.002   0.10817677 
   71900    221.88002   -980.55756    132678.06    -44166.69    2708.3601    -46875.05   0.10310734 
   72000     220.5371   -981.34347    132691.16   -44153.856    2691.9678   -46845.824   0.10585754 
   72100    224.39574   -997.08786    132717.43   -44055.931     2739.068   -46794.999   0.10805128 
   72200    227.51753   -1018.1547    132726.48   -43960.414    2777.1739   -46737.588   0.11314363 
   72300    224.92334   -1006.3253    132752.05   -43910.997    2745.5081   -46656.505   0.11616098 
   72400    224.89736   -1011.3293    132731.98   -44033.155     2745.191   -46778.346   0.10928878 
   72500    222.26782    -993.1125    132712.76   -44037.305    2713.0937   -46750.399   0.10852252 
   72600    225.09199   -982.27771    132731.79   -43984.179    2747.5667   -46731.745   0.10924112 
   72700    223.33033   -1024.6037    132716.77   -44069.753    2726.0632   -46795.816   0.10936186 
   72800    218.51498   -1015.3984    132699.09   -44050.892     2667.285   -46718.177   0.11184593 
   72900     225.0368   -991.75049    132712.93   -44043.879    2746.8931   -46790.772   0.10937932 
   73000    221.92778    -1004.777    132699.16   -44073.832    2708.9431   -46782.775   0.10719633 
   73100    224.70353   -999.22603    132702.63   -44057.223     2742.825   -46800.048   0.10845026 
   73200    221.83186   -1013.9909     132727.1   -43991.899    2707.7722   -46699.671     0.109605 
   73300    228.02945   -961.17704    132740.08   -43953.223    2783.4226   -46736.646   0.11098128 
   73400    227.62735   -978.93187    132744.15   -43962.769    2778.5144   -46741.284   0.10883999 
   73500    229.31368   -988.31505    132753.28   -43950.569    2799.0985   -46749.668   0.11068306 
   73600    228.26436   -999.93017    132738.01   -43979.386      2786.29   -46765.676    0.1100543 
   73700    221.55515   -974.82532    132711.72   -44061.587    2704.3946   -46765.982   0.10772692 
   73800    219.79389   -992.02189    132690.15   -44124.023     2682.896   -46806.919   0.10946137 
   73900    219.37509    -983.8918    132695.01   -44092.326    2677.7838    -46770.11    0.1069502 
   74000    224.04456    -988.5564    132690.91    -44082.46    2734.7813   -46817.241   0.10739248 
   74100    223.62824   -1009.5784    132722.86   -43963.197    2729.6995   -46692.897   0.11506128 
   74200    222.25529   -1027.5393    132717.24   -44040.196    2712.9407   -46753.136   0.10777226 
   74300    219.68634   -992.34518    132690.95   -44081.494    2681.5832   -46763.077   0.11336479 
   74400    218.34891   -995.82371    132686.74   -44059.463    2665.2579   -46724.721   0.10642161 
   74500    220.10683   -1002.1083    132691.42   -44110.501    2686.7158   -46797.217   0.10989244 
   74600    218.49531   -1030.4027    132699.18   -44071.819    2667.0449   -46738.863   0.11090329 
   74700    224.30633   -1003.4945    132708.67   -44031.303    2737.9766   -46769.279   0.10860584 
   74800    219.96658   -1022.2856    132693.04   -44075.222    2685.0038   -46760.226   0.11407224 
   74900    224.11091   -984.61407    132699.61   -44049.245    2735.5913   -46784.836   0.10798788 
   75000    225.25158   -1003.0873    132701.98   -44090.615    2749.5147    -46840.13   0.10753969 
   75100    224.89352   -981.79803    132700.75   -44014.395    2745.1441   -46759.539   0.10947904 
   75200    222.71065    -1001.334    132710.16   -44025.585    2718.4991   -46744.084   0.11067594 
   75300    224.23762   -1003.6958    132698.12   -44076.422     2737.138    -46813.56   0.11072432 
   75400    221.27041   -1026.3803    132683.56   -44092.859    2700.9189   -46793.778   0.11012001 
   75500    223.79599   -1019.8266     132679.3       -44107    2731.7472   -46838.748   0.11028219 
   75600    222.56425   -1012.0573    132697.76    -44047.48    2716.7121   -46764.192   0.10489957 
   75700      225.055   -1025.8281    132709.22   -43989.708    2747.1152   -46736.823   0.11357903 
   75800    224.00146   -1023.8952     132724.8   -43983.648    2734.2552   -46717.903   0.11519371 
   75900    227.02517   -1000.3408    132713.29   -44028.848     2771.164   -46800.012   0.10799139 
   76000    224.74003   -1003.1623    132722.16   -44021.159    2743.2706   -46764.429   0.11171637 
   76100     221.7257   -971.15825    132723.53   -44089.289    2706.4764   -46795.765   0.10379232 
   76200     218.6118   -1001.9324    132709.69   -44130.977    2668.4668   -46799.444   0.10562006 
   76300    221.58899   -977.23161     132711.6     -44095.5    2704.8076   -46800.308   0.10711062 
   76400    224.73729   -988.50512    132716.95   -44108.877    2743.2371   -46852.114   0.10413059 
   76500    224.57282   -991.48259    132716.53   -44068.074    2741.2295   -46809.303   0.10736931 
   76600    222.47012   -999.05324    132725.82   -44059.525    2715.5631   -46775.088   0.10592448 
   76700    225.79056   -986.03028    132741.22   -44036.099    2756.0937   -46792.193   0.10405096 
[...]
   81900    220.71877   -980.65961    132722.66   -44113.376    2694.1853   -46807.561   0.10569203 
   82000      222.387   -983.32609    132741.96   -44062.953    2714.5485   -46777.501   0.10544309 
   82100    228.18769   -995.10617    132757.79   -44026.009    2785.3542   -46811.363   0.10942798 
   82200    228.09761   -994.04044    132748.43   -43993.225    2784.2545   -46777.479   0.10803388 
   82300    222.36615   -1002.1203    132735.25   -44070.856     2714.294    -46785.15   0.10769626 
   82400    221.41758   -1009.4933    132723.13   -44006.996    2702.7154   -46709.711   0.11359624 
   82500     224.0112   -1006.2422    132748.32   -43924.097    2734.3741   -46658.471   0.11377933 
   82600    225.66141   -978.83027    132755.36   -43968.032    2754.5173    -46722.55   0.11264064 
   82700    223.16134   -1011.8078    132731.24   -44062.396    2724.0004   -46786.396   0.10659951 
   82800    222.86659   -1001.6156    132724.32   -44058.865    2720.4025   -46779.267   0.11075174 
   82900    226.34574   -975.28246    132728.59   -44027.988    2762.8706   -46790.859    0.1038038 
   83000    225.70703   -984.44069     132743.7   -44000.252    2755.0741   -46755.326   0.10942897 
   83100    223.82941   -1013.8329    132757.07   -43985.841    2732.1552   -46717.996   0.11154533 
   83200    222.24111   -1014.8381    132745.88   -44030.744    2712.7677   -46743.511   0.10784668 
   83300    228.33565   -1000.6001    132746.02    -44049.99    2787.1602    -46837.15   0.10708702 
   83400    223.87622   -1004.5112    132754.83   -44057.608    2732.7266   -46790.335   0.10414285 
   83500    222.56254   -1019.4949    132717.81   -44152.567    2716.6912   -46869.259   0.10617017 
   83600    219.07997   -1001.0324     132715.5   -44126.903    2674.1815   -46801.084   0.10753334 
   83700    219.31173   -1025.2722    132713.69   -44128.829    2677.0104   -46805.839   0.10505603 
   83800     221.9439   -1013.6611    132723.08   -44116.281    2709.1398   -46825.421   0.10814676 
   83900    225.33956   -985.60888    132719.97   -44093.118    2750.5887   -46843.707   0.10278308 
   84000    219.59482   -998.26748    132709.83   -44097.187     2680.466   -46777.653   0.10753271 
   84100    223.42568   -980.76603    132716.72   -44066.882    2727.2271   -46794.109   0.10470215 
   84200    223.61342   -999.87695    132730.51   -44051.066    2729.5187   -46780.585   0.10746781 
   84300    219.21215   -1011.6873    132718.24   -44095.985    2675.7949    -46771.78   0.10924631 
   84400    223.14695   -972.41979    132723.39   -44090.112    2723.8248   -46813.937   0.10507766 
   84500    220.28963   -1012.0224    132726.62   -44099.595    2688.9471   -46788.542   0.10863549 
   84600    223.51846   -998.86146    132744.26   -44047.179    2728.3596   -46775.539   0.10671591 
   84700     222.6598   -1036.4562    132735.99   -44064.571    2717.8784    -46782.45   0.10976611 
   84800    224.08598   -1009.4838    132733.62   -44058.848    2735.2869   -46794.135   0.10803444 
   84900    225.36555   -989.53971     132745.2   -44000.418    2750.9059   -46751.324   0.10941125 
   85000    223.79485    -1022.238    132744.13   -44059.261    2731.7333   -46790.994   0.10801822 
   85100    220.00149    -995.4663    132729.19   -44082.747      2685.43   -46768.176   0.10670671 
   85200    224.07602   -983.42027    132728.17   -44064.591    2735.1654   -46799.756   0.10529373 
   85300    224.72937   -999.51729    132728.78   -44067.909    2743.1404    -46811.05   0.10471124 
   85400    221.18233   -989.55799    132721.84   -44110.547    2699.8438   -46810.391    0.1032642 
   85500    220.45093   -995.03072    132737.96   -44077.948    2690.9161   -46768.864   0.10682198 
   85600    220.28249   -1010.0231    132739.45   -44100.416    2688.8599   -46789.276   0.10514827 
   85700    221.94179   -1005.5904    132739.01    -44094.53    2709.1141   -46803.644   0.10473257 
   85800    220.53454    -989.1733    132740.68   -44065.096    2691.9366   -46757.032    0.1058058 
   85900    225.44199   -1008.6723    132753.95   -44031.213     2751.839   -46783.052   0.10878547 
   86000    223.84742   -1004.7322    132736.59   -44073.904     2732.375   -46806.279   0.10537933 
   86100    225.68469   -961.49549    132746.56   -44047.162    2754.8014   -46801.963   0.10759217 
   86200    223.64734   -1007.8802    132751.73   -44054.768    2729.9327   -46784.701    0.1051482 
   86300    224.82496    -1013.107    132743.16   -44076.957    2744.3072   -46821.265   0.10789943 
   86400    219.90578   -973.97899     132746.9   -44104.209    2684.2617    -46788.47   0.10478514 
   86500    221.82078   -1018.4154    132727.82   -44136.067     2707.637   -46843.704   0.10451764 
   86600    224.76774   -989.80779    132746.11   -44040.548    2743.6088   -46784.156   0.10842642 
   86700    223.51142   -989.69599    132761.74    -44053.19    2728.2737   -46781.464    0.1049899 
   86800    218.48468   -1006.4725     132739.6    -44100.23    2666.9152   -46767.145   0.10933831 
   86900    223.19745   -993.41931     132735.2   -44067.008    2724.4412   -46791.449   0.10831994 
   87000    221.17189    -986.8398     132746.3   -44042.862    2699.7164   -46742.578   0.10568181 
   87100    224.15518   -1009.0931    132742.33   -44070.096    2736.1316   -46806.228   0.10989307 
   87200    218.91005   -1017.5827    132751.12   -44040.416    2672.1073   -46712.523   0.10712243 
   87300    226.02322   -1009.1012    132765.18   -44023.446    2758.9338   -46782.379   0.11129287 
   87400    222.26028   -994.45058    132741.16   -44057.706    2713.0017   -46770.707   0.10707818 
   87500     222.0168    -1015.161    132738.93   -44029.275    2710.0296   -46739.305   0.11271937 
   87600    222.49359   -1011.9613    132752.38   -44053.038    2715.8495   -46768.888   0.10780497 
   87700    230.55245      -969.94    132766.93   -44045.778    2814.2194   -46859.998   0.10236204 
   87800    224.36021   -997.91432    132739.73   -44071.799    2738.6344   -46810.434   0.10715285 
   87900     222.0967   -1006.0202    132728.85   -44113.593     2711.005   -46824.598    0.1056223 
   88000    223.72555   -1009.3307    132734.95   -44079.495    2730.8874   -46810.383   0.10721293 
   88100    227.82258   -989.45691    132731.93   -44055.072    2780.8975   -46835.969   0.10744175 
   88200    219.35305   -1003.2351    132729.37   -44121.992    2677.5148   -46799.507   0.10273391 
   88300    221.13654   -993.55415    132723.48   -44101.935    2699.2849    -46801.22   0.10920065 
   88400    224.86182   -1015.7894    132733.12   -44053.495    2744.7572   -46798.253   0.10657817 
   88500     220.0791   -1025.1315    132732.34   -44090.815    2686.3772   -46777.192   0.11082466 
   88600    224.16039   -999.51205    132742.39   -44073.075    2736.1953   -46809.271   0.10445574 
   88700    224.50216   -974.44541    132741.55   -44057.416     2740.367   -46797.783   0.10574582 
   88800    217.62108   -1025.9893    132732.21   -44084.868    2656.3737   -46741.242   0.11081818 
   88900    219.46575   -1007.5343    132725.59   -44090.057    2678.8905   -46768.948   0.10733266 
   89000    223.55249   -967.21039     132733.3    -44043.65     2728.775   -46772.425   0.10456796 
   89100    225.23765    -993.0429    132736.11   -44082.902    2749.3447   -46832.247    0.1046966 
   89200    225.06556   -990.46253    132735.44   -44041.553    2747.2441   -46788.797   0.10523723 
   89300    220.72815   -1007.3045    132724.92   -44129.332    2694.2999   -46823.632   0.10536458 
   89400    227.16133    -1008.174    132741.36    -44041.69     2772.826   -46814.515   0.10720677 
   89500    223.34114   -984.11409    132719.19   -44101.167    2726.1951   -46827.362    0.1062535 
   89600    217.52004   -990.75722       132706   -44171.276    2655.1403   -46826.416   0.10458322 
   89700    222.04302   -999.82993    132715.05   -44093.289    2710.3497   -46803.639   0.10883002 
   89800      222.453   -1010.1971    132730.44    -44054.93    2715.3541   -46770.284   0.10990827 
   89900    221.73545   -998.68615     132734.9   -44040.694    2706.5954   -46747.289   0.11124508 
   90000    220.94902   -1009.4632     132726.7   -44071.025    2696.9959   -46768.021   0.10746173 
   90100    222.91395   -1019.4515    132745.41   -44034.692    2720.9807   -46755.673   0.11199231 
   90200    221.58899   -1008.5679    132733.26   -44075.017    2704.8076   -46779.825   0.10926558 
   90300    222.26751   -1005.5953    132720.01   -44090.303    2713.0899   -46803.393   0.10783863 
   90400    226.14685   -993.14667     132717.6     -44062.4    2760.4428   -46822.843   0.10778423 
   90500    224.82382   -1014.7921    132733.93   -44066.261    2744.2933   -46810.555    0.1052302 
   90600    223.49284    -986.8563    132737.57   -44044.964    2728.0468   -46773.011   0.11045324 
   90700    223.50203   -989.48724    132709.29    -44075.96     2728.159   -46804.119   0.10704414 
   90800    217.52499   -1008.2256    132703.38   -44108.007    2655.2008   -46763.208    0.1088117 
   90900     219.6515   -992.68267    132705.03   -44051.092    2681.1578    -46732.25   0.11163546 
   91000    221.37543   -1021.2749     132706.4   -44123.479    2702.2008   -46825.679   0.10450609 
   91100    220.36703   -1008.7704    132694.86   -44168.435    2689.8919   -46858.327   0.10880822 
   91200    221.17927   -1007.9485     132689.5   -44163.026    2699.8065   -46862.833   0.10411754 
   91300    220.74454   -1015.4202    132709.16   -44124.817    2694.4999   -46819.317    0.1070645 
   91400    219.23392   -988.80081    132722.91   -44077.638    2676.0607   -46753.698   0.10862262 
   91500    226.73164   -1012.8162    132749.53   -43962.946     2767.581   -46730.527   0.10791238 
   91600    226.83458   -986.10341    132748.77   -43994.782    2768.8375    -46763.62   0.11007923 
   91700    221.32024    -988.6436    132725.45   -44070.484    2701.5272   -46772.011   0.10450776 
   91800    228.93957   -995.59739    132731.73   -43988.501    2794.5319   -46783.032   0.11052692 
   91900    224.75384   -973.68504    132732.85   -44029.426    2743.4391   -46772.865   0.10622455 
   92000    227.61925   -977.96935    132732.15   -44040.376    2778.4155   -46818.792   0.10550318 
   92100    220.11279   -1005.1993    132723.72   -44076.124    2686.7885   -46762.913   0.11165744 
   92200    220.05017   -993.72834    132721.79   -44095.955    2686.0242   -46781.979   0.10490393 
   92300    227.12609   -991.99368    132731.85   -44002.238    2772.3958   -46774.634   0.11100312 
   92400    227.15647    -1000.723    132723.66   -44044.925    2772.7666   -46817.692     0.106201 
   92500    221.04512   -1007.3033    132719.96   -44022.879    2698.1689   -46721.048   0.10996145 
   92600    226.24334   -1004.8011    132741.67   -43984.882    2761.6206   -46746.502   0.11263257 
   92700     225.3923    -995.1851     132747.4   -44049.935    2751.2325   -46801.167   0.10406356 
   92800    226.04869   -977.75365    132733.71   -44043.912    2759.2446   -46803.157   0.10904005 
   92900    224.05302   -987.15625    132745.34    -44067.07    2734.8847   -46801.955    0.1045693 
   93000    223.43917   -984.49457    132723.54   -44076.746    2727.3918   -46804.138   0.10497277 
   93100     216.3385   -1009.3415    132719.24   -44067.633    2640.7179   -46708.351   0.11218753 
   93200    226.73373   -994.20224    132739.69   -44060.142    2767.6065   -46827.749   0.10515029 
   93300    221.62997   -981.72426    132718.42   -44102.962    2705.3079    -46808.27   0.10555262 
   93400    215.52149   -998.32615    132708.35   -44140.182    2630.7452   -46770.927   0.10700695 
   93500    222.52061   -976.79964     132718.5   -44111.714    2716.1794   -46827.893   0.10493938 
   93600    222.59743   -1003.9812    132713.83   -44086.726    2717.1171   -46803.843   0.10864517 
   93700    220.82724   -1020.2135    132719.43   -44076.441    2695.5094    -46771.95   0.11054025 
   93800    219.92998   -1004.8553    132726.35   -44113.449     2684.557   -46798.006   0.10617575 
   93900    218.95206   -1002.9471     132721.7   -44135.387    2672.6202   -46808.007   0.10543489 
   94000    218.61645   -1004.9569    132701.24   -44142.283    2668.5236   -46810.807   0.10889499 
   94100    223.40543   -1014.1734    132736.84   -44060.858    2726.9799   -46787.837   0.10819702 
   94200    225.24149   -1006.7344    132731.06   -44023.615    2749.3916   -46773.007   0.11256868 
   94300    225.05675   -1003.5331    132722.81   -44045.631    2747.1365   -46792.767   0.10692257 
   94400    224.83472   -1005.5882    132730.96   -44071.005    2744.4264   -46815.432   0.10714117 
   94500    227.70564   -981.54802    132748.47   -44002.633    2779.4701   -46782.103   0.10732406 
   94600    223.84674   -1005.4494       132742   -44090.766    2732.3667   -46823.132    0.1072281 
   94700    223.81448   -1004.3227    132731.24   -44092.708    2731.9729   -46824.681   0.10747815 
   94800    222.83481   -996.17727     132741.1   -44084.626    2720.0147   -46804.641   0.10580201 
   94900    220.26221   -987.98411    132734.52   -44127.367    2688.6124   -46815.979   0.10540302 
   95000    218.00346   -971.90902    132727.81   -44093.302    2661.0412   -46754.344   0.10446163 
   95100    219.99878   -1014.6749    132740.31   -44087.204    2685.3969     -46772.6   0.11006359 
   95200    222.77062   -960.39353    132741.36   -44065.883    2719.2311   -46785.114   0.10563481 
   95300    224.02557   -984.38133    132753.53   -44083.328    2734.5496   -46817.878   0.10325277 
   95400    223.51623   -1005.0224    132753.93   -44057.891    2728.3323   -46786.223    0.1114495 
   95500    223.90335   -997.22663    132767.99   -44024.158    2733.0577   -46757.215   0.10374403 
   95600    220.18682    -1024.677    132763.44   -44066.001    2687.6922   -46753.693   0.11283996 
   95700     221.5132   -1006.1935    132760.17   -44049.788    2703.8825    -46753.67   0.10751944 
   95800    225.73032   -967.57796    132760.51   -44059.175    2755.3584   -46814.533   0.10359875 
   95900    217.54583   -976.55656    132747.55   -44063.865    2655.4551    -46719.32   0.10982553 
   96000    222.32218   -1035.0424    132774.97   -44041.681    2713.7573   -46755.438   0.10790102 
   96100    224.50048   -976.88014    132774.11   -43973.931    2740.3465   -46714.278   0.11258939 
   96200    224.92639   -1003.1031    132778.98   -44004.316    2745.5454   -46749.862   0.11022168 
   96300    223.84157   -1010.1959    132770.15   -44028.384    2732.3036   -46760.687   0.10776736 
   96400    224.30041   -1017.5417    132760.06   -44057.723    2737.9044   -46795.627   0.11014444 
   96500     222.9236   -998.77078    132756.32   -44038.385    2721.0984   -46759.483   0.10748925 
   96600    222.00476   -1015.7772    132746.88   -44076.239    2709.8827   -46786.122   0.11094815 
   96700    218.26658   -1023.3754    132739.74   -44057.284    2664.2529   -46721.537   0.10783781 
   96800    218.35735   -1008.3253    132744.35   -44074.257    2665.3609   -46739.618   0.11043317 
   96900    217.58021   -1027.2767    132747.37   -44109.948    2655.8749   -46765.823   0.10695307 
   97000    219.31284   -1024.3016    132744.84   -44119.847     2677.024   -46796.871   0.10884899 
   97100    218.10858   -1012.4216    132732.22   -44108.929    2662.3243   -46771.253   0.10986898 
   97200    223.82934   -991.37832    132737.56   -44100.971    2732.1543   -46833.125   0.10355608 
   97300    226.08337     -1010.72    132755.24   -44000.047    2759.6679   -46759.715   0.11167805 
   97400    226.53444   -973.67928    132757.17   -44034.124    2765.1738   -46799.298   0.10622368 
   97500    226.72391   -970.92783    132754.86   -44011.105    2767.4867   -46778.592   0.10856372 
   97600    224.64196   -1010.8173    132768.46   -44006.273    2742.0735   -46748.346   0.11160624 
   97700    225.61125   -1005.1576    132778.31   -43994.446     2753.905   -46748.351    0.1065622 
   97800    224.96846   -1002.2195    132761.44   -44031.193    2746.0589   -46777.252    0.1095216 
   97900    224.87643   -989.40486    132758.55   -44022.919    2744.9356   -46767.854   0.10643233 
   98000    225.30613    -978.1609    132743.18   -44057.802    2750.1806   -46807.983    0.1084829 
   98100      224.477   -1012.5057    132750.48   -44056.097    2740.0599   -46796.157   0.10788399 
   98200    221.62039   -978.09723    132743.25   -44074.575    2705.1909   -46779.766   0.10820003 
   98300     222.1891   -1011.3512    132755.79   -44002.174    2712.1328   -46714.307   0.10937155 
   98400    222.98836   -1000.3749    132748.75   -44035.218    2721.8889   -46757.107   0.11052066 
   98500     225.0411   -994.01722    132737.82   -44044.132    2746.9455   -46791.077   0.10936751 
   98600    221.53737   -1011.5159    132747.08   -44049.605    2704.1775   -46753.783   0.10807027 
   98700    222.97607   -993.91703    132747.58   -44016.256    2721.7389   -46737.995   0.11279411 
   98800    223.45236   -1012.9627    132750.86    -44001.43    2727.5527   -46728.982     0.109098 
   98900    222.26208   -998.35645    132737.41   -44067.163    2713.0237   -46780.187   0.10976486 
   99000    221.42774   -988.79889    132739.89   -44055.183    2702.8394   -46758.022   0.10975504 
   99100    222.26502    -994.3539    132736.09   -44104.627    2713.0595   -46817.686   0.10574188 
   99200    220.35939   -995.44102    132736.01    -44082.79    2689.7987   -46772.589    0.1106795 
   99300    225.14334   -995.76067    132745.21   -44068.753    2748.1935   -46816.946   0.10378445 
   99400    223.15054    -1000.577    132749.13   -44098.506    2723.8686   -46822.375   0.10900371 
   99500    221.40113    -983.6812    132744.92   -44058.213    2702.5145   -46760.727   0.10808367 
   99600    221.37917   -990.59728    132756.83   -44042.661    2702.2465   -46744.908   0.10829495 
   99700    221.82523   -999.66113    132741.79   -44086.225    2707.6913   -46793.916   0.10786251 
   99800    224.94315   -1013.3363    132739.56   -44069.268    2745.7499   -46815.018   0.10941931 
   99900    221.04151   -1011.1532     132738.5   -44097.539    2698.1249   -46795.664   0.11087487 
  100000    221.19771   -994.52826    132748.79   -44069.228    2700.0315   -46769.259   0.10735319 
Loop time of 49.7091 on 6 procs for 100000 steps with 4096 atoms

Performance: 869.056 ns/day, 0.028 hours/ns, 2011.703 timesteps/s
97.6% CPU use with 6 MPI tasks x no OpenMP threads

MPI task timing breakdown:
Section |  min time  |  avg time  |  max time  |%varavg| %total
---------------------------------------------------------------
Pair    | 33         | 33.585     | 34.416     |  10.1 | 67.56
Neigh   | 4.1995     | 4.258      | 4.369      |   3.7 |  8.57
Comm    | 8.039      | 8.9515     | 9.5746     |  21.7 | 18.01
Output  | 0.18918    | 0.19047    | 0.19646    |   0.6 |  0.38
Modify  | 1.976      | 1.9969     | 2.0134     |   0.9 |  4.02
Other   |            | 0.7276     |            |       |  1.46

Nlocal:        682.667 ave         705 max         657 min
Histogram: 1 0 1 0 0 2 0 0 0 2
Nghost:        1374.50 ave        1414 max        1344 min
Histogram: 2 0 1 1 0 0 0 0 0 2
Neighs:        0.00000 ave           0 max           0 min
Histogram: 6 0 0 0 0 0 0 0 0 0
FullNghs:      19340.3 ave       19993 max       18605 min
Histogram: 1 0 1 0 1 1 0 0 0 2

Total # of neighbors = 116042
Ave neighs/atom = 28.330566
Neighbor list builds = 4559
Dangerous builds = 0

undump              1
unfix               2
unfix               3
unfix               4




################################################
#######         Run Simulation         #########
################################################

reset_timestep      0
log                 log.run_${NAME}
log                 log.run_ice_223K_1000atm_ML
