
# Set production fixes - Nose/Hoover
#
fix                 2 all nph iso ${PRES} ${PRES} ${PCOUPL}
fix                 2 all nph iso -1000 ${PRES} ${PCOUPL}
fix                 2 all nph iso -1000 -1000 ${PCOUPL}
fix                 2 all nph iso -1000 -1000 10000.0
fix                 3 all temp/csvr ${TEMP} ${TEMP} ${TCOUPL} 837492
fix                 3 all temp/csvr 223 ${TEMP} ${TCOUPL} 837492
fix                 3 all temp/csvr 223 223 ${TCOUPL} 837492
fix                 3 all temp/csvr 223 223 5000.0 837492

# Define Order parameter
#
compute             2 all orientorder/atom nnn NULL cutoff 3.5
thermo              200
thermo_style        custom step temp press vol etotal ke pe c_1[4]

# Run 1ns simulation
dump		    1 all custom 400 prod.${NAME}.dump id type x y z vx vy vz c_2[*]
dump		    1 all custom 400 prod.ice_223K_1000atm_ML.dump id type x y z vx vy vz c_2[*]
run                 200000
Neighbor list info ...
  update every 1 steps, delay 0 steps, check yes
  max neighbors/atom: 2000, page size: 100000
  master list distance cutoff = 6.0032907
  ghost atom cutoff = 6.0032907
  binsize = 3.0016454, bins = 17 17 17
  2 neighbor lists, perpetual/occasional/extra = 1 1 0
  (1) pair sw, perpetual
      attributes: full, newton on
      pair build: full/bin/atomonly
      stencil: full/bin/3d
      bin: standard
  (2) compute orientorder/atom, occasional, copy from (1)
      attributes: full, newton on
      pair build: copy
      stencil: none
      bin: none
Per MPI rank memory allocation (min/avg/max) = 5.837 | 5.837 | 5.837 Mbytes
Step Temp Press Volume TotEng KinEng PotEng c_1[4] 
       0    221.19771    -994.6834    132748.79   -44069.223    2700.0315   -46769.254   0.10735319 
     200    226.55233   -1012.7771    132748.43    -44062.14    2765.3923   -46827.532   0.10621964 
     400    224.68615   -1000.6636    132748.52   -44057.824    2742.6129   -46800.437   0.11088097 
     600    222.28484   -992.30556    132772.93   -44084.255    2713.3015   -46797.557    0.1096481 
     800    221.10185   -970.53003    132746.95   -44095.247    2698.8614   -46794.109   0.10673506 
    1000    223.97191   -994.08525    132718.36    -44104.97    2733.8946   -46838.864    0.1039322 
    1200    217.51359   -999.29026    132768.69   -44121.218    2655.0616    -46776.28   0.10179851 
    1400     220.4296   -1023.4095    132767.06   -44114.949    2690.6557   -46805.605   0.10642091 
    1600     220.6153   -954.72426     132680.6   -44118.314    2692.9224   -46811.236   0.10556536 
    1800    220.73313   -1007.8221    132735.41   -44122.188    2694.3607   -46816.549   0.11028952 
    2000    221.78589   -1037.6131    132815.02   -44087.374    2707.2111   -46794.585   0.10792288 
    2200    221.12787   -972.64603    132721.56   -44065.737     2699.179   -46764.916   0.10483384 
    2400    224.20653   -916.76505    132693.03   -44079.105    2736.7584   -46815.863   0.10231427 
    2600    220.43518   -1072.0172    132824.59   -44109.948    2690.7238   -46800.672   0.10851829 
    2800    221.35422     -1032.37    132763.46   -44122.879    2701.9419   -46824.821   0.10870514 
    3000    225.53246    -918.8955     132627.9   -44133.641    2752.9433   -46886.584   0.10444177 
    3200    222.25221   -1038.4641    132789.64   -44091.647    2712.9032    -46804.55   0.10823022 
    3400    220.03097   -1081.2735    132852.49   -44118.843    2685.7898   -46804.633   0.10757355 
    3600    220.35168   -883.98233    132604.76   -44142.896    2689.7046   -46832.601   0.10289116 
    3800    216.20501   -962.27657    132691.44   -44088.045    2639.0886   -46727.134   0.10758022 
    4000    220.35102   -1174.9653    132951.13   -44079.502    2689.6965   -46769.198   0.10656666 
    4200    222.30254   -930.29436    132681.51   -44095.888    2713.5175   -46809.406   0.10682546 
    4400    221.56652   -846.19953    132566.98   -44081.417    2704.5334    -46785.95   0.10852428 
    4600    222.13495   -1172.0739    132940.92   -44066.361    2711.4718   -46777.833   0.11395411 
    4800    221.26462   -1031.4309    132812.46   -44063.412    2700.8482   -46764.261   0.10813359 
    5000    224.63277   -786.98765    132516.73   -44062.322    2741.9613   -46804.283   0.10105723 
    5200    222.83612   -1089.6366    132862.42   -44057.118    2720.0306   -46777.148   0.10477038 
    5400    226.33191   -1147.8412    132938.54   -44026.584    2762.7017   -46789.286   0.11309029 
    5600    226.33982   -816.59875    132552.23   -44019.852    2762.7983    -46782.65   0.11138571 
    5800    224.33026   -980.87303    132747.46   -44009.199    2738.2688   -46747.468   0.11018412 
    6000    224.89843   -1199.8414    133035.74   -43993.786    2745.2041    -46738.99   0.10694376 
    6200    224.44276   -883.00485    132640.14   -43994.983    2739.6419   -46734.625    0.1068503 
    6400    226.74567   -815.51996    132594.56   -43972.611    2767.7522   -46740.364   0.10559577 
    6600     226.7318   -1231.0188    133044.67   -43995.086     2767.583   -46762.669   0.11336734 
    6800    222.29745   -1016.3811    132791.66   -44024.296    2713.4554   -46737.751   0.11233577 
    7000     222.6353    -761.1092    132457.46   -44037.626    2717.5794   -46755.205   0.10842171 
    7200    226.26524   -1119.9918    132909.35   -43991.355    2761.8879   -46753.243   0.11056805 
    7400    226.30886   -1145.0206    132979.77   -43977.295    2762.4204   -46739.715   0.11125439 
    7600    225.99322   -766.03176    132511.22   -44012.039    2758.5675   -46770.607   0.10507067 
    7800     221.6184   -967.36287    132733.76   -44029.348    2705.1667   -46734.514   0.10462526 
    8000    224.18208   -1219.4994     133048.5   -43995.277      2736.46   -46731.737   0.10761485 
    8200    220.86757   -879.24728    132608.13   -44028.889    2696.0017    -46724.89    0.1120318 
    8400    225.86716    -823.9666    132549.71   -44052.784    2757.0288   -46809.813   0.11097028 
    8600    223.66817   -1236.0823    133033.22   -44011.988     2730.187   -46742.175   0.11449997 
    8800    224.71812   -994.33467    132806.78   -43970.196    2743.0031   -46713.199   0.10698216 
    9000     226.9149    -775.9351    132521.45   -43959.332    2769.8179    -46729.15   0.10762828 
    9200    227.54224   -1117.2633    132961.72   -43942.109    2777.4755   -46719.584   0.11091337 
    9400    223.99581   -1148.4574    132966.41   -43977.743    2734.1863   -46711.929   0.11358713 
    9600    224.66185   -757.77298    132517.35    -43975.89    2742.3163   -46718.206    0.1114697 
    9800    226.03767   -1007.4603    132809.19   -43985.036      2759.11   -46744.146   0.10602173 
   10000    225.38198   -1214.0429    133057.52   -43976.746    2751.1064   -46727.852   0.10728484 
   10200    228.83812   -813.28103    132589.68   -43982.973    2793.2936   -46776.266   0.10581156 
   10400    227.74146   -880.97471    132637.92   -43972.611    2779.9073   -46752.518   0.11016186 
   10600    225.38079   -1247.4118    133075.86   -43952.019     2751.092   -46703.111   0.11579357 
   10800      226.454   -955.89983    132722.61   -43980.209     2764.192   -46744.401   0.10879763 
   11000    226.58897   -785.97105    132495.07   -44013.435    2765.8395   -46779.275    0.1099861 
   11200    225.14577   -1187.5931    132980.26    -44017.88    2748.2232   -46766.103   0.11231172 
   11400    223.50326   -1095.7045    132872.89   -44037.342     2728.174   -46765.516   0.10819939 
   11600    225.00747   -735.10041    132456.28   -44021.922     2746.535   -46768.457   0.10648654 
   11800    221.47829   -1066.1417    132814.05   -44069.832    2703.4564   -46773.289   0.10858976 
   12000    219.38424    -1179.739    132945.93   -44066.203    2677.8956   -46744.099    0.1114522 
   12200    223.94093   -809.07126    132503.09   -44056.827    2733.5165   -46790.343   0.11075753 
   12400    221.45347   -936.53916    132674.68   -44031.222    2703.1534   -46734.375    0.1107739 
   12600    224.65754   -1227.5168    133010.17   -44033.365    2742.2636   -46775.628   0.10926596 
   12800    221.53966   -916.23147    132641.01    -44046.14    2704.2055   -46750.345   0.10539263 
   13000    226.27254   -819.95054    132545.96    -44033.56    2761.9771   -46795.537   0.10717735 
   13200    224.07287   -1198.9424    132971.13   -44006.037     2735.127   -46741.164   0.11420135 
   13400    225.10791   -1050.2583    132793.03   -44022.705     2747.761   -46770.466   0.11227785 
   13600     229.5537   -759.31379    132493.77   -44024.389    2802.0282   -46826.418   0.10601668 
   13800    226.01149   -1100.1894    132847.96   -44014.876    2758.7906   -46773.666   0.10684729 
   14000    223.29318   -1132.7064     132911.8   -44023.408    2725.6097   -46749.018   0.10925604 
   14200     221.6781   -832.61488    132538.13   -44043.069    2705.8954   -46748.964   0.10756378 
   14400    225.03817   -970.73909    132709.93   -44064.253    2746.9098   -46811.163   0.10739932 
   14600     223.3964   -1152.2403    132938.29   -44056.037    2726.8696   -46782.906   0.10913166 
   14800    221.67147   -931.11687    132644.92   -44043.484    2705.8144   -46749.298   0.11085941 
   15000    219.86095   -922.56466    132605.64    -44082.72    2683.7145   -46766.434   0.11058643 
   15200    216.02049   -1134.5063    132872.17   -44120.811    2636.8362   -46757.647   0.10939586 
   15400    220.13821   -1020.0939    132723.49   -44127.601    2687.0988     -46814.7   0.10607233 
   15600    220.24867   -861.48596    132518.49   -44162.762    2688.4471   -46851.209   0.10183503 
   15800    218.88265   -1028.4863    132762.91   -44116.691    2671.7729   -46788.464   0.10546767 
   16000    219.65498   -1084.0401    132834.85   -44105.546    2681.2003   -46786.746   0.10789588 
   16200     222.7989   -862.79243     132564.8   -44072.404    2719.5763    -46791.98   0.10638324 
   16400    216.90848   -983.99594    132697.54    -44068.07    2647.6754   -46715.746   0.10810032 
   16600    217.37785   -1165.8898    132882.22   -44078.328    2653.4047   -46731.732   0.10812061 
   16800    224.83419   -894.83826    132623.47   -44049.827    2744.4199   -46794.247   0.10466699 
   17000     222.4199   -918.48957    132627.74   -44067.601    2714.9501   -46782.551   0.10673609 
   17200    222.77874   -1128.0682    132878.96    -44051.33    2719.3303   -46770.661   0.11043673 
   17400    223.16973   -978.29194    132707.57   -44087.445    2724.1028   -46811.548   0.10782616 
   17600    219.63861   -879.97565    132546.18   -44116.944    2681.0005   -46797.945   0.10444114 
   17800     220.2079    -1098.243    132813.67   -44126.863    2687.9495   -46814.813   0.10508424 
   18000    221.23959   -1062.0128    132799.65    -44149.14    2700.5427   -46849.683   0.10381009 
   18200    216.20836   -853.67911    132544.92    -44175.31    2639.1295   -46814.439   0.10227487 
   18400    221.05156    -989.9234    132691.03   -44185.457    2698.2475   -46883.705   0.10310326 
   18600     216.1057   -1119.9909    132844.56   -44152.732    2637.8764   -46790.609    0.1070399 
   18800    219.13797   -938.97358    132639.51    -44111.53    2674.8895    -46786.42   0.10687483 
   19000    221.34088   -931.14362    132632.47   -44124.572    2701.7791   -46826.351   0.10409599 
   19200    220.98161   -1064.6598    132814.52   -44105.807    2697.3937     -46803.2   0.10232037 
   19400      221.367   -971.80989    132699.46   -44105.718    2702.0979   -46807.816   0.10433067 
   19600    218.91131   -923.66138    132610.25   -44123.179    2672.1228   -46795.302     0.105545 
   19800    218.65997   -1060.9759    132790.01    -44115.82    2669.0548   -46784.875   0.10789821 
   20000     220.4016   -1022.0928    132775.11   -44113.956    2690.3139    -46804.27   0.10304234 
   20200    217.57734   -895.84028    132595.17   -44136.843    2655.8397   -46792.683   0.10465551 
   20400    220.27099   -1005.7689     132730.5    -44117.77    2688.7196    -46806.49   0.10346461 
   20600    224.09108   -1081.2608    132844.37   -44118.161    2735.3492    -46853.51   0.10130688 
   20800    220.72632   -910.14939    132616.92   -44110.919    2694.2775   -46805.197   0.10493989 
   21000    220.69746   -949.70042    132671.39   -44112.518    2693.9253   -46806.443   0.10646054 
   21200     218.9919   -1180.6665    132894.22    -44100.26    2673.1065   -46773.366   0.11126704 
   21400    222.23433     -956.818    132668.46   -44101.182    2712.6849   -46813.867   0.10292746 
   21600    222.94861   -884.49841    132573.12   -44069.771    2721.4037   -46791.174   0.10315017 
   21800    222.87939   -1134.4293    132923.73   -44031.252    2720.5589   -46751.811   0.10389081 
   22000    225.68612   -1043.0067    132820.25   -44039.587    2754.8189   -46794.406    0.1020631 
   22200    224.34432   -792.14544    132496.32   -44011.966    2738.4404   -46750.406   0.10681875 
   22400    226.74045    -1090.818    132863.84   -43992.189    2767.6885   -46759.878   0.11115332 
   22600    221.68497    -1230.323    133002.12    -43992.71    2705.9792   -46698.689   0.11211357 
   22800    222.13838   -759.72984    132476.23   -44035.615    2711.5138   -46747.129   0.10379151 
   23000    225.77865   -895.83127    132683.03   -44043.743    2755.9484   -46799.691    0.0999696 
   23200    230.11737   -1293.9357    133130.44   -44025.421    2808.9086    -46834.33   0.10841527 
   23400    223.92371   -860.43126    132585.87   -44042.822    2733.3063   -46776.128   0.10683512 
   23600    226.06874   -735.66458    132432.05   -44053.542    2759.4893   -46813.032   0.10432838 
   23800     222.1294   -1306.4332    133128.89    -44003.14    2711.4041   -46714.544   0.10822657 
   24000    225.81819   -1075.4011    132848.14   -44030.274     2756.431   -46786.705    0.1046805 
   24200    223.10303   -607.21607    132318.89   -44028.761    2723.2887    -46752.05   0.10271999 
   24400    221.68975   -1177.2724    132968.61   -44023.635    2706.0375   -46729.673   0.10713159 
   24600     228.3433   -1245.0591    133058.54   -44023.714    2787.2536   -46810.967   0.10718412 
   24800     229.9121   -676.32521    132369.34   -43977.302     2806.403   -46783.705   0.10631313 
   25000    221.52819   -1011.0054    132757.76   -43981.328    2704.0654   -46685.394   0.11157941 
   25200    226.85251   -1325.7897    133164.88   -43994.351    2769.0563   -46763.407   0.11420396 
   25400    221.30648   -792.06059    132512.79   -44044.124    2701.3592   -46745.483   0.10406909 
   25600    222.43049   -839.33838    132512.58   -44062.787    2715.0793   -46777.866   0.10336668 
   25800    225.58638   -1288.3415    133080.22   -44033.171    2753.6014   -46786.773   0.10622337 
   26000    227.28914   -983.05666    132736.14   -44026.227    2774.3861   -46800.613   0.10809182 
   26200     221.0555   -756.94199    132424.46   -44052.483    2698.2957   -46750.778   0.11048969 
   26400    221.71752   -1142.4841    132886.91   -44063.703    2706.3765   -46770.079   0.10749893 
   26600    217.89389   -1132.1089    132871.73   -44068.212    2659.7037   -46727.915   0.10555603 
   26800    219.86328   -791.11817    132485.41   -44076.773    2683.7429   -46760.516   0.10258142 
   27000    221.29684   -1005.2121    132750.95   -44075.432    2701.2416   -46776.673   0.10548306 
   27200    219.53657   -1170.0127    132939.32   -44068.357     2679.755   -46748.112   0.11122837 
   27400    222.64436   -900.54601     132576.5   -44051.357      2717.69   -46769.047   0.11006304 
   27600    221.57945   -929.85211    132633.95   -44057.983    2704.6912   -46762.674   0.10904973 
   27800     225.8775   -1175.4979    132940.17   -44042.088     2757.155   -46799.244   0.10693847 
   28000    225.21585   -985.67449    132710.29   -44040.786    2749.0786   -46789.864   0.10776494 
   28200     222.4736   -868.64398    132563.54   -44052.375    2715.6055    -46767.98   0.10805064 
   28400    221.58923     -1119.92    132888.43   -44047.634    2704.8106   -46752.445   0.10907501 
   28600    222.88386   -1058.5475    132830.24   -44060.271    2720.6134   -46780.884   0.10541633 
   28800    221.75702   -821.99801    132551.23   -44074.358    2706.8587   -46781.216   0.10514429 
   29000    220.70998   -1023.8328     132779.7   -44102.688    2694.0781   -46796.766   0.10494531 
   29200     219.0766   -1130.5426    132884.87    -44126.66    2674.1404     -46800.8   0.10571389 
   29400    219.92223   -863.13236    132574.41   -44131.355    2684.4624   -46815.817   0.10069437 
   29600     220.6158   -965.85424    132677.06   -44101.984    2692.9284   -46794.912   0.10458352 
   29800    223.20317   -1155.7565     132940.1   -44041.063     2724.511   -46765.574   0.10874186 
   30000    223.19206   -934.09032    132681.04   -44035.565    2724.3754   -46759.941   0.11088059 
   30200    221.49542    -866.7389    132601.95    -44046.01    2703.6654   -46749.675   0.10899807 
   30400    221.88913    -1141.296    132889.82   -44082.158    2708.4713   -46790.629   0.10824758 
   30600    223.10928   -1023.8546    132752.41   -44042.289     2723.365   -46765.654   0.10443942 
   30800    222.32871   -845.76121     132548.8   -44019.056    2713.8369   -46732.893   0.10813062 
   31000    223.43799   -1101.7324    132847.82   -44008.274    2727.3773   -46735.651   0.11488356 
   31200    228.98173   -1074.0829    132868.51   -44009.864    2795.0466   -46804.911   0.10658571 
   31400    224.95335   -862.59744    132558.56   -44011.407    2745.8745   -46757.282   0.10742352 
   31600    224.73616   -989.09279    132732.13   -44053.863    2743.2233   -46797.087   0.10359518 
   31800    223.98605    -1138.415    132930.29   -44026.123    2734.0672    -46760.19   0.10522563 
   32000    225.96872   -914.06883    132637.33   -44011.714    2758.2685   -46769.983   0.10719578 
   32200    222.89333   -901.40964    132633.61   -44033.541     2720.729    -46754.27   0.10754226 
   32400    225.77335   -1184.6179    132943.59   -44030.531    2755.8836   -46786.415   0.10950996 
   32600    226.32313   -995.76321    132737.91    -44025.26    2762.5946   -46787.855   0.10677316 
   32800    222.48742   -836.46965    132540.75   -44021.225    2715.7742       -46737   0.10875818 
   33000    225.35323   -1135.2112    132898.41   -44010.298    2750.7556   -46761.054   0.10945733 
   33200    226.94503   -1100.6828    132891.73   -44009.547    2770.1857   -46779.733   0.10407745 
   33400    223.99096    -799.7397    132548.04   -43984.003     2734.127    -46718.13   0.10340105 
   33600    228.95248   -1025.8032    132811.21   -43931.777    2794.6895   -46726.466   0.10775026 
   33800    229.37518   -1194.4388    133014.49   -43951.183    2799.8492   -46751.032   0.11185928 
   34000    224.26956   -866.52375    132592.35   -43985.892    2737.5279   -46723.419   0.11007463 
   34200    225.71432   -911.91841     132628.6   -44015.856    2755.1632   -46771.019   0.10458224 
   34400    221.92389    -1209.481    132998.05   -44050.904    2708.8956     -46759.8   0.10434126 
   34600    224.36889   -966.22653    132702.23   -44028.165    2738.7403   -46766.906   0.10425887 
   34800    221.41907   -817.14487    132528.18   -44060.878    2702.7335   -46763.611    0.1060289 
   35000    219.19505   -1162.1511    132943.02   -44078.908    2675.5862   -46754.494   0.10861554 
   35200     221.7241   -1075.9779    132852.44   -44075.718    2706.4568   -46782.175   0.10513372 
   35400     224.3126   -768.28806    132481.89   -44058.211    2738.0532   -46796.264   0.10005581 
   35600    223.36794   -1053.2957    132829.96   -44047.551    2726.5223   -46774.073   0.10194081 
   35800     224.2918   -1167.8778    132978.99   -44043.746    2737.7992   -46781.545   0.10739419 
   36000    221.78407   -771.04532    132505.34   -44049.707    2707.1888   -46756.895   0.10356012 
   36200    221.06882   -922.41912    132679.98   -44058.155    2698.4583   -46756.613   0.10177316 
   36400    220.02386   -1288.2919    133075.78   -44070.184     2685.703   -46755.887   0.10624972 
   36600     228.8464   -866.52879    132616.33   -44059.017    2793.3946   -46852.411    0.1008578 
   36800    220.69858   -778.47654    132506.32    -44091.05    2693.9389   -46784.989   0.10021317 
   37000    220.37064   -1292.7094    133085.05   -44073.665    2689.9359   -46763.601   0.10688749 
   37200    223.35808   -1074.5721    132815.38   -44049.632    2726.4019   -46776.034     0.104306 
   37400    227.80578   -654.20613    132336.72   -44049.471    2780.6924   -46830.163   0.10011763 
   37600    223.12557   -1181.6639    132966.32    -44060.54    2723.5638   -46784.104   0.10692402 
   37800    220.15928   -1300.3467    133088.73   -44031.601     2687.356   -46718.957   0.11046392 
   38000    223.96597   -593.53462    132272.52   -44081.755    2733.8221   -46815.577  0.099130155 
   38200    219.33737   -969.45343    132671.01   -44072.346    2677.3235   -46749.669   0.10382593 
   38400     222.5865   -1457.4494     133302.8   -44035.573    2716.9837   -46752.557   0.10402904 
   38600    221.89992   -746.54914    132458.55   -44047.131     2708.603   -46755.734   0.10153501 
   38800    221.94602   -675.90565    132362.27   -44085.352    2709.1657   -46794.517   0.10442714 
   39000    220.82179   -1475.7412    133291.19   -44090.044    2695.4429   -46785.487   0.10746182 
   39200    221.39822   -995.85334    132757.73   -44112.497     2702.479   -46814.976  0.098327166 
   39400    222.71673   -536.21511    132206.55   -44112.476    2718.5733   -46831.049  0.099033237 
   39600    218.42243   -1246.9784    133051.88   -44151.623    2666.1553   -46817.778   0.10091778 
   39800    221.98802   -1240.8936    132998.08   -44143.762    2709.6783   -46853.441   0.10437039 
   40000    216.54004   -644.90388    132280.82   -44165.217     2643.178   -46808.395    0.1026501 
   40200    217.99533   -1014.2958    132736.72    -44144.22    2660.9419   -46805.162   0.10230526 
   40400    221.07334   -1291.6088    133079.69   -44129.694    2698.5135   -46828.207   0.10104887 
   40600    219.39522   -853.33079    132539.83   -44159.708    2678.0296   -46837.738   0.10200752 
   40800     223.6502   -869.50673    132565.44    -44169.47    2729.9676   -46899.438   0.09925081 
   41000    217.22224   -1206.8436    132956.92   -44134.344    2651.5053   -46785.849   0.10394017 
   41200    219.22993   -999.21272    132700.66   -44156.625     2676.012   -46832.637   0.10006302 
   41400    217.56191   -859.08785    132512.89   -44138.418    2655.6514    -46794.07   0.10210138 
   41600    221.59792    -1091.659    132843.21   -44127.996    2704.9167   -46832.913   0.10124314 
   41800    219.43446   -1086.0061    132818.21   -44124.712    2678.5086    -46803.22    0.1040517 
   42000    218.41984    -856.5175     132548.6   -44112.856    2666.1237    -46778.98   0.10149892 
   42200    220.89115    -1013.657    132752.47   -44126.868    2696.2895   -46823.158  0.099855092 
   42400    217.26112   -1136.6813    132860.87   -44160.351    2651.9799   -46812.331    0.1037678 
   42600    216.10833   -908.53554    132575.03   -44186.414    2637.9085   -46824.323    0.1008835 
   42800     218.8778   -938.12498    132632.68   -44184.961    2671.7138   -46856.674  0.099733493 
   43000    217.94905   -1134.5107    132872.36   -44149.751     2660.377   -46810.128    0.1058096 
   43200    218.66589   -990.32823    132669.06    -44157.04     2669.127   -46826.167   0.10145344 
   43400    219.23793   -888.09737    132568.71    -44147.82    2676.1096   -46823.929  0.099852453 
   43600    222.53168   -1100.6579    132851.23   -44143.756    2716.3146   -46860.071   0.10126156 
   43800    220.93367   -1080.6889    132791.08   -44120.199    2696.8085   -46817.008   0.10489705 
   44000    220.07932    -870.0546    132563.73   -44137.948      2686.38   -46824.328    0.1009392 
   44200    216.93861   -1018.4318    132739.16    -44177.23    2648.0432   -46825.273   0.10199197 
   44400    220.13978   -1121.5913    132827.98   -44160.507     2687.118   -46847.625   0.10322082 
   44600    222.19564   -892.20387    132611.07   -44111.151    2712.2126   -46823.364   0.10040786 
   44800    224.38749   -954.00677    132683.94    -44083.17    2738.9673   -46822.137   0.10395662 
   45000    223.24248   -1138.0605    132881.88   -44101.209    2724.9908     -46826.2   0.10560929 
   45200     219.5017   -959.68414    132679.24   -44117.296    2679.3294   -46796.625   0.10325292 
   45400    216.24376   -909.19848    132579.68   -44156.918    2639.5615   -46796.479   0.10436721 
   45600    218.06543   -1110.6591    132843.95   -44142.229    2661.7976   -46804.027   0.10355724 
   45800    218.57539    -1041.845    132798.22   -44120.835    2668.0224   -46788.858   0.10413779 
   46000    222.43261   -836.98636    132543.53   -44122.147    2715.1052   -46837.252   0.10170179 
   46200    219.29599   -1025.4907    132755.22   -44138.468    2676.8184   -46815.286   0.10163292 
   46400     219.1818   -1149.6557    132888.01   -44125.844    2675.4245   -46801.269   0.10503159 
   46600     217.0815   -862.33071    132556.98   -44133.795    2649.7874   -46783.583   0.10287777 
   46800    221.67323   -939.29573    132648.63   -44105.107    2705.8359   -46810.943   0.10271392 
   47000    219.13164   -1248.1943    133000.02   -44085.279    2674.8122   -46760.092   0.10804088 
   47200    222.65446   -925.97134    132663.23   -44070.419    2717.8132   -46788.232   0.10153718 
   47400    226.27775   -763.72782    132494.97    -44020.14    2762.0406    -46782.18   0.10208291 
   47600    229.82205    -1227.273    133060.07   -43993.024    2805.3038   -46798.328   0.10227878 
   47800    224.44395   -1135.9931    132900.08    -43972.96    2739.6565   -46712.616   0.11255347 
   48000    225.87135   -666.61419     132384.3   -43984.926    2757.0799   -46742.005   0.10677042 
   48200    226.02142   -1103.6221    132913.47   -43979.589    2758.9117   -46738.501   0.10582299 
   48400    224.45215   -1287.6209    133114.07   -43961.997    2739.7566   -46701.754   0.11029356 
   48600    228.05508   -697.30594    132389.19   -44017.058    2783.7355   -46800.794   0.10308141 
   48800    228.66286   -875.51759    132638.82   -43974.173    2791.1543   -46765.327   0.10420994 
   49000    224.28912    -1371.698    133253.15   -43944.288    2737.7666   -46682.054   0.11241084 
   49200    231.50522   -845.75856    132609.88   -43983.949    2825.8493   -46809.799   0.10141903 
   49400    227.25582    -698.7227    132423.79   -43995.931    2773.9793   -46769.911    0.1023169 
   49600    227.30538   -1344.4564    133191.76   -44001.469    2774.5842   -46776.053   0.10543483 
   49800    223.32803   -1117.0804    132892.42   -43989.846    2726.0351   -46715.881   0.10829993 
   50000    222.84327   -600.84405    132357.65   -43995.638     2720.118   -46715.756   0.10452073 
   50200    224.97502   -1152.0921    132963.27   -44016.782    2746.1389   -46762.921   0.10545446 
   50400    223.60613   -1240.3399    133066.71    -44013.78    2729.4296   -46743.209   0.10662521 
   50600    222.42837   -726.24192    132424.52   -44038.467    2715.0535   -46753.521   0.10647956 
   50800    220.05146   -971.79491    132710.01   -44042.224      2686.04   -46728.264   0.10898403 
   51000    222.02775    -1296.444    133108.04   -43996.382    2710.1633   -46706.545   0.11019719 
   51200    220.82699   -850.98227    132599.41   -44022.268    2695.5064   -46717.774   0.10268136 
   51400    226.44093   -794.98281    132564.24   -43995.965    2764.0325   -46759.997   0.10147824 
   51600    226.80122   -1245.2082    133078.33   -43990.669    2768.4304   -46759.099   0.10780296 
   51800    228.16856   -1023.5982    132779.35   -43994.273    2785.1207   -46779.394   0.10843364 
   52000     230.9315   -766.12265    132485.84   -43962.284    2818.8463    -46781.13    0.1074946 
   52200    228.95869   -1120.2392    132969.07   -43932.795    2794.7653    -46727.56    0.1061392 
   52400    227.38705   -1137.7021    132967.36   -43922.898    2775.5812   -46698.479   0.10445718 
   52600    226.53286   -782.78037    132516.23   -43958.677    2765.1546   -46723.831   0.10554959 
   52800    228.70993   -1019.5557    132789.97   -43971.186    2791.7288   -46762.915   0.10964093 
   53000    224.07835    -1216.263       133043    -43971.41    2735.1939   -46706.604    0.1108418 
   53200    225.95932   -851.68712    132612.29    -43985.37    2758.1537   -46743.524     0.105064 
   53400    225.33816   -858.21793       132622   -44001.836    2750.5716   -46752.408   0.10272112 
   53600    220.49167   -1211.1956    132999.25   -44021.256    2691.4133    -46712.67   0.10951703 
   53800    224.38702   -986.99769     132728.5   -44014.664    2738.9615   -46753.626    0.1086486 
   54000    228.14241   -811.08889    132531.91   -44010.123    2784.8015   -46794.924   0.10319163 
   54200    225.73693   -1152.6657    132913.11    -44009.25    2755.4392    -46764.69   0.10739341 
   54400    223.07319   -1085.4945    132854.83   -44028.969    2722.9244   -46751.893   0.10580816 
   54600    223.79119   -803.00421    132520.93   -44029.004    2731.6886   -46760.693   0.10444093 
   54800    228.28584    -1020.138    132798.01   -43984.838    2786.5522    -46771.39   0.10680967 
   55000    224.66978   -1199.1446    132971.34   -43983.107     2742.413    -46725.52   0.11195658 
   55200    224.46071   -827.27849    132578.62   -44012.719    2739.8611    -46752.58   0.10198075 
   55400    221.83889    -938.5166    132639.08    -44028.68    2707.8581   -46736.538   0.10640504 
   55600    224.08462    -1231.796    132974.77   -44048.138    2735.2703   -46783.408    0.1135633 
   55800    224.72836   -933.96531    132660.76   -44032.219    2743.1281   -46775.347   0.10934517 
   56000    226.87519   -836.15988    132534.93   -44022.603    2769.3333   -46791.936   0.10554335 
   56200    224.02086   -1154.8295    132947.87   -44035.365     2734.492   -46769.857   0.10503479 
   56400    219.59805   -1041.1337     132804.7   -44040.245    2680.5055   -46720.751   0.10644755 
   56600    223.58963   -787.57465    132467.99   -44048.718    2729.2283   -46777.946   0.10818766 
   56800    221.76808   -1084.9768    132826.84   -44011.937    2706.9937   -46718.931   0.11259449 
   57000    227.58845   -1165.1618    132953.97   -44006.127    2778.0395   -46784.166   0.10903891 
   57200    227.58847   -816.55508    132498.01   -44040.286    2778.0398   -46818.326   0.10452813 
   57400    226.47256   -954.21197    132661.15   -44054.186    2764.4186   -46818.604    0.1052267 
   57600     225.1128   -1239.7099    133023.53   -44021.673    2747.8207   -46769.494   0.11087299 
   57800    224.37753   -923.44642    132642.17   -44037.369    2738.8457   -46776.215   0.10801365 
   58000    224.29455   -828.30435    132506.09   -44050.307    2737.8329    -46788.14   0.10615858 
   58200    220.26946   -1185.1903    132965.96   -44073.005    2688.7009   -46761.706   0.10465584 
   58400    218.07473   -1039.7285    132782.06   -44070.232    2661.9112   -46732.144   0.10807279 
   58600    219.17234   -811.37724    132457.55   -44060.721     2675.309    -46736.03   0.11179566 
   58800      218.852   -1113.2317    132850.04   -44079.194    2671.3988   -46750.593   0.10816975 
   59000    218.82167   -1138.5954    132898.95   -44095.884    2671.0286   -46766.913   0.10600591 
   59200    220.41779   -768.87013    132461.55   -44102.602    2690.5114   -46793.113   0.10510979 
   59400    221.58191   -976.56284    132719.79   -44058.521    2704.7212   -46763.242   0.10793606 
   59600    222.08752   -1245.5969     133014.2    -44050.98    2710.8929   -46761.873   0.11304158 
   59800    225.78924   -843.37878    132535.49   -44048.517    2756.0776   -46804.595   0.10889319 
   60000    222.55324   -829.74838    132550.27   -44039.657    2716.5777   -46756.235   0.10557508 
   60200    223.90287   -1251.8275    133069.58   -44012.582    2733.0519   -46745.633   0.10847832 
   60400    223.74876   -990.16006    132739.61   -43995.114    2731.1706   -46726.285   0.11111806 
   60600    223.86607    -756.0756    132446.14   -44029.703    2732.6026   -46762.305    0.1091692 
   60800    227.59208   -1174.3276    132985.07   -43978.827    2778.0839   -46756.911   0.10997272 
   61000    225.85612   -1139.1602    132939.53   -44008.711    2756.8941   -46765.605   0.10840707 
   61200    222.18039   -730.70282    132424.98    -44019.32    2712.0265   -46731.346   0.10743294 
   61400    221.39869    -1041.484    132793.75   -44013.471    2702.4847   -46715.956   0.11387375 
   61600     225.8396   -1286.3738    133054.08    -44003.18    2756.6924   -46759.873   0.11559538 
   61800    222.36878   -813.29691    132505.56    -44011.37    2714.3261   -46725.696   0.10937984 
   62000    224.24969     -875.867    132598.67   -44023.006    2737.2852   -46760.291   0.10716981 
   62200    221.32957    -1283.612    133066.14   -44019.735    2701.6411   -46721.376   0.11412041 
   62400    226.25557   -938.42568    132694.58   -44000.909    2761.7698   -46762.679   0.10958298 
   62600    225.73675   -755.58429     132477.3   -44021.533     2755.437    -46776.97   0.10823075 
   62800    227.62218   -1194.6451    132960.39   -43992.975    2778.4513   -46771.426   0.11373027 
   63000    226.69795   -1080.8472    132880.34   -43973.784    2767.1697   -46740.953   0.10813677 
   63200    225.05984   -828.15694    132518.49   -43983.068    2747.1743   -46730.242   0.11034448 
   63400    229.21627   -1036.4352    132825.72   -43948.349    2797.9094   -46746.258   0.11171265 
   63600    229.36193   -1152.5563    132982.39   -43930.206    2799.6874   -46729.893    0.1131307 
   63800    227.47895   -859.95298    132590.18   -43956.641    2776.7029   -46733.344    0.1104508 
   64000    225.16526   -937.00135    132686.28   -43959.472    2748.4611   -46707.933    0.1109109 
   64200    225.97448   -1204.3629    132988.84   -43958.595    2758.3388   -46716.934   0.11429028 
   64400    231.97798   -957.08945    132696.88   -43950.958      2831.62   -46782.578   0.11019928 
   64600     227.7709   -866.25042    132605.63   -43991.367    2780.2667   -46771.633   0.10839975 
   64800    227.12017   -1134.1247    132920.59   -43995.474    2772.3236   -46767.797   0.11047338 
   65000    225.02011   -1040.8343    132808.01    -43994.78    2746.6893    -46741.47   0.11130181 
   65200    222.81806   -873.89949    132611.09   -44014.271    2719.8102   -46734.082   0.11018425 
   65400    223.28834   -1061.8903    132849.97   -44025.993    2725.5506   -46751.544    0.1069035 
   65600    221.01453   -1099.7513    132869.88    -44045.69    2697.7955   -46743.485    0.1088231 
   65800     223.0255    -874.5113    132609.42   -44029.318    2722.3422    -46751.66   0.10703393 
   66000    225.70773    -997.5789    132772.58   -44025.025    2755.0827   -46780.108   0.10582649 
   66200    226.46696   -1143.1754    132924.39   -44047.011    2764.3502   -46811.361   0.10821022 
   66400    223.47035   -906.76076    132656.37   -44046.041    2727.7724   -46773.813   0.10572025 
   66600    223.78822   -915.50576    132659.58   -44058.492    2731.6524   -46790.144    0.1048422 
   66800     223.8442   -1106.0968    132895.74   -44035.634    2732.3357    -46767.97   0.10676298 
   67000    224.56472   -953.38606    132731.71   -44052.453    2741.1306   -46793.584   0.10381042 
   67200    224.01877   -883.01034    132616.77   -44070.221    2734.4666   -46804.687   0.10508521 
   67400    221.45755   -1080.7727    132830.39   -44091.383    2703.2032   -46794.586   0.10689904 
   67600    221.83901   -1030.0529    132787.03   -44059.556    2707.8595   -46767.416   0.10836522 
   67800      224.915   -906.00278    132629.75   -44024.577    2745.4063   -46769.983   0.10840879 
   68000    228.29464   -1022.5336    132778.97    -44020.17    2786.6596    -46806.83   0.10508355 
   68200    219.91752   -1093.7583    132849.62   -44071.592     2684.405   -46755.997   0.10784603 
   68400    221.71806   -887.88486    132659.18   -44033.255    2706.3831   -46739.638   0.10461786 
   68600    224.12077   -955.32101    132727.84   -44022.574    2735.7117   -46758.286   0.10820407 
   68800    225.62239   -1083.5239    132895.28   -43996.726     2754.041   -46750.767   0.10922201 
   69000    223.82654   -1028.3816    132743.16   -44032.477    2732.1201   -46764.597   0.11049982 
   69200    226.22663   -903.97935     132645.5   -44038.198    2761.4167   -46799.615   0.10583852 
   69400    226.74978   -1060.8826    132829.14   -44063.884    2767.8024   -46831.686   0.10371643 
   69600     223.8194   -1035.8474    132776.99   -44073.433    2732.0329   -46805.466   0.10880669 
   69800    226.49967   -860.98509    132620.99   -44052.191    2764.7494   -46816.941   0.10718923 
   70000    225.45466   -1046.0515    132800.43   -44018.993    2751.9936   -46770.987   0.10983135 
   70200    225.11985   -1081.0337    132861.35   -44016.229    2747.9068   -46764.136   0.10673427 
   70400    226.62033   -888.42375    132621.07   -44024.127    2766.2222   -46790.349    0.1057136 
   70600    221.53783   -934.82142    132684.09   -44002.601    2704.1831   -46706.784   0.10920384 
   70800    224.81481   -1129.3001    132898.18   -44016.344    2744.1833   -46760.527   0.11054564 
   71000    220.94157   -971.34785    132685.36   -44051.034    2696.9049   -46747.939   0.10998636 
   71200    224.75386   -899.39394    132593.49   -44057.172    2743.4393   -46800.611   0.10748486 
   71400    220.02992   -1108.5362    132854.04   -44030.864     2685.777   -46716.641   0.11112898 
   71600     223.0234   -1048.3801    132761.73   -44016.447    2722.3166   -46738.764   0.11215816 
   71800    227.11255   -821.62814    132544.15    -44029.16    2772.2305   -46801.391   0.10711175 
   72000    221.86524   -1092.3225    132825.45   -44049.044    2708.1797   -46757.224   0.10956943 
   72200    219.13117   -1139.3453    132887.53   -44072.427    2674.8065   -46747.234   0.10755574 
   72400    221.86711   -800.67444    132531.81   -44059.939    2708.2025   -46768.141   0.10590934 
   72600     223.5492   -963.49775    132731.78   -44040.853    2728.7348   -46769.588   0.10925205 
   72800    220.67131   -1246.9953    133004.39   -44087.043    2693.6061   -46780.649   0.10963822 
   73000    223.17652   -817.27106     132554.9    -44096.37    2724.1857   -46820.556   0.10368207 
   73200    223.69174     -842.678     132551.1   -44112.772    2730.4747   -46843.246   0.10460948 
   73400    220.65697   -1280.2921    133074.48   -44088.966    2693.4311   -46782.397   0.11193676 
   73600    223.38739   -995.52832    132718.61   -44083.534    2726.7597   -46810.294   0.11064844 
   73800    223.23124   -665.79396    132358.63   -44089.049    2724.8536   -46813.903   0.10603073 
   74000    220.28464   -1227.7193       133004   -44105.634    2688.8862    -46794.52   0.10788923 
   74200    221.44635    -1187.018    132958.95   -44110.608    2703.0666   -46813.674    0.1043971 
   74400    219.26473   -612.22666    132280.08   -44095.913    2676.4368   -46772.349   0.10661321 
   74600    222.05651   -1038.9879     132790.8   -44098.307    2710.5144   -46808.822   0.11193519 
   74800    220.20978   -1368.1237    133148.18   -44101.096    2687.9724   -46789.069   0.11078772 
   75000    225.02777   -711.30962    132369.58   -44089.046    2746.7829   -46835.829   0.10453274 
   75200    224.68206    -810.3817    132520.87   -44070.731     2742.563   -46813.294   0.10315214 
   75400    219.32906   -1401.2247    133194.26   -44056.037     2677.222   -46733.259   0.11681038 
   75600    219.95164   -906.06776    132630.96   -44044.444    2684.8215   -46729.266   0.11266817 
   75800      223.804   -685.36196    132379.73   -44028.263     2731.845   -46760.108   0.10832373 
   76000    225.43745   -1279.1539     133056.9   -44015.486    2751.7835    -46767.27   0.11221119 
   76200    223.57945   -1090.8782    132866.78   -44035.404     2729.104   -46764.508   0.10814801 
   76400    220.13769   -708.40412    132399.67   -44021.008    2687.0925     -46708.1   0.11051027 
   76600    226.63509     -1078.47    132869.43   -44006.395    2766.4024   -46772.797   0.11141284 
   76800    227.69915   -1165.9746    132961.68   -44000.255    2779.3908   -46779.645   0.11138441 
   77000     226.6941     -778.972    132506.85   -44014.553    2767.1228   -46781.676   0.10702606 
   77200    218.93189   -991.45917    132700.71   -44046.717     2672.374   -46719.091   0.10977416 
   77400    225.62185   -1163.1535    132955.33   -44025.043    2754.0345   -46779.077    0.1114201 
   77600    218.80581   -946.95496    132655.44   -44049.931     2670.835   -46720.766   0.11286225 
   77800    222.96587   -907.25408    132618.62     -44057.5    2721.6144   -46779.114   0.10769114 
   78000    223.17598   -1109.4488    132887.23   -44055.822    2724.1791   -46780.001   0.10635434 
   78200    221.26614   -1021.9872    132761.86   -44048.752    2700.8668   -46749.619    0.1120445 
   78400    222.57375   -884.37592    132614.24    -44072.66     2716.828   -46789.488   0.10952612 
   78600    222.03699    -1080.347    132817.92   -44075.302    2710.2761   -46785.578   0.11150915 
   78800    225.11212   -1066.9053    132820.86   -44059.597    2747.8125    -46807.41   0.11042865 
   79000    223.45168   -881.95313    132626.23    -44058.28    2727.5444   -46785.825   0.10732625 
   79200    221.88291   -1007.6329     132756.1   -44059.163    2708.3954   -46767.559   0.10997349 
   79400    226.07684   -1077.9979    132866.58    -44023.69    2759.5882   -46783.278   0.11324886 
   79600    222.26786   -945.69287    132690.39   -44024.178    2713.0942   -46737.272    0.1129273 
   79800    222.10771   -962.75421     132712.7   -44039.759    2711.1394   -46750.898   0.10919229 
   80000    223.98595   -1093.4825    132864.14   -44021.965     2734.066   -46756.031   0.10785653 
   80200    227.26906   -990.47332    132742.57   -43990.936     2774.141   -46765.077   0.11410085 
   80400    224.85432   -940.03813    132683.15   -43981.208    2744.6656   -46725.873   0.11413257 
   80600    225.25649   -1063.0912    132842.82   -43994.056    2749.5747   -46743.631     0.112459 
   80800     230.4966   -1026.9042    132810.89    -43956.87    2813.5377   -46770.408   0.11113964 
   81000    224.65379   -922.25328    132677.81   -43998.954    2742.2178   -46741.172   0.11011007 
   81200    226.39426   -1021.7494    132779.26   -43982.819    2763.4627   -46746.282   0.11387215 
   81400    226.31182    -1085.844    132845.72   -43960.114    2762.4565    -46722.57   0.11594243 
   81600    227.79287   -940.43721    132688.09   -43975.382    2780.5348   -46755.917   0.11272253 
   81800    223.64977   -959.05812    132711.24    -43980.61    2729.9624   -46710.573   0.11270632 
   82000    228.69577   -1059.5391    132858.09   -43956.347     2791.556   -46747.903   0.10849452 
   82200    226.22669   -969.16012     132750.9   -43992.363    2761.4173    -46753.78   0.10965492 
   82400    225.27646   -946.64588    132667.45   -44000.136    2749.8184   -46749.955   0.11436201 
   82600     226.4351   -1046.6407    132825.48   -44017.723    2763.9612   -46781.685   0.10993768 
   82800    221.95954   -1040.4275    132794.24   -44048.003    2709.3308   -46757.334   0.10659303 
   83000    220.91838   -920.00484    132637.69   -44040.615    2696.6218   -46737.237   0.10911761 
   83200    221.72838   -1055.5713     132794.9   -44049.922    2706.5091   -46756.431   0.11345945 
   83400    222.61621   -1072.0241    132848.27   -44067.944    2717.3463    -46785.29   0.10946216 
   83600    223.28957   -869.43966    132624.07   -44080.005    2725.5657   -46805.571   0.10467975 
   83800    223.49362   -982.53552    132734.72   -44040.064    2728.0564   -46768.121   0.11024082 
   84000    222.07211    -1150.628    132928.05   -44056.156    2710.7049    -46766.86   0.10905015 
   84200    224.24431   -935.26451    132657.58   -44047.639    2737.2196   -46784.859   0.10927846 
   84400    223.14185   -913.45283    132619.75   -44061.428    2723.7625   -46785.191   0.10958867 
   84600    223.27607   -1157.5027    132925.68   -44050.064    2725.4008   -46775.464   0.10944147 
   84800    224.38956   -1006.5462    132769.77   -44064.552    2738.9926   -46803.545   0.10331444 
   85000    223.36629   -792.74073    132531.92   -44037.632    2726.5022   -46764.134   0.10323563 
   85200    227.83442    -1122.874    132906.85   -44010.146    2781.0419   -46791.188   0.10889445 
   85400    227.88029   -1144.5607    132934.51   -43995.802    2781.6019   -46777.403   0.11023087 
   85600    225.29874   -794.50494    132490.97   -44008.441    2750.0905   -46758.531   0.10651071 
   85800    223.77844   -973.15647    132730.69   -44008.916     2731.533   -46740.449   0.10451671 
   86000    226.57784   -1203.0426    133044.34   -43974.435    2765.7036   -46740.139   0.10751292 
   86200    230.15285   -849.95148    132609.65   -43989.719    2809.3417    -46799.06   0.10517042 
   86400    224.66327   -835.14623    132588.99   -43988.375    2742.3336   -46730.709   0.10403436 
   86600    228.39859   -1225.1734     133051.8   -43969.301    2787.9285    -46757.23   0.10868336 
   86800    226.09077     -1018.75    132767.99   -44002.838    2759.7582   -46762.596   0.10576043 
   87000    225.46188   -747.32515    132476.66   -44020.633    2752.0818   -46772.715   0.10139053 
   87200    224.35566   -1162.1371    132963.95   -43996.444    2738.5787   -46735.023   0.10909939 
   87400     227.6305    -1112.461    132940.28   -43974.122    2778.5528   -46752.675   0.11056736 
   87600    227.34139   -740.01241    132461.84   -44017.923    2775.0238   -46792.947    0.1023593 
   87800    224.36281   -1004.7458    132765.91   -44025.049     2738.666   -46763.715   0.10231627 
   88000    221.89064   -1248.9343     133030.9   -43989.876    2708.4897   -46698.366   0.11085898 
   88200    227.47385   -838.64149    132564.49    -44015.44    2776.6407    -46792.08   0.10545939 
   88400    223.93558   -862.30345    132603.74   -44006.186    2733.4511   -46739.637   0.10633714 
   88600     222.5239   -1230.7851     133045.5   -44013.614    2716.2195   -46729.834   0.10789928 
   88800    226.60823   -960.03353    132712.27   -44017.017    2766.0746   -46783.091   0.10424514 
   89000    226.33823   -769.91848    132492.21   -44030.454    2762.7789   -46793.233   0.10257064 
   89200    227.24307     -1138.99    132959.64   -44003.933    2773.8237   -46777.756   0.10493959 
   89400    229.41689   -1078.1231    132888.17   -43981.251    2800.3583   -46781.609   0.10646915 
   89600    227.86201   -775.52338    132505.53   -44008.414    2781.3787   -46789.793   0.10433063 
   89800    223.66462   -1040.0517     132818.2   -44019.491    2730.1437   -46749.634   0.10416983 
   90000    223.94244   -1195.2012    132981.27   -44025.927    2733.5349   -46759.462   0.10856289 
   90200    224.04881   -840.10614    132544.22   -44065.055    2734.8333   -46799.889   0.10458275 
   90400    222.65136   -910.57666    132611.97   -44084.036    2717.7754   -46801.812   0.10620211 
   90600    222.37437   -1212.2478    132967.48   -44067.097    2714.3944   -46781.492   0.10676105 
   90800    222.27426   -960.84683    132662.66    -44082.58    2713.1724   -46795.752   0.10438773 
   91000    223.28011   -806.09239    132495.44   -44084.673    2725.4501   -46810.123   0.10493198 
   91200    218.99616   -1163.3527    132921.89   -44087.534    2673.1585   -46760.692   0.11021939 
   91400    221.05434   -1084.1862    132818.77   -44083.715    2698.2814   -46781.996   0.10758839 
   91600    222.16759    -764.3278    132459.89   -44093.144    2711.8703   -46805.015   0.10385878 
   91800    221.14908   -1045.3405    132796.08   -44068.691    2699.4379   -46768.129   0.10490261 
   92000    222.96392   -1169.6335    132938.45   -44076.752    2721.5907   -46798.343   0.10483758 
   92200    218.55351   -821.58371    132495.88   -44097.694    2667.7553   -46765.449    0.1071284 
   92400    220.03531   -932.71185     132643.5   -44063.377    2685.8427   -46749.219   0.11091992 
   92600    223.56018   -1225.4723    133011.76   -44098.363    2728.8688   -46827.231   0.10747374 
   92800    219.79625   -900.94191    132626.13   -44084.379    2682.9247   -46767.304   0.10598602 
   93000    224.55123   -788.81583    132520.39   -44035.274     2740.966    -46776.24   0.10712433 
   93200    222.81127   -1239.8487    133009.79   -44029.627    2719.7273   -46749.355    0.1149364 
   93400    224.58917   -1050.7271    132798.42   -44032.791    2741.4291    -46774.22   0.11117897 
   93600    217.40858   -765.97108    132447.43   -44023.324    2653.7798   -46677.104   0.11240656 
   93800    223.26704   -1147.3685    132896.74   -44018.132    2725.2906   -46743.422   0.11340257 
   94000    226.91122   -1170.5757    132952.85   -44019.516    2769.7731   -46789.289   0.10945564 
   94200    222.01565    -763.8947    132449.67   -44083.367    2710.0156   -46793.383   0.10575594 
   94400    222.22125   -968.53932    132672.67   -44069.537    2712.5253   -46782.062   0.11137303 
   94600    224.39905    -1231.006    132992.87   -44059.307    2739.1084   -46798.415    0.1117834 
   94800    222.01904   -925.69593    132587.14   -44107.598     2710.057   -46817.655   0.10950659 
   95000    218.79645   -873.50109    132512.66   -44113.792    2670.7207   -46784.513   0.11127238 
   95200    220.68036   -1148.7603    132869.81   -44109.003    2693.7165    -46802.72   0.11408374 
   95400    218.97674   -1027.7631    132730.25   -44123.441    2672.9214   -46796.363   0.11094908 
   95600    222.46271   -841.62195    132546.83   -44094.711    2715.4727   -46810.183   0.10731768 
   95800    221.16971   -1075.8264    132799.31   -44065.319    2699.6898   -46765.009   0.11138497 
   96000    223.19265   -1072.3006    132810.46   -44061.501    2724.3826   -46785.884   0.11283872 
   96200    220.55168   -902.93994    132601.56   -44086.822    2692.1458   -46778.968   0.11377834 
   96400     222.3728   -999.73234    132724.82    -44081.94    2714.3752   -46796.315     0.110183 
   96600    221.33598   -1087.7888    132838.22    -44089.62    2701.7193   -46791.339   0.11048956 
   96800    220.93773   -979.86402    132661.06   -44131.405     2696.858   -46828.263    0.1072887 
   97000     223.9539   -919.86022    132639.52   -44120.848    2733.6747   -46854.522   0.10550486 
   97200    218.58269   -1096.1149    132815.29   -44110.042    2668.1115   -46778.154   0.11613948 
   97400    219.87245   -1002.7145    132737.51   -44079.142    2683.8548   -46762.996   0.11394688 
   97600     221.4788   -940.82424    132663.53   -44061.028    2703.4626    -46764.49   0.11090818 
   97800    217.87612   -1054.5063    132797.84   -44055.932    2659.4868   -46715.418   0.11225798 
   98000    225.58182   -1024.8377    132776.58   -44036.478    2753.5458   -46790.024   0.11174847 
   98200      222.974   -910.67604    132643.73   -44046.918    2721.7137   -46768.632   0.11139263 
   98400    224.30523   -998.22285     132772.3   -43993.919    2737.9632   -46731.882    0.1107044 
   98600    224.73111   -1071.4346    132834.05   -44027.967    2743.1616   -46771.129   0.11051683 
   98800     224.4933   -940.30003    132678.33   -44003.384    2740.2588   -46743.643   0.11221386 
   99000    225.79385   -975.75178    132726.94    -44005.87    2756.1339   -46762.004    0.1100302 
   99200    222.89119   -1077.7247    132836.08    -44054.15    2720.7029   -46774.853   0.11056862 
   99400    219.36405   -974.60024     132679.4   -44121.494    2677.6491   -46799.143    0.1079223 
   99600    222.79729   -921.61191    132628.39   -44138.352    2719.5566   -46857.909   0.10554496 
   99800    217.37664   -1087.9732    132799.93   -44110.252      2653.39   -46763.642   0.11119494 
  100000     221.3028   -1038.2331     132729.3   -44117.018    2701.3143   -46818.332   0.11222985 
  100200    221.07254   -914.56164    132613.08   -44090.057    2698.5036   -46788.561   0.11264811 
  100400    219.62255   -1038.6941    132767.07   -44073.065    2680.8045    -46753.87   0.11045747 
  100600     219.8157   -1066.9518     132794.7   -44039.797    2683.1621    -46722.96   0.10962338 
  100800    225.21651    -919.6219    132615.77   -44065.882    2749.0867   -46814.969   0.10793355 
  101000    225.58972   -1014.1294    132711.12   -44058.339    2753.6422   -46811.981   0.11283694 
  101200    227.11001   -1115.9486     132861.9   -44031.002    2772.1996   -46803.201   0.11410968 
  101400    220.71356   -958.72057    132653.48   -44049.307    2694.1218   -46743.429   0.11183255 
  101600    222.75753   -894.99686    132604.22   -44056.692    2719.0714   -46775.763   0.10730901 
  101800    227.10954   -1110.6904    132868.18   -44029.888    2772.1937   -46802.082   0.10532651 
  102000    224.35077    -1002.658    132741.79   -44039.269     2738.519   -46777.788   0.10744663 
  102200    223.52032   -840.50283     132522.6   -44029.795    2728.3822   -46758.177   0.11109868 
  102400    227.55804   -1086.9494    132842.41   -43988.061    2777.6684    -46765.73   0.11289824 
  102600    227.05208   -1125.4577    132890.67    -43989.46    2771.4925   -46760.953   0.11036385 
  102800    226.36705   -778.54446    132460.53   -44009.499    2763.1306    -46772.63   0.10887588 
  103000    224.59513   -995.63451    132712.16   -44001.599    2741.5019   -46743.101   0.11111176 
  103200     223.1335   -1281.2119     133049.4   -43982.559    2723.6606   -46706.219   0.11429612 
  103400    226.37527   -836.56759    132541.44   -44012.508     2763.231   -46775.739   0.10608069 
  103600    223.61573   -809.36622    132519.78   -44018.081    2729.5469   -46747.628   0.10948835 
  103800    226.25706   -1291.9973    133091.38   -44006.026    2761.7881   -46767.814   0.11049538 
  104000    223.65842   -1003.1157    132706.69   -44021.431     2730.068   -46751.499   0.11111346 
  104200    225.10503   -659.21573    132352.15   -44033.202    2747.7259   -46780.928   0.10494684 
  104400       222.01   -1199.8958    132988.03   -44039.597    2709.9467   -46749.544   0.10684381 
  104600    225.85402    -1153.919    132938.01   -44032.429    2756.8683   -46789.297   0.10772313 
  104800    226.25144     -668.738    132353.86   -44036.777    2761.7195   -46798.497   0.10568248 
  105000    220.09616   -1043.4825    132767.18   -44054.516    2686.5855   -46741.102   0.11295898 
  105200    224.11162   -1290.6988     133083.2   -44047.318       2735.6   -46782.918    0.1140726 
  105400    221.09185   -790.48444    132482.67   -44050.737    2698.7394   -46749.476   0.10656079 
  105600    222.45973   -852.72723    132563.95   -44047.186    2715.4363   -46762.622   0.10520129 
  105800    225.87032   -1293.1143    133094.79   -44054.472    2757.0674    -46811.54   0.10492326 
  106000    224.01384   -945.74672    132688.09   -44029.876    2734.4064   -46764.283   0.10852392 
  106200    225.08242   -740.02713    132464.41   -44020.158    2747.4499   -46767.608   0.10720644 
  106400    225.19271    -1196.813     132977.8   -44036.056    2748.7962   -46784.852   0.11160221 
  106600    226.03517   -1089.9418    132841.91   -44038.843    2759.0795   -46797.923   0.10979337 
  106800    222.97021   -754.41401    132440.22   -44040.079    2721.6675   -46761.746   0.10544525 
  107000     221.7918   -1058.2894    132821.57   -44002.654    2707.2833   -46709.937   0.11148404 
  107200    222.55502   -1216.1935    132977.07   -43992.313    2716.5995   -46708.912   0.11719498 
  107400    226.78938   -835.04054    132538.64   -44003.657    2768.2858   -46771.942   0.11261696 
  107600    228.21019   -928.53439    132666.17   -43986.262    2785.6287   -46771.891   0.10972156 
  107800    226.20768   -1206.4583    132998.41   -43996.542    2761.1853   -46757.728   0.11383614 
  108000    225.76988   -931.08843    132655.47   -43984.009    2755.8413   -46739.851   0.11193901 
  108200    226.50637   -843.13438    132541.19   -44010.331    2764.8313   -46775.162   0.11106203 
  108400     223.5415   -1165.5789    132920.25    -44003.11    2728.6408   -46731.751   0.11609607 
  108600    220.98479   -1059.4592    132801.19   -43987.224    2697.4325   -46684.657   0.11737009 
  108800    224.43104   -852.82554     132532.4   -44004.085    2739.4989   -46743.584   0.11556683 
  109000    223.87205   -1064.6607    132794.71   -44026.606    2732.6756   -46759.281   0.11648152 
  109200    220.75391   -1098.2907    132858.08   -44031.821    2694.6144   -46726.435   0.11501754 
  109400    227.34672    -883.4156    132592.63   -44019.968    2775.0889   -46795.057    0.1120381 
  109600    223.84672   -976.99769    132700.81   -43992.563    2732.3665   -46724.929   0.11437681 
  109800    222.70229    -1128.231    132879.62   -44029.854     2718.397   -46748.251   0.11515864 
  110000    223.54713   -959.36676    132680.89   -43983.055    2728.7096   -46711.765   0.11798706 
  110200    223.50208   -943.61593    132676.37   -43974.795    2728.1596   -46702.954    0.1177506 
  110400    225.33056   -1116.5177    132872.08   -44010.577    2750.4788   -46761.056   0.11363932 
  110600    220.99265   -1017.7051    132712.06   -44067.001    2697.5285   -46764.529    0.1126181 
  110800    223.32304   -893.78273    132599.17   -44065.138    2725.9742   -46791.112   0.11297074 
  111000     221.2873   -1062.7974    132814.78   -44063.066    2701.1251   -46764.191   0.11720195 
  111200    224.83685   -1055.5321     132784.8   -44050.272    2744.4524   -46794.724   0.11562588 
  111400    223.98856   -905.87618    132599.71   -44090.978    2734.0978   -46825.076    0.1126767 
  111600    219.61224   -1021.3686    132706.34   -44123.022    2680.6786   -46803.701    0.1107472 
  111800    221.58425   -1064.1565     132776.7   -44145.292    2704.7498   -46850.042   0.10930938 
  112000     218.2252   -986.07063    132652.73   -44146.521    2663.7478   -46810.269   0.11317057 
  112200    221.21097   -947.15717    132673.26   -44110.224    2700.1934   -46810.417   0.11033549 
  112400    225.17094   -1077.4434    132807.12   -44092.664    2748.5305   -46841.194   0.11045175 
  112600    226.37534   -967.24208    132723.98   -44074.602    2763.2319   -46837.834     0.107485 
  112800    222.80077   -925.86693     132669.4   -44088.538    2719.5991   -46808.137   0.11055689 
  113000    221.31678   -1062.8967    132797.15   -44070.994    2701.4849   -46772.479   0.11494718 
  113200    221.16576   -1046.6109    132789.75   -44095.964    2699.6416   -46795.606   0.11216142 
  113400    224.67545   -923.25861    132664.88   -44083.382    2742.4823   -46825.864   0.10779535 
  113600     221.1135   -1000.2105    132731.65   -44085.645    2699.0036   -46784.649    0.1111186 
  113800    222.19739   -1051.0415    132795.52   -44071.854     2712.234   -46784.088    0.1132394 
  114000    222.59115   -969.64412     132697.6   -44063.115    2717.0405   -46780.156   0.11197908 
  114200    224.67922   -979.49945    132714.07   -44072.853    2742.5283   -46815.381   0.11152808 
  114400    219.94988   -1046.5087    132804.64   -44027.664       2684.8   -46712.464    0.1102641 
  114600     221.7536   -1020.3306    132780.34   -44010.856    2706.8169   -46717.673   0.11053342 
  114800    224.51121   -976.75501    132762.01    -43990.24    2740.4775   -46730.718   0.11051913 
  115000    223.44012   -1026.6863    132802.01   -44007.742    2727.4033   -46735.145   0.11116934 
  115200    224.54436   -1001.9261    132788.38   -44028.965    2740.8821   -46769.847    0.1082055 
  115400    228.78506     -950.015    132732.84   -44043.385    2792.6459   -46836.031   0.10332436 
  115600    228.86595    -982.8666    132775.14   -44025.934    2793.6333   -46819.567   0.10618294 
  115800     224.7769   -1068.0733    132813.56   -44038.628    2743.7206   -46782.349    0.1102192 
  116000    222.32501   -976.90779     132716.2   -44032.407    2713.7918   -46746.199    0.1088074 
  116200    219.39218   -977.05755    132727.07   -44044.398    2677.9925    -46722.39   0.10749477 
  116400    225.14196   -1047.6226     132819.9   -44080.188    2748.1767   -46828.365   0.10264904 
  116600    223.08653   -960.53008    132723.64   -44093.779    2723.0873   -46816.866   0.10576296 
  116800    223.22532     -927.875     132687.9   -44054.397    2724.7814   -46779.178   0.10634411 
  117000    223.20401   -1066.2664    132843.49   -44068.578    2724.5213   -46793.099   0.10668537 
  117200    220.88431   -1001.2382    132762.54   -44066.737    2696.2061   -46762.943   0.10601016 
  117400    222.09721   -894.62464    132633.76   -44078.162    2711.0112   -46789.173   0.10099214 
  117600    221.57759   -1070.9432     132823.7   -44055.476    2704.6685   -46760.144    0.1052259 
  117800    222.80598   -1095.4866    132858.45   -44027.077    2719.6627    -46746.74   0.10888252 
  118000    227.03009    -846.0141    132621.25   -44022.275     2771.224   -46793.499   0.10395765 
  118200    225.48974    -979.1234     132736.1   -44052.274    2752.4218   -46804.696   0.10252119 
  118400    225.70465   -1160.8389    132934.09   -44074.992    2755.0451   -46830.037   0.10369916 
  118600    219.15732   -909.97963    132639.65   -44099.657    2675.1257   -46774.783   0.10342891 
  118800    219.60524   -860.34473    132592.81   -44129.586    2680.5932   -46810.179   0.10155156 
  119000    222.43289   -1206.5232    132951.91   -44131.094    2715.1087   -46846.203   0.10733419 
  119200    220.34066   -1015.6619    132728.66   -44135.927    2689.5701   -46825.497   0.10388286 
  119400     220.3174   -780.30442    132472.93   -44163.241    2689.2861   -46852.527   0.10349993 
  119600    218.15882   -1126.0317    132893.13   -44111.305    2662.9376   -46774.242   0.10635394 
  119800    221.45629   -1149.3321    132909.91     -44105.3    2703.1879   -46808.488    0.1063321 
  120000    219.34951   -750.44546    132457.16   -44131.654    2677.4717   -46809.126   0.10236215 
  120200    221.67933   -993.63208    132733.64   -44108.249    2705.9103    -46814.16   0.10175841 
  120400    219.77619   -1263.5784    133033.68   -44130.013    2682.6799   -46812.693   0.10594835 
  120600    219.85772    -838.6195    132535.18   -44126.458     2683.675   -46810.133   0.10371722 
  120800    220.36636   -848.03551     132558.4   -44126.161    2689.8837   -46816.045   0.10493892 
  121000     220.7493   -1263.8939    133047.32   -44108.835     2694.558   -46803.393   0.10810459 
  121200    221.60184   -996.62927    132693.66   -44120.778    2704.9645   -46825.743   0.10405043 
  121400    219.49541   -766.43775    132420.55   -44116.545    2679.2525   -46795.797   0.10509514 
  121600    220.74545   -1189.6255    132927.06    -44103.34    2694.5111   -46797.851   0.10668939 
  121800    220.18259   -1122.6945     132858.4   -44101.309    2687.6406    -46788.95   0.10763893 
  122000    221.02343    -715.3641    132388.12    -44092.95    2697.9042   -46790.854     0.105295 
  122200    223.98738   -1060.1504     132773.2   -44068.576    2734.0834    -46802.66   0.10644145 
  122400    220.57983    -1231.136    133007.16   -44032.506    2692.4894   -46724.996    0.1085191 
  122600    226.22355    -787.5384    132515.59   -43978.849     2761.379   -46740.228   0.10771046 
  122800    227.31237    -882.9486    132660.77   -43975.446    2774.6696   -46750.116   0.10618407 
  123000    225.15686   -1270.1297    133056.16    -43997.49    2748.3585   -46745.849   0.11342446 
  123200    226.66026   -927.05572       132637   -44022.848    2766.7097   -46789.558   0.11018359 
  123400    222.38017   -820.58665    132506.45   -44086.689    2714.4652   -46801.154   0.10747905 
  123600    223.38459   -1180.4273    132968.52   -44046.985    2726.7254   -46773.711   0.10868976 
  123800    221.17541   -1063.3394    132798.55   -44058.965    2699.7593   -46758.725   0.10883957 
  124000    220.38607   -806.88594    132485.18    -44048.43    2690.1243   -46738.554   0.10783454 
  124200    227.20412   -1077.5551    132832.89   -44035.657    2773.3482   -46809.005   0.10880511 
  124400    221.05984    -1154.608    132900.08   -44049.961    2698.3486    -46748.31   0.10981897 
  124600    222.60874   -877.63568    132544.28   -44065.902    2717.2551   -46783.157   0.10800409 
  124800    224.39241   -968.02815    132703.39   -44069.606    2739.0274   -46808.634   0.10766503 
  125000     222.4187   -1148.9315    132920.01   -44074.431    2714.9354   -46789.367   0.11074391 
  125200    225.74572   -950.90875    132636.75   -44070.437    2755.5465   -46825.984   0.10848014 
  125400    220.47598   -939.81923    132614.64   -44110.223    2691.2218   -46801.444   0.11019916 
  125600    222.11868    -1128.997    132865.88   -44114.987    2711.2732    -46826.26   0.10963434 
  125800    221.15384   -992.30845    132705.83   -44096.514    2699.4961    -46796.01   0.11064867 
  126000    224.58707   -898.68954    132595.56   -44088.436    2741.4034   -46829.839   0.10610586 
  126200    223.07824   -1078.9382    132829.61   -44064.792    2722.9861   -46787.778    0.1117604 
  126400    219.51608   -1073.6094     132789.2   -44088.777    2679.5049   -46768.282   0.10962826 
  126600    222.89815   -884.92327     132589.5   -44098.175    2720.7878   -46818.963   0.10511181 
  126800    222.12269   -1037.6841    132750.01   -44081.315    2711.3222   -46792.637   0.11353652 
  127000    225.36725   -1076.6948    132828.74   -44095.629    2750.9266   -46846.556   0.10972664 
  127200    219.92051   -936.88485    132629.03   -44123.427    2684.4415   -46807.868   0.10892705 
  127400    216.88394   -976.19675    132683.49   -44116.784    2647.3759    -46764.16   0.10970273 
  127600    217.96097   -1104.6034    132837.74   -44111.278    2660.5226     -46771.8   0.10819864 
  127800    223.67426   -951.65118    132693.79    -44114.89    2730.2613   -46845.152    0.1067222 
  128000    222.78694   -904.38863    132654.01    -44098.71    2719.4303   -46818.141   0.10623263 
  128200    218.93962   -1037.8258    132821.82   -44071.917    2672.4684   -46744.385   0.11024076 
  128400    221.37092   -1064.9412    132772.41   -44098.367    2702.1458   -46800.513   0.10902744 
  128600    219.29247   -929.14926    132645.88   -44113.656    2676.7754   -46790.431   0.10784674 
  128800    219.04358   -1007.4872    132740.35   -44155.931    2673.7373   -46829.668   0.10577008 
  129000    215.39931   -1035.5544    132768.98   -44168.578    2629.2539   -46797.832    0.1079247 
  129200    218.78433   -936.33293    132665.18   -44153.603    2670.5728   -46824.176   0.10625059 
  129400    220.39446   -968.26741    132719.53    -44145.82    2690.2267   -46836.047   0.10494938 
  129600     220.3256   -1047.1989    132794.24   -44131.622    2689.3861   -46821.008   0.10594156 
  129800    219.31725   -975.72776    132702.81   -44141.493    2677.0779   -46818.571   0.10747285 
  130000    218.39837   -988.91376    132679.29   -44158.788    2665.8616    -46824.65   0.10398383 
  130200    217.31403   -1023.2362    132764.47   -44158.916    2652.6257   -46811.542    0.1024859 
  130400     222.2826   -1012.5169    132725.76   -44156.929    2713.2741   -46870.203   0.10457267 
  130600    217.25229   -992.02841    132689.92   -44123.571    2651.8721   -46775.443   0.10758313 
  130800    218.48781    -1030.483    132746.76   -44138.501    2666.9534   -46805.454   0.10734495 
  131000    220.12659   -986.43125     132710.9   -44157.543     2686.957     -46844.5   0.10479666 
  131200    219.03555   -958.59936    132675.25    -44133.21    2673.6392   -46806.849   0.10451447 
  131400    224.27631   -1013.4974    132742.24   -44139.581    2737.6101   -46877.191   0.10032314 
  131600    222.66782   -1039.4778    132735.67   -44129.491    2717.9764   -46847.468   0.10502389 
  131800    219.48369   -967.14987    132674.99   -44112.443    2679.1095   -46791.552   0.10749053 
  132000    219.57356   -1015.0919    132748.11    -44074.95    2680.2065   -46755.156   0.10664009 
  132200    221.10675   -1032.5484    132803.34   -44089.011    2698.9212   -46787.932   0.10146806 
  132400    220.83218   -974.04238    132713.16     -44096.1    2695.5697   -46791.669   0.10177121 
  132600    220.49204   -951.82352     132715.1   -44066.166    2691.4178   -46757.584   0.10245906 
  132800    223.56321   -1038.2169    132801.32   -44048.699    2728.9059   -46777.604   0.10449579 
  133000    223.81445   -973.69374    132739.36   -44040.058    2731.9725   -46772.031   0.10523292 
  133200    221.72487   -1002.8209     132722.6   -44020.869    2706.4662   -46727.335   0.10741873 
  133400    221.51332   -1028.7847    132804.07   -44001.512     2703.884   -46705.396   0.10531177 
  133600    222.70072   -1030.3722    132788.76   -44005.728    2718.3779   -46724.105   0.10756351 
  133800    224.09689   -978.45284    132733.51   -44026.889    2735.4202   -46762.309   0.10434678 
  134000    223.36127   -991.52258    132776.59    -43991.29    2726.4409   -46717.731   0.10461075 
  134200    224.33847   -1026.4251    132799.23   -44000.096    2738.3689   -46738.465   0.10493995 
  134400    226.28372   -979.74931    132734.25    -43994.09    2762.1135   -46756.204   0.10536353 
  134600    223.99204    -998.4773     132755.6   -44011.105    2734.1403   -46745.245   0.10740166 
  134800    226.13408   -1010.2794    132794.14   -44035.595    2760.2869   -46795.882   0.10425362 
  135000    219.42743   -995.23149    132740.86   -44089.116    2678.4228   -46767.539   0.10151499 
  135200    225.59342    -939.3691    132703.29   -44077.672    2753.6874   -46831.359  0.097242258 
  135400    220.45327   -1048.1498    132780.47   -44089.054    2690.9446   -46779.999   0.10540494 
  135600    221.43969   -998.80251    132751.78    -44068.45    2702.9853   -46771.436   0.10489498 
  135800    221.36609   -962.43884    132685.51   -44126.112    2702.0869   -46828.199   0.10528188 
  136000     216.1358    -1000.018    132723.58   -44142.541    2638.2438   -46780.785   0.10415607 
  136200     219.0079   -1047.7124    132744.11   -44138.876    2673.3018   -46812.178   0.10134226 
  136400     221.4651   -954.69983    132689.13   -44115.713    2703.2954   -46819.008  0.098527589 
  136600    222.35545   -1004.5616    132723.33    -44072.36    2714.1634   -46786.523   0.10654628 
  136800    225.29266   -1012.8469    132767.88   -44081.133    2750.0162   -46831.149   0.10572639 
  137000    220.64604   -993.61692    132718.09   -44087.226    2693.2976   -46780.523   0.10583921 
  137200    219.60218   -960.80728    132685.42   -44106.459    2680.5559   -46787.015   0.10444352 
  137400    223.64256   -992.99115    132739.83   -44079.438    2729.8743   -46809.313   0.10431849 
  137600    215.59775   -1051.9611    132772.88   -44071.327    2631.6761   -46703.003   0.10649175 
  137800    226.55801   -949.69728    132692.18   -44046.174    2765.4616   -46811.636   0.10426636 
  138000     223.4711   -970.66559    132737.14   -44062.189    2727.7814   -46789.971   0.10448252 
  138200    222.92058   -1054.5153    132794.22   -44092.424    2721.0616   -46813.486   0.10476763 
  138400    220.27929   -960.41713    132694.48   -44076.339    2688.8208    -46765.16   0.10668832 
  138600    222.18824    -987.0473    132703.78   -44089.501    2712.1223   -46801.623   0.10734833 
  138800     224.4982   -1049.3281    132814.31   -44036.015    2740.3187   -46776.334   0.10859824 
  139000     221.2229   -1019.4243    132734.38   -44045.374     2700.339   -46745.713   0.10911497 
  139200    224.76134   -950.35923    132663.37   -44044.743    2743.5307   -46788.273   0.10449067 
  139400    221.08277   -1042.4519    132779.75   -44063.596    2698.6285   -46762.225   0.10910983 
  139600    221.84907   -1018.8231     132778.9   -44051.364    2707.9823   -46759.346   0.11053072 
  139800    221.92154   -957.82009    132677.67   -44019.587    2708.8669   -46728.453   0.11027081 
  140000    221.47035   -1024.3679    132769.31   -44003.779    2703.3594   -46707.139   0.10696927 
  140200    221.34282   -1068.6925    132842.97   -44028.516    2701.8028   -46730.319    0.1058414 
  140400    222.38777   -932.37889       132664   -44050.599    2714.5579   -46765.157   0.10712493 
  140600    218.89649   -970.14416    132681.82   -44051.961    2671.9419   -46723.903   0.11104928 
  140800    222.02791   -1140.1235    132892.14   -44043.953    2710.1653   -46754.118   0.11531117 
  141000    223.89324   -971.43338    132714.36   -44076.965    2732.9343   -46809.899   0.10923661 
  141200    221.57582   -842.54768    132551.57     -44045.4    2704.6469   -46750.047   0.10714444 
  141400    224.14116   -1129.4518    132897.65   -44035.814    2735.9605   -46771.775   0.10968524 
  141600    223.91911   -1097.2017    132878.38   -44020.888    2733.2501   -46754.138   0.10952288 
  141800    225.48861   -807.99385    132495.84   -44074.499     2752.408   -46826.907   0.10850416 
  142000    219.10385   -1029.6874    132751.48   -44070.769     2674.473   -46745.242    0.1116423 
  142200    223.07119   -1211.9837    132997.17   -44079.094       2722.9   -46801.994    0.1097945 
  142400    225.91677   -859.01947    132537.83   -44083.838    2757.6343   -46841.473   0.10804096 
  142600    223.87871   -857.46051     132559.4   -44061.373    2732.7569    -46794.13    0.1106561 
  142800    221.73893     -1262.13    133024.05   -44072.513    2706.6378   -46779.151   0.11115256 
  143000    219.64722   -975.14735    132693.01   -44100.009    2681.1056   -46781.115    0.1073133 
  143200    224.08392   -754.93441    132437.69   -44095.815    2735.2618   -46831.077   0.10695544 
  143400    218.49782   -1209.0446    132959.65   -44070.658    2667.0755   -46737.733   0.11554528 
  143600    224.29949   -1127.6374    132904.31   -44054.826    2737.8931   -46792.719   0.11090215 
  143800    220.62842    -743.5394     132398.6    -44067.32    2693.0825   -46760.402   0.11116277 
  144000    220.51443   -1030.6449    132780.84   -44049.155    2691.6911   -46740.847     0.107459 
  144200    223.32677   -1255.8772    133067.48   -44027.345    2726.0197   -46753.365    0.1084464 
  144400    223.98521   -772.73552     132528.9   -44033.177    2734.0569   -46767.234   0.10807561 
  144600    220.73608    -872.8679    132606.79   -44016.675    2694.3967   -46711.072   0.11367542 
  144800    225.53633   -1284.4426    133096.08   -43997.362    2752.9906   -46750.353   0.11532436 
  145000    226.10689   -933.29505    132719.99   -44035.217     2759.955   -46795.172    0.1053222 
  145200    224.85498   -751.15719    132459.85   -44061.853    2744.6737   -46806.527   0.10514421 
  145400    223.30623   -1193.9125    132969.58   -44051.375    2725.7691   -46777.144   0.10769073 
  145600    220.18976   -1111.2896     132886.4    -44068.39    2687.7281   -46756.118   0.10973388 
  145800    222.28524    -741.6002    132421.18   -44090.921    2713.3064   -46804.227   0.10702486 
  146000    221.63275   -1040.7737     132769.1   -44071.634    2705.3418   -46776.976   0.11026354 
  146200    219.75463   -1218.1686    132992.82   -44091.352    2682.4167   -46773.768   0.10954996 
  146400    222.57517    -816.7583    132511.57   -44063.312    2716.8454   -46780.157   0.10569763 
  146600    222.22924   -924.42698    132623.99   -44025.466    2712.6229   -46738.089   0.10949922 
  146800    225.22824    -1263.106    133051.07   -43991.998    2749.2299   -46741.228   0.11095888 
  147000    225.54162   -967.99907    132722.84     -43997.1    2753.0551   -46750.156   0.10675973 
  147200    229.14284   -811.00424    132550.77   -43982.643    2797.0131   -46779.656   0.10613113 
  147400    221.45711   -1151.4574    132949.16    -44016.11    2703.1979   -46719.308   0.10821959 
  147600    223.79183   -1084.7117    132829.82   -44040.181    2731.6965   -46771.878   0.10691942 
  147800    221.86029   -830.29368    132526.73   -44075.884    2708.1193   -46784.003   0.10157393 
  148000    221.50242   -1032.0424    132777.76   -44046.933    2703.7509   -46750.684   0.10509962 
  148200     221.3091   -1111.3196    132868.93   -44084.537    2701.3912   -46785.928   0.10529775 
  148400    222.83877   -885.84212    132591.35   -44104.954     2720.063   -46825.017   0.10320253 
  148600    223.69753   -956.52639    132676.11   -44082.459    2730.5453   -46813.004   0.10747759 
  148800     219.4253   -1143.7269    132884.87   -44088.651    2678.3967   -46767.047   0.10717626 
  149000    222.88266   -969.92672    132696.09   -44096.827    2720.5987   -46817.425  0.099720379 
  149200    220.41144   -921.47893    132629.17   -44112.776     2690.434    -46803.21  0.098655519 
  149400    219.12605   -1083.6972    132815.23   -44124.713     2674.744   -46799.457   0.10439002 
  149600    218.94031   -1052.9227    132760.96   -44110.013    2672.4768    -46782.49   0.10653918 
  149800    218.10853    -907.3865    132615.45   -44122.391    2662.3237   -46784.715   0.10237106 
  150000    223.11372   -993.27445    132744.11   -44076.293    2723.4191   -46799.712   0.10213262 
  150200    221.05481   -1047.5663    132810.38   -44033.497    2698.2872   -46731.785   0.10206093 
  150400    224.87805   -943.26553    132700.47    -44037.18    2744.9553   -46782.135   0.10040926 
  150600    224.87275   -989.58229    132716.93   -44046.314    2744.8906   -46791.205   0.10681286 
  150800    222.13521   -1068.6751    132785.66   -44038.052     2711.475   -46749.527   0.10823716 
  151000    221.70429   -997.99093    132737.56   -44059.178     2706.215   -46765.393   0.10487852 
  151200    223.76474   -973.23247    132702.38   -44049.486    2731.3657   -46780.851    0.1028522 
  151400    226.68232   -1008.2116    132771.43   -43992.737     2766.979   -46759.716   0.10478057 
  151600    225.95418   -1034.7775    132799.45   -43980.118     2758.091   -46738.209   0.10624551 
  151800    229.54015   -954.46487    132717.19   -43956.862    2801.8628   -46758.725   0.10271177 
  152000    228.14762   -996.93807    132733.44   -43976.405    2784.8651    -46761.27   0.10550703 
  152200    229.59989   -1030.6342    132803.52   -43990.899     2802.592   -46793.491    0.1027867 
  152400    219.14941   -1028.4112    132758.67   -44020.463    2675.0291   -46695.492   0.10882839 
  152600    225.84633   -950.84878    132711.66   -44014.604    2756.7745   -46771.378   0.10458044 
  152800    228.41429   -1007.7669    132814.22   -43967.825    2788.1201   -46755.946   0.10200553 
  153000    222.05188   -1072.2198     132818.4    -44006.06    2710.4579   -46716.518    0.1073755 
  153200    230.03089   -909.13317    132695.42    -43965.73     2807.853   -46773.583   0.10047349 
  153400    226.40475   -996.78353     132785.3   -44000.786    2763.5909   -46764.376   0.10555922 
  153600    222.50599    -1083.121    132855.05   -44030.227    2716.0009   -46746.228   0.10794507 
  153800    224.03303   -933.64569    132698.09    -44036.96    2734.6406   -46771.601   0.10146303 
  154000    224.66912   -960.35918    132715.64   -44062.067    2742.4049   -46804.472  0.098556243 
  154200    227.29757    -1071.669    132866.26   -44024.188    2774.4889   -46798.677  0.098131653 
  154400    227.50486   -963.52921    132747.92   -44011.941    2777.0193    -46788.96   0.10524039 
  154600    219.46305   -941.83116    132658.22   -44027.461    2678.8576   -46706.318   0.10950025 
  154800    223.50938   -1084.3735     132845.2   -44048.913    2728.2488   -46777.162   0.10666013 
  155000     225.8384   -1033.3551    132809.81    -44029.48    2756.6777   -46786.157   0.10390179 
[...]
  163000    223.97703   -927.45444    132670.77   -44085.086     2733.957   -46819.043   0.10356207 
  163200    223.22001   -886.33716    132607.02   -44079.758    2724.7166   -46804.475   0.10402772 
  163400     218.8556   -1140.1019    132861.39   -44097.096    2671.4428   -46768.539   0.11297296 
  163600    222.11105   -1038.6663     132755.9   -44072.649    2711.1801    -46783.83   0.10952892 
  163800     220.5668   -894.50628    132594.39   -44122.511    2692.3303   -46814.841   0.10292384 
  164000    223.92741   -1043.6494    132780.27   -44115.399    2733.3514   -46848.751   0.10359383 
  164200    219.28311   -1070.4355    132805.66   -44123.261    2676.6611   -46799.922   0.10525708 
  164400    218.50441   -937.70506    132611.64   -44091.416     2667.156   -46758.572   0.10844082 
  164600    222.36816   -980.43589    132727.97   -44063.469    2714.3186   -46777.788   0.10673643 
  164800    216.72898   -1090.1676     132857.3   -44096.205    2645.4844   -46741.689   0.10863201 
  165000    221.13526   -923.16605    132670.79   -44089.564    2699.2693   -46788.833   0.10323632 
  165200    223.68023   -923.87227    132672.71   -44079.542    2730.3342   -46809.876   0.10091923 
  165400    220.60072   -1117.1782    132847.55   -44088.179    2692.7445   -46780.924   0.10890329 
  165600    223.40501   -991.65301    132721.13   -44055.851    2726.9747   -46782.826   0.10572364 
  165800    222.89064   -931.52637    132633.58   -44060.328    2720.6961   -46781.024   0.10720288 
  166000    221.50321   -1039.7301    132811.52    -44030.47    2703.7606    -46734.23   0.10564235 
  166200    222.94956    -1035.794    132779.97    -44064.66    2721.4153   -46786.075   0.10483311 
  166400    226.55141   -890.86942    132607.72   -44062.073    2765.3811   -46827.454   0.10653441 
  166600     219.9606   -1025.8845    132744.76     -44059.4    2684.9308   -46744.331   0.10811146 
  166800    218.95225    -1099.078    132827.06   -44106.971    2672.6225   -46779.594   0.10477577 
  167000    216.22049   -946.76365    132614.99    -44100.63    2639.2775   -46739.908   0.10688652 
  167200    220.44191   -933.26503    132658.31    -44073.18    2690.8059   -46763.986   0.10650489 
  167400    220.93689   -1129.3419     132865.3   -44089.792    2696.8478    -46786.64   0.10751486 
  167600    219.99141   -974.50971    132686.09   -44090.008    2685.3069   -46775.315    0.1051483 
  167800    220.85542   -893.77309     132583.7   -44125.199    2695.8533   -46821.053    0.1035449 
  168000    221.65972   -1106.3085    132839.01   -44132.694     2705.671   -46838.365   0.10004649 
  168200    220.79015   -1032.6684     132780.8   -44123.425    2695.0567   -46818.481   0.10287761 
  168400    224.51428   -826.21374    132528.96   -44110.775     2740.515    -46851.29   0.10578022 
  168600     219.8968   -1052.7957    132792.15   -44073.859    2684.1521   -46758.012   0.10836804 
  168800    220.90614   -1189.1782    132916.37   -44122.659    2696.4725   -46819.131   0.10711064 
  169000    223.03604   -810.94415    132481.46   -44121.906     2722.471   -46844.377   0.10113237 
  169200    218.50115   -943.04349     132620.5   -44105.582    2667.1162   -46772.698   0.10486219 
  169400    220.38463   -1251.6869    133027.46    -44109.95    2690.1067   -46800.056   0.10763069 
  169600    215.93129   -899.55444    132564.72   -44126.879    2635.7474   -46762.627   0.10779503 
  169800    218.91013   -771.47555    132418.56   -44126.981    2672.1084    -46799.09   0.10864351 
  170000    218.91485   -1313.2606    133038.99   -44147.525     2672.166   -46819.691   0.10890525 
  170200    218.98275   -1064.6384     132778.8    -44154.79    2672.9948   -46827.785   0.10482759 
  170400    218.95209   -657.19906    132278.02   -44152.395    2672.6205   -46825.016   0.10395636 
  170600     219.4151   -1153.5834    132893.06   -44123.878    2678.2722   -46802.151   0.10828098 
  170800     218.6557    -1270.443     133031.2    -44145.03    2669.0027   -46814.032    0.1069865 
  171000    222.51486    -663.2854    132309.51   -44142.963    2716.1092   -46859.073   0.10252973 
  171200    218.82164   -933.59334    132636.38    -44154.33    2671.0282   -46825.358   0.10514159 
  171400    221.43611   -1336.5305    133142.84   -44148.137    2702.9416   -46851.079   0.10859015 
  171600    218.01887   -813.49083    132461.83   -44136.472    2661.2293   -46797.701   0.10544252 
  171800    219.87353   -767.22755     132429.8    -44114.91     2683.868   -46798.778   0.10313498 
  172000    221.15613    -1345.662    133125.33   -44106.599    2699.5239   -46806.123   0.10678238 
  172200    221.09174   -991.40966    132717.63   -44136.998     2698.738   -46835.736    0.1065942 
  172400    221.23129    -661.5877    132343.13   -44121.679    2700.4414    -46822.12   0.10598325 
  172600    220.60199   -1199.7783    132972.83   -44087.865    2692.7599   -46780.625   0.11188971 
  172800    223.82092   -1185.3291    132941.91    -44094.14    2732.0516   -46826.191   0.10799066 
  173000    217.15794    -730.0411    132390.05   -44109.766    2650.7204   -46760.486    0.1049523 
  173200    220.55734   -1011.6416    132732.92    -44132.43    2692.2149   -46824.645    0.1047959 
  173400    220.75197   -1233.7872    132983.92   -44128.476    2694.5906   -46823.067   0.11007936 
  173600    220.75603   -838.69062    132534.67    -44100.13    2694.6402    -46794.77   0.10702179 
  173800    217.77657   -907.67411    132604.64   -44092.244    2658.2716   -46750.516   0.10681711 
  174000    220.32592   -1195.4858    132938.57    -44062.01    2689.3901     -46751.4   0.11093451 
  174200    223.95325   -963.44174    132695.83   -44056.696    2733.6668   -46790.363   0.10816647 
  174400    222.57313   -865.36332    132564.95   -44050.766    2716.8204   -46767.586     0.109383 
  174600    220.82678   -1106.0019    132857.56   -44049.658    2695.5038   -46745.161    0.1131275 
  174800    224.05812   -1049.0301    132802.99   -44037.998    2734.9469   -46772.945   0.11010389 
  175000    222.58889   -890.63128    132574.63    -44065.09    2717.0128   -46782.102    0.1097478 
  175200    221.00928    -1025.884    132747.82   -44064.327    2697.7314   -46762.058   0.11104931 
  175400    223.37819   -1141.5017    132838.91   -44075.921    2726.6474   -46802.568   0.11270538 
  175600    222.66521   -912.52811    132607.74   -44085.226    2717.9444    -46803.17   0.10930477 
  175800    225.96353   -936.49447    132657.49   -44063.077    2758.2051   -46821.283   0.10561196 
  176000    222.08082   -1119.8055    132855.51   -44066.012    2710.8112   -46776.823   0.11080031 
  176200    226.99167   -960.88129    132712.01   -44029.204     2770.755   -46799.959   0.11205772 
  176400    221.02104   -923.49952    132636.53   -44041.031     2697.875   -46738.906   0.11431867 
  176600     224.6337   -1069.4276     132818.1   -44030.352    2741.9727   -46772.325   0.11092016 
  176800    221.37637   -1024.4218     132782.1   -44046.527    2702.2123   -46748.739   0.10818259 
  177000    225.29938   -932.00568    132643.77   -44043.007    2750.0983   -46793.106   0.10920977 
  177200    220.54551   -1019.6654    132763.15   -44066.993    2692.0705   -46759.064   0.11044291 
  177400    221.96456    -1085.248    132815.67   -44113.321     2709.392   -46822.713   0.11165674 
  177600     218.6327   -935.22216    132628.82    -44110.64    2668.7219   -46779.362   0.11293014 
  177800    220.46245   -998.55543    132702.24   -44081.526    2691.0566   -46772.583   0.11042078 
  178000    223.40219   -1094.5199    132854.55    -44061.51    2726.9403    -46788.45   0.10891419 
  178200    222.44484   -952.50759    132689.68   -44069.449    2715.2545   -46784.703   0.10954568 
  178400    223.13502   -942.52714    132652.88   -44077.861    2723.6791    -46801.54   0.11002204 
  178600    222.33747   -1093.7051    132860.86   -44063.645     2713.944   -46777.589   0.11042949 
  178800    222.99837   -981.15348    132752.71   -44054.485    2722.0112   -46776.496   0.10507854 
  179000     224.6144   -859.82255    132596.19   -44030.883    2741.7371    -46772.62   0.10892057 
  179200    226.00195   -1089.8358    132855.92   -44050.743    2758.6741   -46809.417   0.11179734 
  179400    221.69302   -1073.1689    132852.03   -44040.059    2706.0775   -46746.136    0.1108692 
  179600     227.2694   -851.94541    132552.23   -44048.703    2774.1452   -46822.848   0.10678454 
  179800    222.11121    -1014.575    132771.81   -44056.994    2711.1821   -46768.176   0.10611126 
  180000    225.52639   -1180.8012    132963.75   -44042.484    2752.8692   -46795.354    0.1113901 
  180200    225.37254   -869.70467    132569.19   -44010.431    2750.9913   -46761.423   0.11549119 
  180400    226.44879   -906.05759    132625.82   -43992.544    2764.1284   -46756.672   0.11355634 
  180600    221.88615   -1296.0418    133089.38   -44020.621     2708.435   -46729.056   0.11291373 
  180800    228.03507   -939.48865    132703.54   -44022.215    2783.4912   -46805.706   0.10134498 
  181000    219.43909   -693.57937    132410.42   -44053.215    2678.5651    -46731.78   0.10453929 
  181200    221.02806   -1257.8359    133040.97   -44032.148    2697.9607   -46730.108   0.11482352 
  181400    223.02445   -1160.7769    132931.89    -44063.01    2722.3295   -46785.339   0.11175438 
  181600    223.85368   -611.83851    132294.05   -44085.499    2732.4514   -46817.951   0.10372306 
  181800    223.40206   -1091.6116    132849.33   -44073.981    2726.9387   -46800.919    0.1057982 
  182000    221.92412   -1342.9422     133166.5   -44049.831    2708.8984    -46758.73   0.11015774 
  182200    220.00434    -707.8285    132408.89    -44069.73    2685.4647   -46755.195   0.10733314 
  182400    224.97886   -824.44676    132550.77   -44074.787    2746.1858   -46820.973   0.10561268 
  182600    220.65777   -1398.0539    133191.88   -44047.413    2693.4408   -46740.854   0.11314749 
  182800    225.06798   -906.99227    132652.41    -44034.77    2747.2737   -46782.044    0.1062998 
  183000    224.84369   -694.18841    132386.34    -44018.32    2744.5359   -46762.856   0.10628515 
  183200    220.92777   -1296.1606     133085.2   -44001.397    2696.7365   -46698.133   0.11241298 
  183400    222.61234   -1140.5924    132897.33   -44009.775    2717.2991   -46727.074   0.10914788 
  183600    227.82508   -639.11614    132333.25   -44046.337    2780.9279   -46827.265   0.10171213 
  183800    222.99593   -1089.4198    132822.91   -44047.109    2721.9813    -46769.09   0.10653229 
  184000    223.96936    -1254.444    133017.98   -44066.412    2733.8634   -46800.275   0.11150452 
  184200    220.34632   -764.13595    132430.35   -44105.527    2689.6392   -46795.166    0.1064945 
  184400    222.47998   -883.89051    132577.34   -44092.546    2715.6834   -46808.229   0.10361807 
  184600    220.92399   -1252.1291    133014.14   -44106.313    2696.6903   -46803.003   0.10660025 
  184800    222.63983   -924.00821    132617.26   -44097.465    2717.6346   -46815.099   0.10278987 
  185000    224.94017   -806.57087    132478.13   -44099.714    2745.7135   -46845.427   0.10430962 
  185200    221.50648   -1192.7452    132925.61    -44126.08    2703.8005    -46829.88   0.11008948 
  185400    218.50157   -1086.2959    132760.72   -44111.068    2667.1214   -46778.189   0.11065388 
  185600    219.60944   -792.71787    132456.34   -44121.361    2680.6444   -46802.005    0.1033223 
  185800    219.51659   -1056.2795    132819.92   -44082.745    2679.5111   -46762.256   0.10309041 
  186000    224.30378   -1135.1158    132899.77   -44077.514    2737.9455    -46815.46   0.10492813 
  186200    223.94091   -824.84388    132527.84   -44068.278    2733.5161   -46801.794   0.10394949 
  186400    220.23557   -992.51535    132687.33   -44039.116    2688.2872   -46727.403   0.10996786 
  186600    223.10381   -1165.3901    132918.18   -44045.497    2723.2981   -46768.795   0.10933057 
  186800     223.8658   -912.09428    132613.25   -44069.807    2732.5993   -46802.406    0.1057647 
  187000    222.58684   -918.90957    132588.04   -44040.981    2716.9878   -46757.969   0.10840681 
  187200    221.17124   -1155.3063     132909.4   -44060.904    2699.7085   -46760.612   0.10909884 
  187400    223.38101   -1006.3949    132751.23    -44050.37    2726.6818   -46777.052   0.10722535 
  187600    224.82025   -853.59217    132567.84   -44085.217    2744.2497   -46829.467   0.10798571 
  187800     220.6197   -1064.9442    132830.72   -44082.399    2692.9761   -46775.375   0.10700717 
  188000    223.27074   -1060.0581     132844.7   -44059.886    2725.3357   -46785.222   0.10703568 
  188200    223.74124   -878.44312    132616.68   -44042.888    2731.0789   -46773.967   0.10665137 
  188400     224.7717   -973.21529    132764.63     -44032.4    2743.6572   -46776.057    0.1059835 
  188600    224.65339    -1139.852    132882.21   -44037.781     2742.213   -46779.994   0.10888555 
  188800     227.4428   -922.11056    132655.15   -44048.739    2776.2617   -46825.001   0.10452975 
  189000    221.64899   -940.61504    132683.89   -44047.635      2705.54   -46753.175   0.11070027 
  189200    224.16686   -1092.9823    132898.64   -44045.732    2736.2742   -46782.006   0.10813423 
  189400    224.29417   -1000.5803    132742.15   -44040.543    2737.8282   -46778.371   0.10898074 
  189600    225.46313   -886.94843    132616.34   -44037.432     2752.097   -46789.529     0.108466 
  189800    224.89143   -1092.3528    132847.27   -44066.349    2745.1186   -46811.468   0.10336971 
  190000    220.07253   -1072.2873     132816.3   -44083.525    2686.2971   -46769.822   0.10966999 
  190200    223.59249    -874.7835       132593   -44072.061    2729.2632   -46801.324   0.10796421 
  190400     225.7583   -1027.7216    132784.56    -44072.63    2755.6999    -46828.33   0.10783269 
  190600     223.8962   -1114.8017    132885.05   -44034.003    2732.9705   -46766.973   0.10880768 
  190800    224.43841   -884.15507    132643.12   -44033.549    2739.5888   -46773.138   0.10188858 
  191000    224.08394   -962.62887    132709.67   -44064.717     2735.262    -46799.98   0.10416846 
  191200    222.28409   -1122.4811    132903.92   -44068.352    2713.2924   -46781.645   0.10712776 
  191400    222.44877    -966.0559    132714.34   -44078.253    2715.3024   -46793.556   0.10838813 
  191600    225.60501   -893.65447    132612.27   -44038.734    2753.8289   -46792.563   0.10777657 
  191800    224.26757   -1142.3452    132887.45   -44062.316    2737.5035    -46799.82    0.1094052 
  192000    225.88377   -1050.8742    132801.65   -44073.317    2757.2315   -46830.548   0.10743499 
  192200    226.42974   -819.82638    132527.85   -44050.422    2763.8959   -46814.318   0.10392675 
  192400    222.88613   -1056.3271    132792.46   -44048.017    2720.6411   -46768.658    0.1087573 
  192600    220.77274   -1187.7088    132919.48   -44076.475    2694.8441   -46771.319    0.1114927 
  192800    221.87654   -813.36283    132534.09   -44063.403    2708.3176   -46771.721   0.10319945 
  193000    222.11461   -943.91068    132698.43   -44054.222    2711.2236   -46765.445   0.10868594 
  193200     220.6248   -1307.9406    133076.55   -44026.601    2693.0383    -46719.64   0.11698202 
  193400    225.18361   -868.55424    132639.58   -44022.442     2748.685   -46771.127   0.10349014 
  193600    224.95649   -781.19251    132520.31   -44043.085    2745.9128   -46788.998   0.10100976 
  193800    224.42845   -1259.3451    133074.44   -44053.228    2739.4672   -46792.695   0.10595909 
  194000    224.13926   -1037.6701    132789.31   -44086.629    2735.9373   -46822.567   0.10534701 
  194200    222.49182   -658.43674     132347.4   -44072.002     2715.828    -46787.83   0.10586798 
  194400    222.40821    -1183.682    132975.39   -44059.327    2714.8073   -46774.135   0.11116679 
  194600    223.56432   -1278.2579    133039.31   -44058.664    2728.9193   -46787.583   0.10843827 
  194800    226.34687   -640.85594    132296.17   -44074.349    2762.8843   -46837.234   0.10032038 
  195000    224.61308   -985.07248    132724.08   -44053.233     2741.721   -46794.954   0.10578151 
  195200    223.27799   -1380.7382    133209.67   -44021.195    2725.4243   -46746.619    0.1158477 
  195400    223.68781   -749.79304    132478.79   -44048.722    2730.4267   -46779.149   0.10955597 
  195600    226.00657   -757.90597    132478.02   -44054.684    2758.7304   -46813.414   0.10575534 
  195800    218.93623   -1361.9801    133156.21   -44072.854    2672.4269   -46745.281   0.10764013 
  196000    221.75319   -991.63544    132706.88   -44067.424    2706.8119   -46774.236   0.10771551 
  196200    223.75199   -683.93709    132357.18   -44043.725    2731.2102   -46774.935   0.10557513 
  196400    223.18758   -1221.9943    132992.01   -44053.089    2724.3207    -46777.41   0.10803798 
  196600    224.26473   -1135.0442    132912.96   -44090.588    2737.4689   -46828.057   0.10619687 
  196800    219.22833   -737.65475    132382.08   -44087.441    2675.9925   -46763.433   0.10719953 
  197000     221.5169   -1035.8225    132756.98    -44088.67    2703.9277   -46792.598   0.10591637 
  197200    223.95021   -1222.6542     132974.2   -44113.442    2733.6297   -46847.072   0.10667523 
  197400    221.94392    -817.7506    132494.77   -44115.464    2709.1401   -46824.604   0.10298642 
  197600    220.09612   -891.35023    132601.48   -44062.907    2686.5851   -46749.492    0.1047822 
  197800    223.68318   -1224.2492    133003.93   -44031.246    2730.3702   -46761.616   0.10692038 
  198000    217.97317   -987.85292     132679.3   -44054.887    2660.6714   -46715.558   0.11365103 
  198200    224.31487   -813.81116    132497.28   -44076.318    2738.0809   -46814.399   0.10682732 
  198400    221.12231   -1124.2925    132891.73   -44023.745    2699.1111   -46722.856   0.10613138 
  198600    226.92999   -1066.0488    132831.49   -44007.577    2770.0021   -46777.579   0.10215676 
  198800    226.44026   -838.79832    132510.48   -44040.281    2764.0242   -46804.305   0.10397437 
  199000     223.6725   -1038.5027    132744.39   -44029.131    2730.2399    -46759.37   0.11074797 
  199200    225.05712   -1135.7157    132882.55   -44033.245    2747.1411   -46780.386   0.11072777 
  199400    220.13856   -897.06495     132599.6   -44042.558    2687.1031   -46729.661   0.10976843 
  199600    223.61162   -936.15124     132666.1   -44061.634    2729.4967    -46791.13   0.10352107 
  199800    221.53079   -1143.4596    132905.57   -44041.775    2704.0973   -46745.872   0.10481978 
  200000    220.24595   -979.70078    132718.07   -44047.496    2688.4139    -46735.91   0.10571277 
Loop time of 99.8993 on 6 procs for 200000 steps with 4096 atoms

Performance: 864.871 ns/day, 0.028 hours/ns, 2002.017 timesteps/s
97.5% CPU use with 6 MPI tasks x no OpenMP threads

MPI task timing breakdown:
Section |  min time  |  avg time  |  max time  |%varavg| %total
---------------------------------------------------------------
Pair    | 64.466     | 65.86      | 67.864     |  17.8 | 65.93
Neigh   | 8.0464     | 8.1903     | 8.4629     |   6.6 |  8.20
Comm    | 13.21      | 15.478     | 16.925     |  40.9 | 15.49
Output  | 2.9564     | 2.958      | 2.9646     |   0.2 |  2.96
Modify  | 5.8028     | 5.8317     | 5.8646     |   0.8 |  5.84
Other   |            | 1.581      |            |       |  1.58

Nlocal:        682.667 ave         712 max         665 min
Histogram: 1 1 2 0 0 0 1 0 0 1
Nghost:        1370.33 ave        1412 max        1350 min
Histogram: 3 1 0 0 0 0 0 1 0 1
Neighs:        0.00000 ave           0 max           0 min
Histogram: 6 0 0 0 0 0 0 0 0 0
FullNghs:      19340.3 ave       20175 max       18825 min
Histogram: 1 1 2 0 0 0 1 0 0 1

Total # of neighbors = 116042
Ave neighs/atom = 28.330566
Neighbor list builds = 9221
Dangerous builds = 0

Total wall time: 0:02:29
