LAMMPS data file via write_data, version 29 Oct 2020, timestep = 800000

4175 atoms
1 atom types

-0.35155777111740605 50.35155777111669 xlo xhi
-0.35155777111740605 50.35155777111669 ylo yhi
-0.35155777111740605 50.35155777111669 zlo zhi

Masses

1 18.015

Atoms # atomic

3552 1 1.406406157521297 2.4451203666365173 2.8302978667052368 1 1 1
143 1 31.554369758707136 22.816956482936348 0.20494873230214172 0 0 0
3957 1 5.50413455979145 2.6460720971466998 2.3646515964164303 0 1 1
2205 1 7.959120957473463 1.4707273226321738 2.40745036849425 0 1 0
4118 1 11.046203151148525 2.4346341902879836 1.275094622021199 0 1 1
3456 1 49.12613051367199 23.327139386713807 14.980077610618608 0 0 0
3396 1 13.40025043841808 22.63642871409507 -0.015200312248163539 1 1 0
840 1 18.786347073808162 1.7665509221934061 1.5429490930990508 1 0 1
335 1 21.60970506897269 2.0695462927568387 0.9270313996179402 0 0 0
2580 1 47.53687172258099 5.598425294319094 -0.21448109525179548 -1 1 0
1610 1 26.960149024421725 2.1230048465637794 1.7563509668047885 0 0 1
2802 1 31.721519062780104 3.0739259483327275 0.6799453442899785 -1 1 0
727 1 34.477461319363705 2.5976057031665816 1.156169677726524 0 0 1
1919 1 26.746867025913495 16.496766959312446 0.262850249092505 0 0 0
3197 1 39.11714287462572 0.9946356897707243 0.8138173779960067 0 0 1
3557 1 41.760590708210536 1.564673971069208 1.4445563306941218 0 1 1
200 1 46.36657753033543 0.9062224001648354 2.3359092740941723 0 0 0
2169 1 9.342722115730465 6.369696565184156 0.8992333671257973 0 1 0
257 1 3.328985644510348 4.207797276348337 0.8666819135593082 0 0 0
2091 1 5.414526859026997 5.9363003891428265 2.256792579113316 1 0 1
639 1 1.3663694588033435 24.553824040722635 4.684305641523206 0 0 0
2308 1 14.796464535450625 3.8445768451656113 1.8309176565820744 0 1 1
695 1 35.501741228753104 -0.2671660984227415 8.868128266579212 0 0 0
1846 1 17.391570972343487 3.988172984069452 0.934586232506522 1 0 1
365 1 22.509389984411 4.59825781190413 1.467114413434667 0 0 0
3581 1 31.34631245151639 0.04209590256268686 0.1628059970648662 0 1 1
783 1 27.21678001788624 4.670181266297924 3.4290482592657705 0 0 1
2492 1 31.237342999574437 5.851680838715993 1.0024678314486883 0 1 0
3549 1 32.179099815240185 0.1321829442286982 6.311211393366687 0 1 1
2201 1 35.84653886020758 4.548917534481441 2.9016809281602765 0 1 1
2350 1 34.14450804900373 5.842668868128471 4.98117592560162 0 1 0
3978 1 37.05420457455567 6.649378263321375 1.524524138499759 0 1 1
2862 1 40.302376397080394 4.100343212504051 4.070997036372897 0 0 0
990 1 40.75453864161625 4.130039978215473 1.328672574102304 0 0 1
1043 1 46.3193038213471 3.428274859062688 0.8127581294417721 -1 0 1
3596 1 44.43854818036685 4.557205548077044 2.7064661173889277 0 1 1
2234 1 28.97018460295769 24.192838649647758 12.416930208502372 0 1 0
660 1 49.48317420827967 2.9690344783193376 2.2003434699706084 0 0 0
963 1 49.67335736214098 5.61932252553696 1.5024807504167532 -1 0 1
1879 1 2.865891014556227 9.377046803259985 2.000221512041512 1 0 1
2570 1 1.7382390045678338 6.644584064424347 1.226402856805066 0 1 0
2286 1 5.1942367586431395 7.958623637928632 0.6100594782777686 0 1 0
3242 1 12.01075796900849 7.55972464174123 0.6020683521392 1 1 0
964 1 15.830589387401453 7.748331479293505 1.6771267166872734 0 0 0
78 1 18.19651921901916 8.294483490874066 0.2898543899179985 0 0 0
3082 1 20.905044680744727 6.94415887333006 1.7823359141489252 0 1 1
771 1 19.945853329492298 14.396005126214323 -0.16101158532419546 0 0 0
4089 1 22.604365518477692 0.1507074709575199 2.7303583722278195 0 0 1
1550 1 24.505275638400764 8.254368226920924 2.2118269451694723 0 1 1
2796 1 28.754585836758533 6.663052795933448 1.949573601408396 0 1 -1
2531 1 34.59981388381842 9.067013005999403 2.912818052853648 0 1 0
2368 1 37.269521294682136 9.538796538442455 1.7672495335120604 0 1 0
3746 1 42.23124675736054 6.664108855202708 2.0378279197550744 0 1 1
547 1 44.633809215727545 8.652682551050633 2.300241042817614 -1 0 0
3577 1 41.610684361893895 8.761262002183091 0.15418417525212802 0 1 1
4156 1 49.11106932572533 7.075961693676617 3.6682922952645223 -1 1 1
646 1 3.491238393117965 11.283483022986504 0.19986583254421297 0 0 0
142 1 6.142974720587321 10.712411285038556 0.34107738592268133 0 1 0
121 1 6.3662643937079615 12.312662266911687 2.9444766324904807 1 0 0
496 1 9.161811064850298 10.088514690556734 1.7659872961203402 0 0 0
3278 1 11.994808287886785 10.228390950329635 1.508959105611713 1 1 1
3501 1 16.125501904071484 12.45843053754696 0.8095443793286343 0 1 1
3083 1 15.756513755656112 10.505735941502834 2.9078830049101603 0 0 1
1209 1 2.2087853658211154 24.149282920549954 0.08105626599123089 1 0 1
3072 1 19.649514014681984 10.227951716339529 2.021685739334421 0 1 1
2103 1 22.473167312045604 9.882746347569782 1.5374071477707771 0 0 1
373 1 27.05093286569316 9.73211072351544 15.57136971003512 0 0 0
3810 1 26.0666476239174 12.327406827591345 1.8908770003725914 0 1 1
2601 1 30.664068909085245 11.888546864004265 3.0368284461465596 0 1 0
1096 1 33.08373201013093 11.296839281002462 1.6226308713729993 0 0 1
4056 1 42.61928047848302 11.300695071035518 0.8269915047574947 -1 1 1
124 1 45.94387299051028 16.44248643650477 0.7413611673891678 -1 0 0
1712 1 0.1123950713484867 9.351896384069363 1.924572417379316 1 0 1
3288 1 1.5844212387407974 16.319324680233542 1.8150208771462193 0 0 1
1951 1 1.795411030851695 13.643749500804205 0.5104721047710723 1 0 1
3606 1 4.026662462552081 14.046269963959933 2.9187674265174204 1 0 1
1770 1 9.06945769606933 12.802522859205014 1.0899853143949556 0 0 1
3073 1 15.606823195791616 14.457686499243165 2.874565811210669 0 0 0
3424 1 9.71472535360887 1.6026704954696056 15.897692693052491 0 0 0
1958 1 23.29335722715107 12.879705142422228 2.091942022432629 0 0 1
1799 1 23.26841322353561 15.69175877279071 4.1525472355568835 0 0 1
1199 1 27.57125806281881 14.651300900223042 2.329157031350123 0 0 0
1844 1 30.250147269985014 14.206046311311196 1.6461814361877913 0 0 1
1539 1 25.230795566378866 4.032035171644003 -0.11325930641627877 0 0 1
516 1 36.70100872045529 14.662363635804477 1.0747935440007275 0 0 1
420 1 40.09769056941451 12.503139239783438 0.1585070212406352 0 0 0
3003 1 38.80226223110118 13.29617344709558 2.205130702292145 -1 1 0
128 1 45.902349641746724 11.425324259853069 2.3075470780206553 0 0 0
1481 1 50.14536955332835 12.373724673409178 1.3596705622685419 0 0 1
213 1 47.56888428158783 13.477471784763496 0.48244595477815655 -1 0 0
664 1 6.117423292138489 16.04459850525927 1.898961204610647 0 0 0
4122 1 25.187222515059716 0.08477774175920844 2.241630380641359 1 1 1
1365 1 4.375004304269665 -0.2576500276484231 13.146976599205473 0 0 0
2044 1 11.555670258943696 16.391293757812907 2.077935903038985 0 0 1
49 1 10.495475382562054 18.572184027563356 0.788655253863104 0 0 0
1343 1 14.35937447724797 16.88463947512596 2.4204350389176463 0 0 0
1635 1 15.507224294751326 17.244983704709043 -0.11437886079610993 0 0 1
585 1 19.758032170464475 17.298866018932024 1.780108035351259 0 0 0
3910 1 22.479141187229885 16.552771447983876 1.57862611048184 0 1 1
1510 1 42.88755394192796 -0.20857119985160882 13.520131735171738 -1 0 1
3293 1 35.05613154468729 23.900775566211426 0.5803614407149396 0 0 1
1994 1 29.864977870828646 18.495385644131577 2.1453093201312528 0 0 1
193 1 32.16685231983304 16.43194574934842 2.0516188525841903 -1 0 0
2883 1 35.262069155709014 17.323074407453337 0.6414573982323688 0 0 0
622 1 38.36515505851582 17.204361506568475 0.8291304922263114 -1 0 0
3925 1 45.29297081024865 18.749493310126102 2.087587471448088 -1 1 1
1615 1 49.647490850009525 19.17855081452335 3.4396790213060364 -1 0 1
3894 1 1.606916636253333 20.675022917589 3.1938868525138653 1 0 1
2613 1 37.96372736415179 4.124613182528797 0.12084145340937469 0 1 0
1349 1 5.483261820024637 18.526541672499622 3.1184167441237127 1 0 1
1580 1 3.1727022601605506 19.889866022647148 0.9593762629766294 1 -1 0
552 1 9.545472643711737 20.436163599700713 2.6023918942105704 1 0 0
1764 1 18.808541205788078 21.530721014442257 1.3871221379798893 1 0 1
2212 1 22.6752230150643 22.74810637035069 2.008550884016762 0 0 0
1470 1 25.608693986696228 17.369582594128516 2.958195136057627 0 0 1
3357 1 5.530787838280926 1.0357157820684202 0.0091594660177034 -1 1 1
973 1 26.38107212319229 20.06627368071101 3.7038166000769532 0 0 0
2388 1 32.25118045215963 19.815509339420018 1.852313233881627 0 0 0
655 1 34.76678882664042 19.004850344614532 2.902309322288133 0 0 1
358 1 35.90649277291606 21.49979685235045 1.9540174597316025 0 -1 0
1517 1 41.39352785777575 21.466164632911216 1.3701654869725097 -1 0 1
480 1 42.65355490489566 19.126962187969568 1.1638075897765112 1 0 0
2269 1 45.89815451288508 21.16838066106838 1.3922965526860258 -1 0 0
3689 1 22.808169723338697 14.127130023025472 -0.17124630260491652 0 1 1
1689 1 0.8536985652146338 23.245162068722575 2.4038031785896075 1 -1 1
2637 1 6.071867765014364 23.59697561122335 1.4627021426019484 1 0 0
556 1 9.155059557173452 23.02305930058891 1.499086118281866 0 0 0
1334 1 11.169203520362315 24.574591291341434 0.3102282545980426 0 0 0
3323 1 14.61342398559426 23.085181511491278 2.6438395810071373 0 0 0
3764 1 40.844536058272375 24.690520106883856 1.5799026210234544 0 0 1
407 1 17.258699429790624 23.668639243768965 2.3989113863274265 0 0 0
3128 1 20.507208142998714 23.60265690297507 0.35719469926184844 1 0 1
3882 1 25.686651184676737 23.21902384347421 2.079356458840407 0 0 0
3844 1 29.372755722546287 24.067290171996017 4.216731891982625 -1 1 1
2101 1 6.964410454066585 24.218045422111135 6.513820001269906 1 0 0
1670 1 40.80409007246252 0.01908940950427368 3.74412466853991 -1 0 1
89 1 20.987762401523348 -0.13268886449303163 9.429232349970931 0 0 0
1985 1 28.248060798574418 18.110194821833545 16.043677040485946 0 0 0
56 1 16.39471346292625 13.889835954717533 15.229672892779616 1 0 0
3133 1 49.023649631327665 23.199089955120268 1.6030646444172185 0 1 0
2488 1 2.304923406465854 1.984029771990166 5.465847579404643 1 1 0
2733 1 4.583352788777898 0.9565390409550387 4.407470134799614 0 1 0
3653 1 8.057259794691422 2.657096079188562 5.155732781935894 1 1 1
455 1 10.581110703497025 2.880651735811549 6.041196074189699 1 0 0
2608 1 49.86406178374098 17.400460060405877 1.1029851185434933 0 0 0
1538 1 15.166863350771584 1.8083173517893587 3.788133979647533 0 0 1
331 1 17.753327057950777 2.0410313705728194 4.118213689354913 0 0 0
2771 1 19.887882121952998 0.9050035600063782 5.573893583116463 0 1 0
2137 1 22.87634001804825 0.8979870276533655 5.302814065762236 0 1 0
2775 1 29.80915441603358 2.345184156937375 2.717900331202839 0 1 0
1678 1 10.711995148273395 0.06867882494426958 6.588936439380147 0 0 1
841 1 43.653766206633165 1.9020434119163427 3.5291004761747233 0 0 0
2353 1 18.066217460705108 17.87840306266457 -0.3285193114492265 0 1 0
163 1 48.108891332186495 1.0144551211583577 4.3479814858290435 0 0 0
180 1 2.5284288283340155 4.662204067792179 5.635945378247012 0 0 0
2167 1 7.505714829736341 5.159028799292293 4.2355715554132916 0 0 0
519 1 9.885839530078538 5.934653617947531 3.4266423632410703 0 0 0
3204 1 11.7579562106017 3.8628791433958494 3.530176869012942 1 1 0
413 1 13.47218583419091 2.1541230118191192 5.862744002394936 0 0 0
499 1 13.537460122503433 6.40543241643681 2.538562361264165 0 0 0
2306 1 18.293876055325068 4.700414459579449 4.907465121617002 1 1 0
636 1 23.233716118381118 4.00304931414907 5.252839737173354 0 0 0
1469 1 24.31355290159982 5.523854988433416 3.4278627712783147 -1 0 1
323 1 27.56275941197282 4.739440677692666 6.227145691888071 0 0 0
127 1 30.33320473338282 4.201963215890768 4.818561143385202 -1 0 0
626 1 31.5399816542965 6.388733530377071 3.901294786878837 0 0 0
1978 1 37.083942029164184 4.352969808682696 7.0264915786231485 0 0 1
828 1 37.68124223621467 3.2174277878940507 4.412628806990291 0 0 0
1966 1 40.99372963064073 1.9498466434777466 6.039530698264105 0 0 1
1932 1 42.143377116925045 5.1367584800122525 6.696029646789957 0 0 1
2284 1 43.69531990474198 0.927403932790088 6.527147612998394 0 1 0
3193 1 48.41604026609461 3.7390137044730043 5.3465361401586415 -1 1 0
372 1 -0.1231488377803116 5.441250002420879 5.456826706560921 1 0 0
145 1 3.4001128003149215 6.662819735349326 3.858986364611261 0 0 0
2597 1 3.568533305399118 9.040131075021836 5.08448095698114 1 1 0
386 1 8.338540770628326 9.322621438471055 4.306282310218706 0 0 0
522 1 10.609262437224611 10.412567418019032 5.531231634803257 0 0 0
1112 1 13.415177621459662 7.773773144229812 5.066402272652586 0 0 1
1791 1 18.46201813915378 6.104708815082904 2.5888619051730957 0 0 1
1641 1 22.93022224798876 8.259334244060511 4.932060823871044 0 0 1
70 1 26.616216178239963 9.154288690071686 6.342381691687471 0 0 0
1940 1 30.31149018480151 8.324384493985297 5.485376184755569 0 0 1
184 1 34.667784124979995 8.307738145924104 5.604572236763714 0 0 1
2565 1 37.35653966784033 8.760993004213313 6.569370583899305 -1 0 0
1963 1 38.95377591397744 9.107576551255864 4.050816056781724 0 0 1
394 1 44.800474274030314 3.6573146628434348 6.687520819543979 0 0 0
624 1 41.13065249471612 7.088297370175061 4.34619758505911 0 0 0
1960 1 46.242586751077894 5.009349948948313 4.873801449540402 -1 0 1
3063 1 50.189955758179465 10.004024611875305 4.473257510519202 0 0 0
1415 1 1.9926391799404097 11.780795060959122 3.5528402648892707 1 0 1
744 1 6.0868713301625545 10.667005045053326 5.018879471554182 0 0 0
2784 1 13.101860498193247 10.46332176607244 4.000403597764216 0 1 0
3049 1 18.59332838220996 8.831062306444995 4.33618289188508 0 1 1
1435 1 15.900894572692117 11.763781829029922 7.429967131645747 1 0 1
1743 1 23.8367718174128 11.094549725063997 5.047575093734573 1 0 1
351 1 26.328169281431897 9.83927053178961 3.545018373877112 0 0 0
1783 1 28.987845957543225 9.253495839352787 3.22864731460601 0 0 1
1976 1 35.20895610810583 12.997885900146086 2.7072898351581514 -1 0 1
2702 1 37.06436757651679 11.909132293352828 4.103613672679444 0 1 0
2125 1 40.22529787542466 11.64540105840292 4.441659771811683 0 0 0
2227 1 43.27261335818229 8.609400777192423 5.04341559701714 -1 1 0
1233 1 42.76499899020866 11.170549520248656 3.4306202982301994 -1 0 0
884 1 46.4283139112957 7.880988515376723 4.403999950478502 -1 0 1
1163 1 47.339759612942274 10.880853939900442 4.7697089166683515 0 0 0
3484 1 2.9062601866911053 13.26742312261385 6.1713392066322665 1 1 0
1083 1 50.028280996606284 12.851548570768864 4.2090385056988 -1 0 0
651 1 4.905967748868301 15.343456483380075 5.553498358412137 0 0 0
693 1 8.209563674318611 14.691698042163727 7.6286631733869275 0 0 0
1476 1 9.984635074870074 14.386538779941596 3.143865572982592 0 0 1
988 1 11.55553553054073 13.076977627867004 4.955818950752815 1 0 0
80 1 14.61737253263648 13.03539943384314 5.152780720322378 0 0 0
144 1 18.447011681212683 14.789242659006241 2.4107695412107972 0 0 0
1703 1 19.33935636790922 12.429267992244661 3.506414729912371 0 0 1
2846 1 21.94610271735693 13.050940564162525 4.410829058083673 0 0 0
1875 1 24.94024578132808 12.350825210186395 7.133233346413035 0 0 1
3687 1 27.70830061232747 15.78730246688373 4.749620055096693 0 0 1
3163 1 29.829918717097563 14.848240313005789 6.455907286906426 0 0 1
2427 1 31.785527263483367 13.252390657286467 5.264000198411507 -1 0 0
2811 1 33.776778550454786 15.037589084129383 3.834614729198689 0 1 0
1876 1 39.557230277819365 15.49659013376 3.804132934632431 0 0 1
2161 1 43.96017274464008 14.00962345686752 2.300660752602095 -1 0 0
2791 1 46.8468410208237 12.561853903931219 6.924973671778551 -1 1 1
366 1 0.7174240210682774 14.94083620847437 5.796956473082074 1 0 0
1820 1 1.1371955674574854 17.138608684807703 4.397067744175055 2 0 1
4145 1 3.6697143779945414 17.75483316054708 5.243553405698194 1 0 1
85 1 7.5411298915836396 14.98787720988666 4.424742224877534 0 0 0
1503 1 8.116494894471675 18.69559380340342 4.271095895587424 0 0 1
196 1 12.229561290646332 17.396155747076204 4.845170183968262 0 0 0
3512 1 15.004010623663639 18.074713442091504 5.1914889921004495 1 1 1
677 1 19.183430808184927 15.71298945018064 5.359873322783864 0 0 0
94 1 21.739270834682237 17.42226241126136 5.158637528657918 0 0 0
2132 1 28.482589090680662 18.662110774848014 4.6203926481069555 0 0 1
7 1 38.95112794771709 18.33263414318179 3.7733316099376113 0 0 0
566 1 41.763072208339096 18.312859234700085 3.3728845967556484 -1 0 0
2764 1 42.38535591224548 15.767301887791994 4.026638558349819 0 1 0
673 1 47.19595145853356 18.046075838866738 4.410622583205279 0 0 0
23 1 46.13294951533937 15.288365548587839 3.6232668761737505 0 0 0
1133 1 48.71772911829526 15.30528946487595 2.856557423851056 -1 0 0
1560 1 46.82652100958202 16.214575070857258 8.339410985472806 0 0 1
825 1 6.93700476178833 21.55708903414834 5.407880894778898 1 0 1
448 1 11.856875803842943 19.997658006385443 4.4508811428250565 0 0 0
312 1 14.672605560034357 20.679417026290913 4.30424134538098 1 0 0
1464 1 17.995977031908296 18.18449992046507 5.053090638852933 0 0 1
982 1 19.870736600336265 19.773628931510668 3.4520735053136553 0 0 0
3415 1 23.0492291460006 19.132629062384304 3.252363014684003 0 0 1
3364 1 21.569028845085434 21.760131230342843 4.635189726370394 1 1 1
1417 1 30.398870874785974 18.760492433270862 6.552297181590437 0 0 1
2988 1 32.005940971887256 21.050526032445624 5.889924405544646 0 0 0
3870 1 36.38969574169813 16.338433934543122 4.04532085201526 0 1 1
1935 1 37.989381135339684 21.046274551682032 4.095226669950372 -1 0 0
2469 1 42.372693702106226 19.757163865966934 5.542828978853743 0 0 0
1582 1 43.62722784518987 22.381447805107538 2.5625410023046222 0 0 1
1962 1 47.94351901773597 21.48604276049618 3.2770402104170238 -1 0 0
30 1 46.53759500590337 18.781160589686362 7.02227362517452 0 0 0
2024 1 18.682136360109684 11.907051735676319 -0.11287613707912492 1 0 1
263 1 3.0346776344923816 22.49852135144669 5.318277377322859 0 0 0
822 1 4.939787047840579 21.35642859455592 3.3049759569363317 0 0 0
2071 1 17.447910757834922 -0.18768314162372035 0.22268097853772661 0 0 1
2667 1 39.03771553151157 15.175254526570546 16.01565755951648 -1 0 0
3967 1 46.23399771459346 22.26004547413383 14.909337295713973 -1 0 0
2588 1 15.263508352072087 22.174377451475166 6.625465648156812 1 0 0
3989 1 20.63198716799281 24.515013530352896 5.3121848045382976 1 0 1
548 1 17.851951831578177 23.575989007475307 5.014388579647992 0 0 0
1052 1 26.667446254113873 22.89127695940736 4.746975129462211 0 0 0
283 1 3.889945247624331 17.197357303904774 0.22875100493831146 1 0 0
3937 1 31.31690328134813 22.245720425063837 3.380536737838183 0 0 1
2636 1 33.515763029616785 23.881982485873102 3.0659254244140484 0 0 0
1677 1 38.778665047996796 20.380275751167336 1.3480173180315247 0 0 1
550 1 36.29194997889727 22.425148979653237 6.201952431977154 0 0 0
1251 1 39.255099881743575 23.808249255231207 3.760054147880777 0 0 0
1786 1 42.92606641188129 22.64858199356658 5.200765034006342 0 -1 1
1323 1 12.431653120473154 24.583385417053375 14.426686346872701 0 0 0
666 1 47.88521873111769 23.117324701762055 5.755209044990103 0 0 0
1228 1 0.4701531589336282 0.7133162516893952 7.304041827716754 1 0 0
1988 1 49.00919695090108 1.4462115089969332 8.836206564904115 -1 0 1
1154 1 6.128825734962635 1.689867890930881 6.773742748631108 0 0 1
2535 1 25.241346357147446 6.9966692502602355 0.004850968468015027 0 0 0
2691 1 16.302666319292477 1.6928244296486579 9.03314758288086 1 1 0
2684 1 18.958591830043147 1.6424834807019655 8.266164162602733 1 1 0
4044 1 28.050019922555514 0.6426471213367725 8.32563702432464 1 1 1
178 1 31.868946313916084 2.8503180102927446 6.57800753565215 0 0 0
126 1 35.32291801739724 1.5717325987862711 6.885726943137902 0 0 1
3002 1 39.69896764923665 0.9646637327164911 8.519269859032173 0 0 0
3667 1 42.41806721339707 0.8048245408714456 9.020845947655095 0 1 1
3167 1 45.136282746220076 4.653680747010185 9.469517106182064 0 1 0
1044 1 33.811267943900525 6.770162823519087 1.3427645286592433 0 1 1
1247 1 5.924514382756273 3.982738374413068 8.287299946859802 1 0 0
2384 1 6.901543493253467 5.948720833522157 6.81041224165127 1 0 0
3239 1 10.369313019023954 4.432700973897841 8.135611477039872 0 0 0
2465 1 12.984494962501195 5.396271660104985 8.728043491768387 0 1 0
2130 1 14.808550967832309 3.709979611403207 7.474903380593338 0 1 0
3721 1 20.230789462250225 4.108950372900628 8.669809418783464 0 1 1
95 1 20.620693224621423 4.969186232082434 6.05046570171068 1 0 0
2744 1 24.662942460906915 4.653063252090285 7.339895456734278 0 1 0
1917 1 27.854999544165974 3.3393781042373942 8.606594574177251 0 0 0
1055 1 30.63116807800606 3.298570360468548 9.08476958959819 0 0 0
4027 1 33.907022027118 4.457555438846343 7.348907328331234 0 0 1
2391 1 37.791265480597986 6.818301339654814 8.702406954557183 0 1 0
2407 1 38.80401429240321 3.6028053808269327 8.756461573816285 -1 0 0
4001 1 43.87300201387275 7.1894559929717685 7.790796225433619 0 0 1
3222 1 47.6043539195661 3.805243653083293 8.225189608936958 -1 1 0
2417 1 49.086203473244396 5.525791923320492 9.429502839866098 0 1 0
25 1 3.317237821811755 5.306230735970948 8.254370726685885 1 0 0
894 1 2.2450744212662674 7.956638790087169 9.210681579095045 0 0 0
2718 1 5.1240248559596955 8.053299541631484 7.497687843847263 0 1 0
3753 1 6.554841989696622 9.697490986221203 9.475433219432084 0 1 1
2252 1 8.962672347408596 6.76869812019088 8.24621004928997 0 1 0
45 1 10.389593926075541 7.643996359809815 5.959383170810154 0 0 0
650 1 16.284598325644836 7.869964413618968 5.929636675511644 0 0 0
1600 1 16.987217706737827 5.503371616820575 7.167774806525859 1 0 1
3891 1 20.28455189369856 8.503944808215056 8.744498777278654 0 1 1
3181 1 18.535027140328143 6.420120917923434 9.28827066744514 0 0 0
2440 1 20.489428139509958 7.564910318141033 5.963578436856956 0 0 0
1142 1 24.502617094479376 7.546717267871159 7.037159442589165 0 0 1
1194 1 28.346212258767743 7.3135028804820355 7.26238637219296 0 0 1
924 1 33.00423789282122 6.725187080310518 8.676455073356758 0 0 0
3789 1 32.48686280937492 9.221045757663562 7.268775561368139 0 0 1
537 1 35.269486613955046 7.097203028006037 10.309317724959998 0 0 0
627 1 40.56327762144713 5.895948329158759 8.796730864547127 -1 0 0
803 1 39.301660480243775 8.684142859303897 10.441675335291778 -1 0 0
1577 1 45.98559371917113 8.825587413169654 7.327500437498865 -1 0 1
2978 1 -0.05390862509401528 7.252554611208342 7.535036859706593 0 1 0
1438 1 1.4271635860847842 10.369695454466779 6.598896257090737 1 0 0
2785 1 4.318984866410372 12.896430543510746 8.561409492275473 1 0 -1
2367 1 6.641465654991961 11.983102602189044 7.305813090988948 0 1 0
3051 1 11.147859368687177 10.458345303818742 8.55287890127092 0 0 0
101 1 12.820891171160774 8.162573813511594 7.7464019209344475 0 0 0
1189 1 15.589570272584076 9.194735786173734 8.265349862989135 1 0 0
1374 1 19.998417171646796 11.324350494977514 8.803421006031869 0 0 0
2066 1 17.535548722488247 11.177551001841227 5.08472168006984 0 1 1
497 1 22.914472535628278 11.736610240738694 9.242113597493537 0 0 1
381 1 23.215935276595275 8.825301594609641 9.066853257766757 0 0 0
625 1 27.35026698075185 11.279881365052098 8.334356395821427 0 0 0
295 1 35.48545403591163 12.351631203060471 7.873564460777317 0 0 0
436 1 32.85959853658204 11.828516070181202 7.43388273488773 0 0 0
705 1 37.39222164368582 10.408347257152517 8.78765946690911 0 0 0
1397 1 40.29938987049981 12.65125338666641 7.117482219787147 0 0 1
2741 1 42.506693071033155 10.698198500911358 7.055601513530849 -1 0 0
3947 1 44.93410729030592 11.372434739518487 8.470514147331308 0 1 1
2255 1 48.837175166026384 9.345882480720578 7.675212659728405 0 1 0
618 1 49.81157973103699 12.153288838842574 7.321168659917497 -1 0 0
2765 1 0.21157102982409814 15.332426839427901 8.540858579831836 1 0 0
635 1 5.18086434467438 15.848912068462717 8.334263842955021 0 0 0
3791 1 7.6733667992321735 16.331867490118235 10.01085380908953 0 0 1
1663 1 10.563085923862406 13.22129066687738 7.628699123540438 0 0 1
621 1 12.917732662989861 14.776880259537363 8.83220678508157 0 -1 0
3674 1 17.435021933644897 15.381721517223147 7.483728568373062 0 0 1
1297 1 17.889983219479582 13.090501909234986 8.856662539897497 1 0 0
2502 1 25.66753876302507 15.14924534422131 6.5574618616063125 0 1 0
125 1 29.045354335402948 13.649697979408682 8.830131371429502 0 0 0
1183 1 32.42009281608418 14.930072647598026 8.725700461112472 0 0 0
870 1 35.22218482563833 14.040495858966564 9.897533424195249 0 0 0
615 1 36.54932090801803 14.299537093775523 6.04129307437258 -1 0 0
1827 1 39.06455349493987 15.143890760343986 6.734480275703543 0 -1 1
3106 1 39.08554994653554 14.860570770085056 10.372229998476811 0 0 0
291 1 41.77062968742833 14.954170890855254 8.904612790779366 0 0 0
2628 1 45.800337245023904 14.890084156656698 6.282379965783993 0 1 0
395 1 4.718467184888359 17.93322078147913 10.694158923521075 1 0 0
757 1 9.407054304253814 18.933921689008347 8.0280585259116 1 0 1
633 1 14.780565598811533 16.492377459856044 7.577561380420725 0 0 0
1216 1 20.965898706907726 14.067787656724988 7.354902400283977 0 0 0
329 1 23.63385671112316 17.020272983749358 7.2547850312063105 0 0 0
1407 1 26.963821654081286 15.477206677166427 8.948834772305592 0 0 1
304 1 32.01531646423947 16.638606853857933 6.063008205668117 1 0 0
1066 1 31.67435263873169 17.464647546932447 9.210251007756561 -1 0 0
1573 1 28.54848170529119 17.62634575269378 8.915896309021267 0 0 0
4080 1 34.76318734154324 17.829595473487593 5.960752464024377 0 1 1
382 1 35.16863067183285 16.752044413918572 8.667744148748499 0 0 0
3462 1 43.118452305534184 15.320436295426525 6.636040451282027 -1 0 0
1947 1 -0.0656232083539271 18.074553611161083 9.084426967581614 0 -1 0
3469 1 -0.08682286669086847 19.075743476935827 6.523940653660411 1 0 1
1921 1 2.4284915596532 20.190206359102437 7.084187294774886 0 0 0
2770 1 4.574058609239523 18.711299002108497 7.8387711518530026 0 1 0
3843 1 6.817967231523985 20.213384700896587 7.8195079374698135 0 0 1
3905 1 9.625186700635496 16.92108358093648 6.174742248574673 0 0 1
314 1 11.496090216866612 20.232421253172035 6.977204180906557 1 0 0
961 1 13.626025880390058 20.83358507796218 8.394146179798865 0 0 1
2177 1 19.506761505540727 19.045795686215968 7.395507115327459 0 0 0
723 1 20.3916568855492 21.72089958574508 7.4201285615348835 1 0 0
1102 1 22.350609622919468 20.864090046957248 9.605018726478765 0 0 0
1931 1 24.46292820595806 19.514667796613534 8.239953791794647 0 0 1
526 1 27.035489092269742 20.054181362655903 8.937959908505992 0 0 0
1489 1 34.433196489429356 21.18381764211623 9.45678046989079 1 0 1
1877 1 34.4101286503948 20.49248326904043 6.906188764468937 0 0 1
3346 1 39.78519023220737 20.358452188770354 6.361075276355531 0 0 0
611 1 39.50372948398301 19.22424601232687 8.931640338374695 0 0 0
2228 1 43.699509427461635 18.144741670412937 7.482611457565055 0 0 0
37 1 44.736902625638834 19.530052751303465 9.707840573236538 0 0 0
1185 1 47.50320029912567 20.084384678996035 10.339492137273012 0 -1 1
1320 1 48.75394034223126 20.73248186486053 7.435883839978803 0 0 0
3399 1 1.9639083239463933 21.74756236486919 9.251223406900735 0 0 0
630 1 39.94143621526446 23.034185573696234 13.564207196286823 0 0 0
3943 1 4.477932927143762 21.838919422339426 -0.03432786714163555 0 0 1
3257 1 9.607658401267527 22.351176311100573 5.307528001094397 0 0 0
4149 1 10.884566280708523 23.062519307597857 8.062598166937484 0 0 1
3045 1 17.68990359247119 22.02163896526337 8.038726857782661 0 0 1
2679 1 21.908787623532387 23.976766065897113 8.442825994965805 0 0 0
2094 1 24.34360275170317 20.523457283667724 5.680941535284262 0 0 1
3130 1 27.806075690787726 22.146400528329988 7.5713422941322515 0 1 0
512 1 30.692408882718723 22.65517262759836 7.910605946432451 0 0 0
151 1 32.390601176248786 22.99373337512711 10.00396174285187 0 0 0
832 1 38.09435462284015 0.7097199565109715 4.844595095771092 0 0 0
2376 1 37.39614497888172 23.222386894757765 8.441434574145317 -1 1 0
3445 1 40.98621996272704 24.742643559621428 5.835262447418861 0 1 0
2607 1 40.17719060969796 22.741736993026088 7.941319173635053 0 0 0
3287 1 42.264242549632826 23.66902755204833 9.379986658351505 1 0 0
848 1 44.28571830582667 22.111954872094547 7.83496389206735 0 0 0
4171 1 6.820265473552402 19.604934517471914 15.164427916960927 1 0 0
1353 1 -0.11676113147348036 23.532792860147048 8.940076042890656 0 0 1
559 1 47.892912482463004 23.039557797376577 9.660790507643176 0 0 0
1776 1 8.076164870912537 17.0514643333987 -0.043010485019525535 0 0 1
134 1 3.2015603547426474 3.183477002195326 10.214151799255665 0 0 0
1082 1 25.29221488158042 -0.15138230610035483 8.569367452352017 0 0 0
1898 1 7.124117198044437 0.7726517984275099 9.539952112884034 1 0 1
3807 1 6.341725877099296 1.4548534847850008 12.284385727106486 0 1 0
1748 1 9.624465958367283 2.1341074796522865 9.750449469635505 1 0 1
2424 1 11.209857396596204 2.5932109273374455 12.005745732321094 0 1 0
4031 1 13.501149936965524 1.4330016209914336 12.621127085033319 0 1 1
978 1 15.864825902240636 2.267256328134348 11.843265918024102 1 0 0
1625 1 44.98075667665654 13.093206236147083 16.34393140096937 0 1 0
2395 1 18.40616376694464 1.3750842538554446 13.32513192433125 0 1 0
691 1 23.302161813909393 1.2102649277130424 10.05321179370279 0 0 0
2627 1 26.853428228785834 1.03406008841459 12.329404276426201 1 1 0
3431 1 26.14920156583986 3.4057991615730137 10.788401413342338 1 1 0
149 1 31.216631130308787 0.9374561775745356 10.362182057419975 0 0 0
2532 1 32.04315135970354 1.6995489034984512 12.689341517165063 1 1 0
370 1 37.410330947345855 2.982982190797443 11.191001127130445 0 0 0
2494 1 34.823311951115265 24.74808263697378 5.3529790312272345 0 0 0
1368 1 40.20117356849498 3.1239998888064897 12.236039866385966 0 0 0
2713 1 42.8554600609671 3.2493126098570233 10.619648260936174 -1 1 0
869 1 44.489610772243836 2.4943220712301764 13.067523171170874 0 0 0
1291 1 46.438368027761115 0.7105504791796495 12.423642427785403 -1 0 0
2105 1 48.91648424905315 1.584765606232988 11.632873938731848 -1 0 1
2209 1 1.8352338994444657 4.41063106785809 12.256826831102387 0 0 0
589 1 5.995472929561659 3.9173951389926556 13.133769917085473 1 0 0