LAMMPS data file via write_data, version 29 Oct 2020, timestep = 800000

4175 atoms
1 atom types

-0.737048832750169 50.73704883275241 xlo xhi
-0.737048832750169 50.73704883275241 ylo yhi
-0.737048832750169 50.73704883275241 zlo zhi

Masses

1 18.015

Atoms # atomic

190 1 3.3603160454861873 0.966518259972891 1.9179941076810176 1 0 0
690 1 8.997720126027419 1.9259537557024853 1.8823336198985152 0 0 0
670 1 11.277935079438569 0.2834335747053258 2.352032902815914 0 0 0
2049 1 46.91235224269704 20.02683285210077 -0.5572537602645781 0 0 1
247 1 24.799970422971015 0.4606002702268235 0.03237354212924082 0 0 0
389 1 32.391538805938644 2.2304885622715362 0.9175529018837496 0 0 0
2493 1 24.57458951999815 24.76814628422377 5.194751722014582 0 0 0
2144 1 35.0092088234513 1.4380106378082735 1.422053403503337 0 1 0
663 1 37.95660488686435 1.3713566853938244 1.1425320497163185 0 0 0
1505 1 7.969065532239007 2.592761765762191 -0.6477039803302393 0 0 1
2359 1 42.72501641731648 2.184938568138002 0.9946211998375012 0 1 0
614 1 44.53445809250877 1.3740480937020174 2.9637953541816175 0 0 0
2792 1 46.77111226334662 -0.23283888456844182 2.510331943036104 0 1 0
267 1 48.57372009925303 1.6639174990399614 1.5182289680396543 0 0 0
432 1 1.0747873833739858 4.942788094915855 -0.024509479190824357 1 0 0
298 1 29.173992968777117 24.868344861616944 5.397251970151893 0 0 0
4 1 5.264159864054138 4.793838075095003 2.4403059116255355 0 0 0
80 1 5.749717132403248 4.3771746608528925 -0.24602086159142794 0 0 0
198 1 9.597209564662753 4.463909451904032 2.902650927535192 0 0 0
1695 1 13.572221536942413 4.246754187564982 1.5761322116430136 0 0 1
1961 1 15.92831547632803 5.5010459850672495 2.161146509032976 0 0 1
459 1 17.2200900495051 3.283469253495813 1.1705108252523253 0 0 0
1972 1 19.915805081252927 4.134630620534495 0.7351039721220427 0 0 1
106 1 25.14253529585172 3.2446902659303847 0.6645408607262902 0 0 0
95 1 27.830933212899502 3.212080198442557 1.03265305122032 0 0 0
474 1 29.547228388437198 3.496573163637514 3.354154217489681 0 0 0
9 1 31.917822534791277 4.405041024307311 2.7647613493257994 0 0 0
1774 1 34.59449967755884 4.492012914655384 0.8414572205746289 0 0 1
1939 1 41.58383071931952 4.56810072553441 2.3607763030106717 0 0 1
1963 1 46.216509201783 3.1265434354116524 1.5617818424704204 0 0 1
2447 1 47.09998367348747 5.57500771912054 2.755763765788498 -1 1 0
322 1 44.19129104003775 23.63593750300302 6.748914851089275 0 0 0
2780 1 27.02167923303326 24.521380329450864 6.756288879377306 0 0 0
32 1 8.646341797505995 8.32623376659468 2.0215470153349764 0 0 0
686 1 11.280432400539269 5.873855093929106 1.40688958150524 0 0 0
1979 1 15.994755270164408 8.126294094092847 0.9937359102798116 0 0 1
676 1 20.284148071807962 8.706331940264127 0.8489636578346813 0 0 0
237 1 40.517091658153745 24.429420480269492 3.8211023837697775 0 0 0
649 1 24.88465964064722 7.107888168668551 2.023318357768321 0 0 0
503 1 29.408098643818935 15.52540567591873 -0.5748620985384338 0 0 0
1781 1 27.417272874779126 6.0796446871327 1.076657686115424 0 0 1
51 1 30.068127770526562 6.691299535537245 2.1076976018653713 0 0 0
434 1 32.566856820615286 6.754724894895952 0.5839149802999404 0 0 0
2069 1 33.93703206935511 8.687740315861447 1.3784206814670035 0 0 1
271 1 37.02514504929105 5.093783551732685 1.9331965418043366 0 0 0
1997 1 37.79331289923405 7.059217557715129 0.04231387392904107 0 0 1
511 1 40.49330154586974 6.53418816470803 0.8809040978686762 0 0 0
1954 1 47.135805189640486 7.188677964462465 0.40850455803718555 0 0 1
341 1 45.10641855008072 9.094708599161972 0.2467298814010589 0 0 0
281 1 49.28787549121115 8.813634521800518 1.044624944686274 0 0 0
174 1 3.9520285995128184 9.064300248693423 1.9769869413503773 1 0 0
626 1 6.384282758694261 9.887177422153922 2.793988728486755 0 0 0
48 1 12.99222274986595 11.221828286365636 1.1904564256491807 0 0 0
532 1 14.053863087511937 9.065797199290737 2.6345363925068335 0 0 0
3754 1 17.26309340602354 12.068371146788285 0.3611983646524286 0 0 1
1512 1 17.73225073353336 9.804524347795613 1.7959346590146938 0 0 1
2502 1 12.92476063232585 -0.018513422336089103 0.27435472548902107 0 1 0
1795 1 41.24054854771885 17.28781484780131 -0.24798253508614293 0 0 1
253 1 27.812445925335965 10.686312988446291 1.9259448558809282 0 0 0
452 1 29.985670011273236 9.418270197768049 0.9031968549895784 0 0 0
1904 1 32.320989148323676 10.893765102403394 1.3583177110232647 0 0 1
348 1 36.58226382157695 9.06960597767188 1.0284112413577013 0 0 0
191 1 41.23494580870047 8.732331240965676 2.102406096884227 -1 0 0
1914 1 40.44743611180439 10.598842849155908 0.3599890524549576 0 0 1
292 1 43.95076090510331 9.1643640920328 2.7050744216268394 0 0 0
1957 1 46.5810962098703 11.340232244052224 -0.37362949910205634 0 0 1
536 1 48.30658510488441 11.299339081787423 1.9189801933254977 0 0 0
579 1 1.2179499057572198 12.387093529040014 1.2367703248025677 1 0 0
127 1 2.4366355920181464 14.847129656117941 0.835709162324781 0 0 0
19 1 4.844057045531737 14.706922162458842 2.0530988079551395 0 0 0
195 1 6.273370787484248 12.433153957520343 1.3875791973907874 0 0 0
492 1 10.04985734205078 14.66314703245905 -0.5500500309561092 0 0 0
38 1 9.252746304137862 13.094700131559806 1.538327454104516 0 0 0
370 1 14.87669526807249 13.10494876199552 1.5766329464854185 0 0 0
570 1 19.90067253004882 13.318298913868011 1.1123395468190556 0 0 0
2021 1 22.427665822727484 11.976683450567654 1.3986582519475514 0 0 1
1501 1 24.66358676061991 13.318643271471457 0.1583584761848421 0 0 1
363 1 25.506831111749463 15.364439095835113 2.040063576179012 0 0 0
128 1 28.25246257023611 14.923921781839995 2.1177996324878627 0 0 0
574 1 33.97626420911088 13.109714437672261 2.309054620413135 0 0 0
382 1 35.92498352381306 14.416061605205732 0.9788664792360839 0 0 0
2141 1 40.79781392873594 12.89508315821954 1.3869221750697003 0 0 0
589 1 43.38834314817069 13.130318153125433 1.963557960546102 0 0 0
8 1 44.980820878069544 13.54152259960926 -0.31259394332440726 0 0 0
2025 1 50.14447137414264 13.242582346962688 1.7481507739694395 0 0 1
377 1 49.24260907801845 15.471717840902159 -0.016491408766275417 -1 0 0
547 1 0.5770979867339256 16.541078849576348 2.1572196787342475 0 0 0
1728 1 50.53666729954901 17.886591820424645 0.091828580202167 0 0 1
2150 1 19.05499532792965 24.350858434855347 14.293252262805467 0 0 0
205 1 6.421762451828636 16.937169799471395 1.2664920004123141 0 0 0
1869 1 11.966131711217363 16.222283778594964 0.8419468071616245 0 0 1
1631 1 14.622762274939218 15.577416833207604 0.15803642310305432 0 0 1
548 1 18.589099292638046 17.7534480044701 -0.05011892484857439 0 0 0
403 1 41.48133834100697 0.0054335779355249025 -0.07573061989885566 0 0 0
1632 1 24.045518189189185 17.384454712539206 1.030211862095539 0 0 1
25 1 32.840597264547185 17.168047789202486 2.774143515938247 0 0 0
587 1 34.44832831521776 16.7333069375634 0.38815119790311625 0 0 0
1883 1 37.98971728036106 18.024661416148753 3.409438710935956 0 0 1
1931 1 41.58651269126231 17.432796779458176 2.388044902833544 0 0 1
456 1 46.70525343298611 15.573659490366271 0.29757226650331603 0 0 0
1779 1 1.1916358042213233 21.34386516249699 2.1655880779739216 0 0 1
1536 1 4.197128488789376 18.66054413956053 0.7115002999759472 0 0 1
297 1 5.082353880004855 21.10138051306414 -0.30704223057124064 0 0 0
631 1 2.3188854736125157 18.622010841457143 2.6073202883822137 1 0 0
617 1 10.775803224289836 18.681385383136952 -0.3123480018599932 0 0 0
2048 1 14.975665229504743 20.715222600292392 -0.03256324924319942 0 0 1
2042 1 20.167495901502456 19.99703546789807 0.5313611368024227 0 0 1
1712 1 22.09499236931418 18.987784928048608 2.439575140808179 0 0 1
105 1 25.233972931693256 19.336308180969073 -0.3116322868133931 0 0 0
188 1 26.26353381761736 20.57016600987165 2.31892446896121 0 0 0
534 1 31.105563731327017 19.46619123148067 2.1293752347448796 0 0 0
1733 1 34.46385343526848 22.054792520665792 0.2894112281116825 0 0 1
299 1 37.5479999349838 19.66207424378078 0.9693702831593192 0 0 0
499 1 2.7156472333408432 24.643967093198054 14.379049670637299 0 0 0
37 1 43.09716480825075 19.919719647929522 2.206193916502271 0 0 0
2548 1 44.811394486986956 21.568219941020775 1.0728086453846701 0 0 0
7 1 49.02377285871504 19.844572302914845 1.1847270084999013 0 0 0
609 1 2.1049500372004393 24.116802867008857 1.5747941928567855 1 0 0
623 1 4.818636278795068 23.064104616253857 1.7271569534909639 0 0 0
3872 1 8.390566030555139 23.03701613230764 0.33967344539370425 0 0 1
2066 1 11.10275586955535 23.292898834473203 -0.10158331894447847 0 0 1
250 1 48.199512779725296 23.120065428651625 15.39720956788701 -1 0 0
4021 1 16.575637841155718 23.084910813879606 0.0566839270297419 0 0 1
1808 1 18.78761621132634 22.36353177873165 1.8107854620240973 0 0 1
1129 1 34.7741744008737 17.815920300531655 15.955328380235137 0 0 0
1656 1 23.014460854784147 23.43249549131656 1.6116856613158625 0 0 1
217 1 23.18056745151685 24.285059007664287 13.990153937025866 0 0 0
694 1 27.516561475699312 22.84147278247447 1.7002823473909516 0 0 0
431 1 10.435206262538308 24.57988741137963 10.001438349004061 0 0 0
357 1 39.397783272244844 23.545672775677716 0.7053019169998582 0 0 0
2747 1 46.54224956770231 23.20323429182549 2.571689224989617 -1 0 0
2054 1 50.58893937099293 21.798483130773217 0.63819018406824 -1 0 1
1935 1 49.03885579531688 24.034491352403965 1.3171431401536626 -1 0 1
1840 1 1.178442120252422 0.6328829310784934 3.358257816416608 1 0 1
280 1 50.39460586823628 -0.4211862332136556 2.2889525373343247 -1 0 0
701 1 4.001662091390537 0.6625522078931783 6.106774532979284 0 0 0
683 1 7.29616242780738 0.6927544761077464 3.666514934279114 0 0 0
89 1 12.605113344698264 2.292833614310347 3.522165641764743 0 0 0
3760 1 14.774416442724439 1.4231015049426596 4.925378352424167 0 1 1
2539 1 17.1972274973541 1.4220321124103785 3.2398203917582307 0 1 0
305 1 19.659343864027004 0.9405406166506758 3.490264404905722 0 0 0
558 1 25.731290486150794 0.8389430764155388 3.939963147617899 0 0 0
185 1 28.407351831340122 1.3163349612224833 4.724682904595341 0 0 0
293 1 33.07257078987817 -0.098355315297739 5.8510019038879175 0 0 0
2423 1 34.5717697783015 1.610792127671425 4.248928182610707 0 1 0
525 1 36.939128121327194 1.1087308120573713 5.749724550019463 0 0 0
193 1 0.8169106879891002 5.604420955248998 2.55130561315569 0 0 0
451 1 0.6082837191857955 3.282377666452825 4.137467337887721 1 0 0
2037 1 5.032914618792726 2.2220278083614677 3.8821199818591987 1 0 1
486 1 11.327895199921246 4.10066084453845 5.145254393612718 0 0 0
540 1 16.33928746533592 5.350980357600091 4.9352110436493755 0 0 0
265 1 21.702823711577988 3.002945559882664 3.607010845282816 0 0 0
576 1 20.64230225374572 5.632694090719675 3.0916468116317803 0 0 0
677 1 24.377737651580887 3.3406197993511277 3.260126095147194 0 0 0
479 1 25.417640708928346 5.359423445084241 4.438369610220734 0 0 0
586 1 28.22830212994308 5.386635889854859 4.56898442362767 0 0 0
121 1 33.75780047853288 4.11046274423771 4.7516464213267 0 0 0
3860 1 39.213872742044515 2.8155735704950997 5.724609251205143 0 1 1
654 1 39.21103232768115 3.2795313215136632 2.847835422009961 0 0 0
535 1 43.68348313069597 2.8879028063129173 5.179630368281721 0 0 0
425 1 42.99747861632296 5.315714466944677 4.546666344164571 0 0 0
2568 1 47.670310985154806 4.73202963534863 5.491563277011666 0 1 0
123 1 -0.1969669184528512 8.187996578376596 2.892048768890609 1 0 0
312 1 3.424313295764307 6.507125967688321 2.8394472207131365 1 0 0
134 1 7.408084185484 6.033112039583661 3.2570745908464436 0 0 0
1597 1 11.394910254646708 7.872989568169681 3.376445722583341 0 0 1
286 1 12.084257008161863 6.670482409351878 5.551680099277031 0 0 0
495 1 14.703038358329074 7.181192180851947 6.301412694726039 0 0 0
354 1 19.08926946427175 6.040966560447085 5.24846831562686 0 0 0
2174 1 22.237299890044007 7.9420170603552265 2.6296821192691047 0 1 0
319 1 29.65894428462674 8.02318147875494 4.6573124140914794 0 0 0
1463 1 35.53718256910222 6.031066134793273 4.1743296717400895 0 0 1
337 1 37.6803766129158 6.5635229874731165 5.667729813480732 0 0 0
545 1 39.49219717135612 8.213561352636624 4.199808742703429 0 0 0
2082 1 45.0004991904147 6.930289538260312 4.119287016528879 0 0 1
73 1 50.29260199509999 8.149778401765074 5.335966964674769 0 0 0
289 1 1.6341807372552584 10.375097202547867 2.910761407897183 0 0 0
1487 1 2.5042000587977 10.996594037125659 5.356487642836544 1 0 1
55 1 5.494633904218146 10.624588225254028 5.284051385923554 0 0 0
595 1 10.651100282957989 10.863937269535754 2.766086734649873 0 0 0
421 1 10.661686252750057 11.247003139597933 5.629104139598283 0 0 0
493 1 13.422193944979057 11.738276983015759 6.044341174081224 0 0 0
107 1 14.878689820524492 9.448977859107105 5.157738389718188 0 0 0
516 1 17.67165785319073 10.181146023887067 4.487029484650644 0 0 0
306 1 22.474806477204723 9.36272624454442 4.994415854594189 0 0 0
338 1 24.06056460146202 11.017699781590593 3.408061209164277 0 0 0
424 1 26.144528923912116 9.19081402204042 3.3033333731631576 0 0 0
461 1 27.2312827588809 9.127149122069898 5.71378759876625 0 0 0
2368 1 27.34601908327413 11.973057055109486 6.132728147274811 0 1 0
296 1 31.95853267234969 9.552680984204933 5.184955534641589 0 0 0
300 1 34.29046556842813 8.607410374047069 4.029041996800078 0 0 0
339 1 35.86899938759191 10.576735350194713 5.0716720055703215 0 0 0
294 1 38.017040599105165 10.407261318337994 3.2564963452202518 0 0 0
489 1 44.13789648553227 11.4376931413604 3.99119435152296 0 0 0
577 1 42.52956702852305 11.317466999139093 6.282468999081045 0 0 0
420 1 46.85309369737099 11.649904838485753 4.311683703869832 0 0 0
366 1 -0.4778537899455704 14.703490444227278 3.9596585313868893 1 0 0
415 1 1.700570658601423 13.675921314259176 5.317294813205738 0 0 0
33 1 4.256793374594818 14.772030954929587 4.7922459382200415 0 0 0
651 1 7.90353607983886 14.244566023445167 4.011823239698475 0 0 0
607 1 5.9753450330545546 13.110065017093348 6.000474918654063 0 0 0
476 1 10.118292899580592 13.97769028033178 5.371080055776809 0 0 0
465 1 15.17412751783539 13.401833372108296 4.298469763662782 0 0 0
554 1 17.652653987801504 12.980058844945466 5.1664808679672705 0 0 0
1783 1 19.693141800910727 14.760363577910715 3.5353029276603953 0 0 1
115 1 24.64774289165214 12.714701757960622 5.42398223604902 0 0 0
423 1 24.38265837050224 15.297012301824225 4.440151145429296 0 0 0
593 1 28.54557857661253 12.42084956247261 3.843442712057831 0 0 0
34 1 31.008913644523542 11.859927399086047 3.878377719059081 0 0 0
646 1 31.488287689605585 14.700810113014805 2.4576654932610333 0 0 0
291 1 34.378795890039314 12.977039293627925 5.252748247178413 0 0 0
504 1 39.2705706643804 13.122912426705303 3.6218672208073057 0 0 0
313 1 40.95281412142273 13.609983352716414 5.873205619051027 0 0 0
2293 1 42.93456265008496 15.203437280899255 5.971825614388053 0 0 0
637 1 46.83140300609676 14.373785357460376 4.777888393776641 0 0 0
311 1 5.172452220301575 17.446182826320932 5.524541877842638 0 0 0
136 1 7.533681774978293 17.0066108718437 3.884820451144682 0 0 0
642 1 10.297646634893923 18.01533870550343 4.298894281449057 0 0 0
36 1 11.582180883949373 15.606018866121044 3.79102536836369 0 0 0
656 1 14.28217398992825 16.140874685173234 4.636102087309314 0 0 0
1773 1 15.523794444132893 17.10853295668104 2.5973967184193927 0 0 1
1761 1 18.36801406467278 17.032395558041113 2.5558856594445993 0 0 1
317 1 21.73141742401902 15.813915550876636 5.183819490261061 0 0 0
1877 1 21.210765639167896 18.40007894085404 4.844845835830761 0 0 1
230 1 25.8541234392953 17.213681507572367 5.952055406108366 0 0 0
383 1 29.40068032330708 17.488615105784813 3.036183601441955 0 0 0
11 1 30.227279102852265 16.10808434223147 5.50222520729789 0 0 0
175 1 34.372004280321526 17.335040174876006 5.202062164846345 0 0 0
1478 1 37.42755720489964 15.218649804474149 3.219849140338658 0 0 1
364 1 35.833446387680425 15.183235621766434 5.694782833810251 0 0 0
666 1 43.430851920591444 15.681189446943574 3.3013754261356913 0 0 0
1820 1 46.2318425193478 16.478464952664588 3.0588856104511075 0 0 1
388 1 49.104251852852315 15.658153992700719 5.906187580778455 0 0 0
340 1 49.104486605630086 18.35368713485496 5.982978942400391 -1 0 0
31 1 3.751723864790132 19.599186366872743 4.866726222905562 0 0 0
647 1 10.62420694376647 19.9480309554753 2.2549780079520696 0 0 0
2453 1 12.858593989845243 20.55376536860415 3.934751683672962 0 0 0
709 1 15.106939330655951 20.07444579553136 2.7083822965349404 0 0 0
2490 1 17.412177972681658 21.169043395999534 4.11140841138896 0 0 0
454 1 18.62768561197469 18.81369791185911 4.623903815038581 0 0 0
1430 1 23.81533315939541 21.11727842725475 3.034437268796781 0 0 1
512 1 27.512938634106856 18.981799802826405 4.517238533468854 0 0 0
419 1 31.319838879257702 21.48064214411691 3.7951728953895687 0 0 0
361 1 33.939926084844316 22.02563061179571 3.0271829876571608 0 0 0
538 1 35.766145525077825 19.94147866751772 4.219398285209746 0 0 0
675 1 36.295438962643324 21.182335849706483 6.43922352988187 0 0 0
505 1 40.3839464304911 18.934851311340644 4.729959796028344 0 0 0
218 1 38.6245391073576 21.779848332085567 2.808496782815297 0 0 0
463 1 41.053311153705366 21.44755232880294 3.976160026029114 0 0 0
2672 1 44.816238382941584 18.652641789702844 4.215243744788887 0 0 0
1968 1 47.82131062219655 19.322766453888487 3.7437789625235505 0 0 1
2167 1 0.46459916080221597 21.904280461977123 5.335390911424209 0 0 0
2188 1 5.8815046481720525 21.45547788759266 4.198886667143622 0 0 0
622 1 5.309548507139085 23.447495216828827 5.843821608541585 0 0 0
331 1 8.540634836278265 21.53953236891161 2.6834355857278367 0 0 0
1699 1 9.166967046266313 23.62526938943723 4.362839610257731 0 0 1
2261 1 12.193752345460208 23.270811948941862 4.0066603504826 0 0 0
2740 1 17.415686140401636 22.958380421597088 6.166295747714968 0 0 0
2318 1 45.39700229295238 -0.33958277673481324 13.005430786610653 0 1 0
636 1 33.3839025792677 6.521041690404092 14.597953208763403 0 0 0
10 1 35.19547779151987 19.476823868771408 -0.2992958283424529 0 0 0
2185 1 44.49135543672992 24.692207095834338 13.360366722910136 0 0 0
2334 1 29.978447703583686 23.62158333615364 2.8108107640369573 0 0 0
418 1 34.86650755157532 24.548952792791795 3.7212458606638563 0 0 0
261 1 37.27850327770173 23.58908684023858 4.859357910813648 0 0 0
41 1 2.6093652018933047 24.597210639885315 11.568664531835367 0 0 0
520 1 47.23102101980462 21.890523513833674 5.012237716067887 -1 0 0
2056 1 49.58053665293979 23.34501793497679 5.8050457142551215 0 0 1
2113 1 43.35360628922275 22.615937096468617 15.09156487981478 0 0 0
45 1 6.04668105433957 -0.42757679697228845 7.605774435524598 0 0 0
2486 1 5.817231370067645 0.7380346147653876 10.021344436681094 0 1 0
22 1 8.267106707390532 0.32401568669310854 6.342974812942263 0 0 0
373 1 11.730411284050676 -0.21929665402048748 9.999691736849453 0 0 0
179 1 19.65590478161636 0.3809836510677842 6.320449164714816 0 0 0
396 1 22.602086808087375 0.5851442012327632 7.427535598720443 0 0 0
404 1 26.120093389465943 1.7244514329572675 7.978409567678302 0 0 0
822 1 -0.4462578683386245 14.582062833014446 16.144452031248008 0 0 0
585 1 28.85798557181356 2.079538021419676 7.2481594220122885 0 0 0
2634 1 30.19715314352873 0.545640538944022 9.428358380625223 0 1 0
433 1 32.78910923820505 0.43064576572859536 8.508370470193487 0 0 0
166 1 36.65063518063468 -0.6888315896274406 8.171454521271432 0 0 0
652 1 41.581214522554866 1.7662286756360062 6.787535506929218 0 0 0
699 1 41.04578500246636 2.410183485569377 9.382785396921536 0 0 0
131 1 45.154812279824476 0.15643221664243112 8.940512334022305 0 0 0
502 1 46.868707991117404 0.7940092426809413 6.863660533043874 -1 0 0
394 1 49.53363750333992 0.9698065071612836 7.275503835350699 0 0 0
150 1 2.3683437560683838 3.3483234527435224 8.411052293168263 0 0 0
211 1 2.769504304206169 3.6049593280738357 5.708035128604855 0 0 0
221 1 8.269666533559752 5.14352548831479 7.787243638396994 0 0 0
61 1 9.83421634229085 2.74131523366443 7.321785442894441 0 0 0
572 1 11.754154546453766 2.3479982147285505 9.514178914297453 0 0 0
530 1 14.33256379951811 3.211569656105566 8.770667611626878 0 0 0
251 1 15.885225969039311 3.1718387422774326 6.6384421524233135 0 0 0
2768 1 18.501053618767635 2.620723868245839 7.685583106204829 0 1 0
599 1 20.29553549498455 4.70482292625392 7.0859237317020165 0 0 0
444 1 22.3978864675671 3.1966798501890206 6.519457496947623 0 0 0
470 1 25.061763220440124 4.0144463911910755 6.765744564252855 0 0 0
2750 1 29.668299052094024 4.708540116250044 7.022327776874716 0 1 0
410 1 32.68791043961113 4.966997029614672 7.09767489450065 0 0 0
435 1 33.57413771030332 3.121420292353976 8.553015354599568 0 0 0
140 1 38.23207655651418 4.529141926736481 7.575197422165699 0 0 0
438 1 36.50418722875946 2.345133058407559 8.576241713087878 0 0 0
224 1 40.805893719470745 5.256575026805506 9.151291572272328 0 0 0
47 1 44.99756245102622 4.348165409265265 9.373553231506841 0 0 0
446 1 45.956684210746566 3.166763536657523 6.8732421712900615 -1 0 0
330 1 50.05102555511787 3.303118873658577 5.990928447307558 -1 0 0
665 1 1.2096577030376408 5.769484526314044 8.849673541070008 1 0 0
219 1 3.7694191193478 6.162719160868918 5.755248983241877 0 0 0
575 1 2.8530767048506647 7.59059397235049 7.854444489324321 1 0 0
687 1 6.53945761970793 6.327506956149836 5.924604679450623 0 0 0
466 1 10.636849404005462 6.936954691800559 7.833415145735049 0 0 0
440 1 15.288806431938653 7.667190103648148 8.93900584024418 0 0 0
109 1 19.820330841161617 8.631049866809139 5.464712423517299 0 0 0
491 1 24.744541453951634 7.612352811930753 6.288525490939768 0 0 0
810 1 26.185540170780783 4.882587975884821 9.128517009428078 0 0 0
1271 1 28.73826257921232 5.938170018037369 9.269601009327811 0 0 0
391 1 33.16518295690185 6.880164385224113 8.890349155548314 0 0 0
1152 1 36.06954867363138 6.992753283519815 7.993326611408914 0 0 0
346 1 42.05009691441487 6.384094137017018 6.837550737059082 0 0 0
475 1 44.18406472897482 6.7476502531694855 8.361757266150665 0 0 0
594 1 46.27206278796193 7.369998311519199 6.450934081533885 0 0 0
395 1 48.132311347760336 6.701267290744031 8.613977255754909 0 0 0
167 1 50.347881789719004 6.053263119430802 7.167453563184036 -1 0 0
187 1 0.9003911802848723 9.418436874181628 6.996657878606877 1 0 0
494 1 -0.026492829217547698 10.657151652062144 9.189770505038364 0 0 0
409 1 4.899732073591125 8.879353263624918 9.20094766268582 0 0 0
447 1 6.705179941186859 8.748610379025084 7.015857953520929 0 0 0
62 1 9.189261099078626 9.482488045255618 7.620957831994701 0 0 0
439 1 13.701882030738146 12.049553791962936 8.812582412959635 0 0 0
57 1 16.278590918487374 12.059269477007929 9.51876307648914 0 0 0
350 1 19.63586280507418 9.598376481529712 8.378689731608697 0 0 0
524 1 20.886257294936915 12.083928512059497 8.702451051573867 0 0 0
258 1 23.72379963577901 8.791210917084184 8.939038492810456 0 0 0
625 1 28.788265716310015 8.55763459516861 8.152994895663387 0 0 0
225 1 31.437916680535274 8.8947146081867 7.840211608811844 0 0 0
266 1 36.910141565525954 9.876091231968047 7.508211881676781 0 0 0
490 1 40.83940695789307 9.041741412372295 6.38007782263445 0 0 0
645 1 39.710403082250224 10.187860132306177 8.322250030507357 0 0 0
122 1 44.399314474180215 12.087655127547489 7.985788241186954 0 0 0
515 1 45.750236624138395 9.905793321933237 8.246111142867317 0 0 0
1061 1 48.150436809283164 9.7620249864063 6.068589522850722 0 0 0
222 1 1.306672279212144 14.378061088886213 7.8112173692810245 1 0 0
301 1 6.1276597919451605 13.685139998560572 8.579975328684094 0 0 0
615 1 8.86198774650312 13.221714774323772 9.25999667564743 0 0 0
302 1 10.500255998707487 14.867675977481113 8.04783785089437 0 0 0
706 1 12.706787544496505 14.311148442319192 9.736752128048918 0 0 0
239 1 18.289844251409445 13.247072880940205 8.034367044881854 0 0 0
413 1 23.367529987659346 11.128563516532296 7.496737615575732 0 0 0
49 1 20.86553102695659 15.075173011855581 7.749524263215131 0 0 0
85 1 24.72792674378606 13.050108087328269 9.44104810688238 0 0 0
384 1 27.207853162565296 13.588897152042648 8.43402578281547 0 0 0
283 1 31.623194296758093 13.66510088288377 5.596079461880555 0 0 0
303 1 31.93377249601145 13.311390614878402 8.650076719066373 0 0 0
688 1 37.40260025931148 14.955577952300136 7.971074403141962 0 0 0
126 1 39.48533612965318 12.972137057181898 8.028919783932313 0 0 0
471 1 45.494173965705635 14.582005314607626 7.287308077347127 0 0 0
323 1 49.185023534818534 11.847212497051355 8.074516672147013 -1 0 0
519 1 50.121321429407736 14.76158822597898 8.290919316726455 0 0 0
648 1 2.5475815487572957 16.610014952269967 8.780750725901417 0 0 0
657 1 5.337427792852497 16.2928146390566 9.104653849825151 0 0 0
263 1 6.783167437333929 18.324976618168005 7.686010950901851 0 0 0
142 1 9.285897256151324 17.429453444520476 8.339038987922445 0 0 0
352 1 14.740258682470706 17.746016322434837 6.868809480744327 0 0 0
79 1 14.581070894415342 16.57342879452038 9.324665704680536 0 0 0
276 1 19.40892073971374 17.03134374965816 8.94781246944663 0 0 0
153 1 23.275977174270896 15.560339958353179 8.990470316101417 0 0 0
483 1 24.11914330506986 18.30021991594676 7.946477315588936 0 0 0
916 1 28.173125172165317 16.05214454036793 7.302534202755348 0 0 0
529 1 28.274457718681468 18.564734360844387 8.773630555973792 0 0 0
2451 1 32.063533743919955 17.745531802522546 6.800768026352119 0 0 0
611 1 32.94074834261917 17.536008706639027 9.383511890635909 0 0 0
162 1 38.63427970416367 17.43931758996163 8.407882075970514 0 0 0
137 1 41.64426431747829 17.525932909687636 6.789437139773241 0 0 0
2749 1 43.77930427928602 18.100896581857718 9.567986882305382 0 0 0
65 1 46.01190120646803 16.628923261313496 9.068128817553916 0 0 0
275 1 47.31770720842472 18.693483374441378 8.093996069289007 0 0 0
81 1 0.012165061593304327 19.793280750336045 7.04223313685128 0 0 0
457 1 -0.4904641445500617 21.465124496999803 9.333368294308597 0 0 0
189 1 2.748333077211829 19.17985675525657 7.4491393297290625 0 0 0
1159 1 10.331367883667628 19.296205402176472 6.743260488625236 0 0 0
333 1 12.994266399502864 19.821926546326836 6.588034453508313 0 0 0
2709 1 17.596442977554045 18.598406452127087 7.126771654113493 0 0 0
2322 1 18.228360337231706 21.350276138563544 8.309627782832422 0 0 0
448 1 22.35120164229403 20.031274615763795 6.73459755361158 0 0 0
2504 1 21.025964072737942 21.28721225955802 8.952696395333927 0 0 0
829 1 24.02771394828962 21.74679980515781 5.672342748118911 0 0 0
501 1 28.511302539730906 20.124075035419445 6.623732351254997 0 0 0
2118 1 31.14271985832632 20.444022346146166 6.322324351241439 0 0 0
192 1 32.04546195845002 21.89277034228586 8.143528211910024 0 0 0
2217 1 34.602546856928065 21.41404741125915 8.588965499510817 0 0 0
2489 1 38.6919662829826 19.522950058729993 6.84265811099651 0 0 0
309 1 40.09479515470492 21.71299956659109 8.471735584791741 -1 0 0
209 1 43.928745541778945 19.415290318677236 6.993232850873052 -1 0 0
562 1 46.0982712820162 21.4843508931325 7.580353872630926 0 0 0
2260 1 2.150305515691419 22.2725077935044 9.506366497993044 0 0 0
240 1 2.7276212344431494 22.47796169872262 6.715915482884333 0 0 0
2541 1 7.278791296866764 23.00709917410793 7.680695690424626 0 0 0
170 1 9.506514053969342 22.012168780478753 6.712651471445195 0 0 0
15 1 13.245723600007194 21.67418691896522 8.697139333700532 0 0 0
1815 1 11.56966060771774 23.385001328846595 7.765560736387224 0 0 1
2338 1 22.494726742852702 23.59483673412557 7.414582395968456 0 0 0
903 1 1.682185879899468 16.155286222344138 15.981833879544979 0 0 0
1696 1 26.450305214277655 21.816331009047133 7.067968479506744 0 0 1
680 1 19.470193709852264 9.95565444583389 16.26397649941506 0 0 0
2319 1 39.64840771857671 24.42397554248906 13.790664890950643 0 0 0
214 1 38.93003068790424 23.887265300346343 7.010237790124875 -1 0 0
2699 1 42.09604586560929 21.792299016253654 6.458660015641327 0 0 0
2697 1 49.66916210585852 23.80951295929409 8.504885833865627 -1 0 0
18 1 0.6466788332492102 1.3953590340183943 9.676618168987428 0 0 0
375 1 0.9636061900845805 1.6632367128654688 12.662005943843436 0 0 0
245 1 7.577937908714311 0.7251364806624097 11.969853984295654 0 0 0
5 1 15.58815799419315 1.330865159843873 10.698505779580298 0 0 0
2183 1 19.527227154648184 0.14042200685533135 11.901133560775827 0 1 0
630 1 18.22005742343206 2.1959653831515893 10.284889740705758 0 0 0
3650 1 22.063377046674344 1.4311755500617651 12.173589606439661 0 1 1
2131 1 23.563908110382734 0.2691273732707673 10.050120408219687 0 1 0
1245 1 25.6809462445981 2.3860224448707728 10.726365760156078 0 0 0
953 1 27.765928630575658 1.8762956962148265 12.487409027677385 0 0 0
163 1 30.6175046824278 2.1698130041083674 11.808398893457712 0 0 0
1298 1 35.40661255538176 1.8445690633943 11.923694557862417 0 0 0
875 1 34.66833978862405 -0.11495901204018866 10.28601760546501 0 0 0
94 1 37.812281361947875 3.086748383444261 11.489203043331184 0 0 0
2365 1 39.519815282270976 0.8857477467297632 10.743003440704998 0 1 0
2653 1 40.967228538718686 0.2753585488349848 12.658124204979496 0 1 0
35 1 43.543536912803326 2.132469992753319 10.433850429989835 0 0 0
539 1 47.28758557381765 0.09402455271227539 10.85856842536669 0 0 0
401 1 49.271997317778975 2.344758576940999 9.964018111172381 0 0 0
232 1 49.81186118776877 2.387348915969483 12.84251983935381 0 0 0
627 1 4.793129511130765 3.268851378334351 9.963971702931765 0 0 0
477 1 7.120619464670175 5.038919532075604 10.38747472026426 0 0 0
12 1 8.25080707577484 3.5220634307624596 12.315958594217934 0 0 0
3 1 11.001865309152347 3.682621100591029 11.764109087208269 0 0 0
100 1 15.545349708437833 5.239448721474091 10.300482651196596 0 0 0
173 1 18.17080505355147 4.803933070373706 11.183259108844581 0 0 0
2162 1 22.490509262421767 4.183648502642332 11.443349541121089 0 1 0
97 1 20.561729773638373 5.616527230959414 9.757779330947136 0 0 0
588 1 24.888265710053446 5.358337337672523 11.727431269953778 0 0 0
482 1 33.075983468120214 3.427513064256609 11.109955976075096 0 0 0
428 1 43.27039133386766 4.01289671636469 12.545561126895036 0 0 0
472 1 42.787711551860625 6.42514887301001 11.628176713957517 0 0 0