
# Create simulation box of size 50 x 50 x 50 Angstrom
#
lattice	            sc 1
Lattice spacing in x,y,z = 1.0000000 1.0000000 1.0000000
region 	            all block 0 50 0 50 0 50 units box
create_box          1 all
Created orthogonal box = (0.0000000 0.0000000 0.0000000) to (50.000000 50.000000 50.000000)
  1 by 2 by 3 MPI processor grid

# fill box with 4175 randomly distributed atoms
#
create_atoms        1 random 4175 63782 all
Created 4175 atoms
  create_atoms CPU = 0.001 seconds
mass                1 18.015

# Define potential
#
pair_style          sw
pair_coeff          * * ML_mW.sw mW
Reading sw potential file ML_mW.sw with DATE: 2019-02-27

# Run minimization
#
minimize            1.0e-8 1.0e-8 10000 1000
WARNING: Using 'neigh_modify every 1 delay 0 check yes' setting during minimization (../min.cpp:187)
Neighbor list info ...
  update every 1 steps, delay 0 steps, check yes
  max neighbors/atom: 2000, page size: 100000
  master list distance cutoff = 6.0032907
  ghost atom cutoff = 6.0032907
  binsize = 3.0016454, bins = 17 17 17
  1 neighbor lists, perpetual/occasional/extra = 1 0 0
  (1) pair sw, perpetual
      attributes: full, newton on
      pair build: full/bin/atomonly
      stencil: full/bin/3d
      bin: standard
Per MPI rank memory allocation (min/avg/max) = 4.255 | 4.258 | 4.261 Mbytes
Step Temp E_pair E_mol TotEng Press 
       0            0    7792709.3            0    7792709.3    5898794.3 
     630            0   -45180.336            0   -45180.336   -154.07449 
Loop time of 1.14014 on 6 procs for 630 steps with 4175 atoms

98.9% CPU use with 6 MPI tasks x no OpenMP threads

Minimization stats:
  Stopping criterion = max force evaluations
  Energy initial, next-to-last, final = 
      7792709.32924461  -45180.0188663597   -45180.336116598
  Force two-norm initial, final = 2.0191930e+08 4.9721331
  Force max component initial, final = 1.0948746e+08 0.73126211
  Final line search alpha, max atom move = 0.053306038 0.038980685
  Iterations, force evaluations = 630 1000

MPI task timing breakdown:
Section |  min time  |  avg time  |  max time  |%varavg| %total
---------------------------------------------------------------
Pair    | 0.87832    | 0.97995    | 1.0589     |   5.9 | 85.95
Neigh   | 0.024107   | 0.024623   | 0.025161   |   0.2 |  2.16
Comm    | 0.036355   | 0.11548    | 0.21813    |  17.2 | 10.13
Output  | 0          | 0          | 0          |   0.0 |  0.00
Modify  | 0          | 0          | 0          |   0.0 |  0.00
Other   |            | 0.02009    |            |       |  1.76

Nlocal:        695.833 ave         704 max         685 min
Histogram: 1 1 0 0 1 0 0 1 0 2
Nghost:        1494.17 ave        1515 max        1468 min
Histogram: 1 1 0 0 0 0 1 1 1 1
Neighs:        0.00000 ave           0 max           0 min
Histogram: 6 0 0 0 0 0 0 0 0 0
FullNghs:      19997.0 ave       20462 max       19320 min
Histogram: 1 1 0 0 0 0 0 2 0 2

Total # of neighbors = 119982
Ave neighs/atom = 28.738204
Neighbor list builds = 26
Dangerous builds = 0

# Add velocity/set timestep
#
velocity            all create ${TEMP} 120598 rot yes dist gaussian
velocity            all create 210 120598 rot yes dist gaussian
timestep            5.0

# Define output
#
compute	            1 all msd
thermo	            100
thermo_style        custom step temp press vol etotal ke pe c_1[4] density

# Neighbor lists
#
neigh_modify        delay 0 every 1 check yes

# Set fixes
#
fix                 1 all momentum 10 linear 1 1 1 rescale
fix                 2 all nve
fix                 3 all temp/csvr ${TEMP} ${TEMP} 500.0 928347
fix                 3 all temp/csvr 210 ${TEMP} 500.0 928347
fix                 3 all temp/csvr 210 210 500.0 928347
fix                 4 all press/berendsen iso ${PRES} ${PRES} 1000.0 modulus 20000
fix                 4 all press/berendsen iso -600 ${PRES} 1000.0 modulus 20000
fix                 4 all press/berendsen iso -600 -600 1000.0 modulus 20000

# Run 0.5 ns equilibration
#
dump                1 all custom 1000 eq.${NAME}.dump id type x y z vx vy vz
dump                1 all custom 1000 eq.liquid_density_MLmW.dump id type x y z vx vy vz
run                 100000
Per MPI rank memory allocation (min/avg/max) = 3.506 | 3.508 | 3.511 Mbytes
Step Temp Press Volume TotEng KinEng PotEng c_1[4] Density 
     630          210    801.42152       125000   -42567.537    2612.7992   -45180.336 2.7295415e-33   0.99914793 
     700    134.16926   -459.56962    125998.95   -41759.973    1669.3207   -43429.294   0.24461735   0.99122647 
     800    163.45053    -740.8964    126331.58   -41026.993    2033.6354   -43060.628   0.55689403   0.98861659 
     900    183.51588   -309.79958    126358.41   -40615.262    2283.2865   -42898.548   0.91498889   0.98840664 
    1000    196.82552   -624.22659    126552.34   -40356.708    2448.8837   -42805.591    1.3094679   0.98689197 
    1100    201.64291   -514.26927    126618.64   -40189.506    2508.8212   -42698.328    1.6493273   0.98637521 
    1200    202.60957   -595.37714    126861.16   -40214.622    2520.8482    -42735.47    2.0145776   0.98448959 
    1300    207.46518   -392.93107    127100.19    -40206.37    2581.2613   -42787.631    2.3663815   0.98263814 
    1400    205.11208   -563.69744    127491.44   -40219.231    2551.9842   -42771.215    2.6872512   0.97962256 
    1500    205.49072   -504.00693    127770.97   -40182.977    2556.6952   -42739.672    2.9564611   0.97747942 
    1600    213.27843   -558.19178    127984.59    -40104.65    2653.5891   -42758.239    3.2466306   0.97584788 
    1700    209.26543   -572.37849    128230.63    -40157.67    2603.6597    -42761.33     3.528738    0.9739755 
    1800    210.04722   -602.79678    128346.47   -40246.482    2613.3868   -42859.869    3.8081766    0.9730964 
    1900    210.05028   -511.75046    128435.34   -40266.113    2613.4249   -42879.537    4.1442831   0.97242306 
    2000    212.19831   -581.04314     128587.9   -40232.975    2640.1504   -42873.125    4.3228751   0.97126941 
    2100    215.54025   -496.88518    129044.42   -40204.792    2681.7305   -42886.522    4.6401436   0.96783335 
    2200    216.21927   -527.47086    129123.77   -40249.243    2690.1788   -42939.422     4.851663   0.96723858 
    2300    212.70572    -534.9006    129143.53   -40267.558    2646.4636   -42914.022    5.0993079   0.96709059 
    2400    213.67339   -601.81202     129189.7   -40305.846    2658.5033   -42964.349    5.4028882   0.96674496 
    2500    211.79677   -622.51017    129259.21   -40287.554    2635.1545   -42922.709    5.5814304   0.96622511 
    2600    216.15649   -562.62841    129519.69   -40254.649    2689.3977   -42944.047    5.7921282   0.96428188 
    2700     217.7525   -858.14885    129389.04   -40304.667    2709.2551   -43013.922    5.9901784   0.96525557 
    2800    215.39092   -685.55047    129246.42   -40319.534    2679.8725   -42999.407    6.2344015   0.96632073 
    2900    214.94843   -518.30136    129218.72   -40395.635    2674.3672   -43070.002    6.5851039   0.96652786 
    3000    214.16076   -578.68252    129381.25    -40444.02     2664.567   -43108.587    6.6412583   0.96531365 
    3100    216.58075   -515.56682    129553.44   -40426.233    2694.6763   -43120.909    6.8332143   0.96403069 
    3200    214.36851   -377.06406    129690.07   -40492.907    2667.1518   -43160.058    7.0613042   0.96301508 
    3300    209.94858   -644.81546    129749.48   -40486.902    2612.1594   -43099.061    7.1132943   0.96257411 
    3400     211.5203   -493.44735    129865.61   -40530.129    2631.7146   -43161.844    7.3408917   0.96171333 
    3500    212.29253   -561.91622    130045.36   -40568.415    2641.3227   -43209.738    7.4984276   0.96038405 
    3600    213.20144   -614.98367    130003.25     -40609.3    2652.6313   -43261.931    7.5855004   0.96069515 
    3700    206.14293   -351.78578    129807.68   -40682.075      2564.81   -43246.885    7.7040873   0.96214251 
    3800    211.04563   -544.58975    130023.64   -40658.119    2625.8089   -43283.928    7.7342723   0.96054449 
    3900    210.96098   -606.25065    130228.04   -40706.346    2624.7556   -43331.102    7.9271485   0.95903685 
    4000    211.00623   -552.60588     130431.2    -40710.02    2625.3187   -43335.338    8.1625012   0.95754309 
    4100    206.69876   -727.83772    130346.59   -40703.203    2571.7255   -43274.928    8.2538693   0.95816464 
    4200    208.94702   -616.73006    130444.91   -40715.488    2599.6982   -43315.187    8.5419063   0.95744242 
    4300      207.589   -501.91745    130459.16   -40724.178    2582.8018    -43306.98    8.6022431   0.95733784 
    4400    210.67419   -432.28932    130463.59   -40728.252    2621.1874    -43349.44    8.5750887   0.95730536 
    4500     208.4823   -483.21011       130570   -40723.504    2593.9162    -43317.42    8.7950469   0.95652517 
    4600    209.31164   -557.92423    130752.08   -40778.947    2604.2348   -43383.182    9.0438331   0.95519316 
    4700    207.55931   -857.57573     130794.5     -40709.3    2582.4325   -43291.732    9.0715467   0.95488335 
    4800     209.3385   -625.22621    131111.46   -40791.518    2604.5689   -43396.087    9.2873472   0.95257491 
    4900    211.56605   -719.38274    130899.21   -40698.634    2632.2838   -43330.918    9.4235371   0.95411955 
    5000    212.85067   -563.09435    130828.18   -40667.913     2648.267    -43316.18    9.5139585    0.9546375 
    5100    210.57408   -522.50333    131004.07   -40745.118    2619.9419   -43365.059    9.7979853   0.95335584 
    5200    212.20962   -778.71509    130970.54   -40805.817    2640.2911   -43446.108    9.9368205   0.95359989 
    5300    213.41301   -525.28248    131086.47    -40775.16    2655.2636   -43430.424    10.025629    0.9527565 
    5400    209.18727   -659.59689    131033.72   -40820.884    2602.6873   -43423.571    10.074039   0.95314008 
    5500    209.25661   -476.72507    131236.41   -40838.331      2603.55   -43441.881    10.183756     0.951668 
    5600    210.79931   -722.41652    131302.55   -40860.193    2622.7442   -43482.937    10.287229   0.95118864 
    5700    212.85215   -643.76648    131283.75   -40877.819    2648.2854   -43526.105    10.400832   0.95132486 
    5800    207.44425    -635.2767    131326.32   -40918.337    2581.0009   -43499.338    10.444384   0.95101642 
    5900    209.42739   -591.12132     131339.3   -40936.492    2605.6749   -43542.167     10.51886   0.95092246 
    6000    207.14779    -556.6897    131390.64   -40943.401    2577.3123   -43520.714    10.712651   0.95055092 
    6100    208.11855   -585.43393    131613.48   -40893.209    2589.3904   -43482.599    10.918556    0.9489415 
    6200    209.80117   -760.74157     131427.4    -40970.64    2610.3255   -43580.966    10.997185   0.95028503 
    6300    209.09144   -709.23239    131621.28   -40938.508     2601.495   -43540.003     11.12938   0.94888522 
    6400     212.9012   -477.45777    131666.19   -40923.576    2648.8957   -43572.472    11.270844   0.94856161 
    6500    216.10504   -586.19756    131677.18   -40883.428    2688.7575   -43572.186    11.276998    0.9484824 
    6600    208.22128    -699.6739    131640.15   -40964.119    2590.6685   -43554.787    11.215957   0.94874926 
    6700    207.81909    -551.6048     131750.6   -41033.892    2585.6645   -43619.557     11.24547   0.94795386 
    6800    211.05662   -560.43352    131715.74   -40961.386    2625.9456   -43587.331    11.266654   0.94820477 
    6900    210.12496   -561.07572    131800.11   -40905.284    2614.3539   -43519.638    11.330489   0.94759777 
    7000    213.96082   -623.06538    131771.99   -40904.141    2662.0794   -43566.221    11.385056   0.94779999 
    7100    210.96084   -597.93872    131959.77   -40942.495    2624.7539   -43567.249    11.542468   0.94645125 
    7200    210.64713    -629.4166    132088.16   -40995.207    2620.8508   -43616.057    11.674236   0.94553131 
    7300    209.94326   -676.31166    132137.64   -41062.415    2612.0932   -43674.508    11.692583   0.94517727 
    7400    205.57583   -618.36244    132298.23   -41102.196    2557.7542    -43659.95    11.730786   0.94402994 
    7500    205.86594   -527.49073    132280.04   -41066.051    2561.3637   -43627.415    11.755636   0.94415976 
    7600    204.88023   -683.08743    132316.77   -41155.478    2549.0996   -43704.578    11.756094   0.94389768 
    7700    209.02905   -501.53394    132124.11   -41069.579    2600.7188   -43670.297    11.797978   0.94527404 
    7800    211.14501   -707.27162    132000.52   -41060.646    2627.0453   -43687.691    11.850858   0.94615905 
    7900    208.17031    -552.2237    132075.89   -41119.632    2590.0344   -43709.666    11.921769   0.94561913 
    8000    207.30605    -574.8265    132040.06   -41093.441    2579.2813   -43672.722    11.933519   0.94587577 
    8100    206.72606   -688.45223    131831.07   -41171.126    2572.0652   -43743.191    11.920299   0.94737526 
    8200    205.32985   -557.24673    131952.78   -41185.011    2554.6937   -43739.704    11.980862   0.94650143 
    8300    207.03293   -522.57624    132277.37   -41166.942    2575.8833   -43742.825    12.197137   0.94417881 
    8400    209.85589     -528.395     132405.5   -41125.283    2611.0063   -43736.289    12.314074   0.94326514 
    8500    210.72561   -459.95581    132391.49    -41070.82    2621.8272   -43692.647    12.474767   0.94336495 
    8600    209.22266   -510.48152    132678.58   -41097.979    2603.1276   -43701.107    12.570123   0.94132369 
    8700    211.02625   -635.27614    132758.53   -41090.315    2625.5677   -43715.883    12.578689    0.9407568 
    8800    210.15663   -603.36751    132729.69   -41128.737     2614.748   -43743.485    12.505016   0.94096121 
    8900    207.72998   -650.50528    132735.31   -41212.815    2584.5559   -43797.371    12.395465   0.94092137 
    9000    206.93658   -664.68895    132623.75   -41173.016    2574.6845   -43747.701    12.493452   0.94171289 
    9100    203.78022   -710.97264    132752.18   -41232.292    2535.4134   -43767.705    12.670392   0.94080183 
    9200    213.08296   -484.91615    132689.48   -41156.903    2651.1571    -43808.06    12.743052   0.94124637 
    9300    205.45496   -753.69998    132649.13    -41215.47    2556.2503    -43771.72    12.911528   0.94153265 
    9400    211.26072   -473.68194    132650.94   -41180.383     2628.485   -43808.868    12.935991   0.94151984 
    9500    211.54609   -592.17686    132928.74   -41189.627    2632.0356   -43821.663    12.944162   0.93955219 
    9600    213.73524   -723.13228    132728.47   -41179.472    2659.2727   -43838.744    12.853477   0.94096988 
    9700    209.39377   -508.62819    132713.92   -41131.567    2605.2566   -43736.824    12.969002   0.94107306 
    9800    210.03373   -587.51226    132815.25   -41204.405    2613.2189   -43817.624    13.107248   0.94035503 
    9900    203.06903   -390.09131    132943.17   -41284.604    2526.5648   -43811.169    13.116145   0.93945021 
   10000    209.39218   -571.07434    132965.55   -41294.189    2605.2368   -43899.426    13.248408   0.93929208 
   10100    209.40048   -761.94618    132981.62   -41276.218    2605.3401   -43881.558    13.235144    0.9391786 
   10200    208.49787   -636.02705    133092.92    -41320.55    2594.1099    -43914.66    13.250901   0.93839323 
   10300    208.57699   -642.31252    133014.27   -41321.826    2595.0943    -43916.92    13.321257   0.93894805 
   10400    209.66281   -649.58673    132956.45    -41271.23    2608.6039   -43879.834      13.3185   0.93935637 
   10500    208.66649   -598.15999    132882.27   -41245.782    2596.2079   -43841.989    13.324179   0.93988076 
   10600    213.78961   -466.54906    133020.36   -41185.506    2659.9491   -43845.455     13.41829   0.93890509 
   10700    212.62091   -594.68556     132999.5   -41175.937    2645.4084   -43821.345    13.626215   0.93905231 
   10800    217.22339   -695.52239     133095.9     -41161.8    2702.6719   -43864.472     13.77862   0.93837221 
   10900    210.61983   -612.50934    132890.04   -41198.447    2620.5111   -43818.958    13.743131   0.93982582 
   11000    214.34125   -701.01123    132823.24   -41205.031    2666.8126   -43871.843    13.678776   0.94029848 
   11100     209.1623     -727.463    132791.39   -41248.184    2602.3766   -43850.561    13.779273   0.94052404 
   11200    211.71264   -514.12803    132903.15   -41254.313    2634.1077    -43888.42    13.889581   0.93973309 
   11300    212.23671   -716.14841    133051.09   -41247.347    2640.6282   -43887.975    14.073693   0.93868822 
   11400    209.97842   -376.38628    133170.77   -41251.033    2612.5308   -43863.563    14.144428   0.93784463 
   11500    209.21901   -721.78938    133179.63   -41288.799    2603.0823   -43891.882    14.194365   0.93778226 
   11600    207.77645   -589.68933    133220.54   -41286.501     2585.134   -43871.635    14.298998   0.93749425 
   11700    212.84116   -411.84055    133089.85   -41198.494    2648.1486   -43846.643    14.244869   0.93841484 
   11800    207.71884   -648.83267    133266.79   -41265.675    2584.4173   -43850.092    14.248426   0.93716887 
   11900    206.31385   -608.07164    133210.88   -41288.381    2566.9366   -43855.318    14.229634   0.93756223 
   12000    208.70699    -578.9986    133153.75   -41286.689    2596.7118   -43883.401    14.266172   0.93796448 
   12100    210.88829   -680.34081    133264.01   -41244.236    2623.8513   -43868.087    14.351645   0.93718849 
   12200    210.93299   -505.43888    133396.35    -41257.37    2624.4074   -43881.778    14.477317    0.9362587 
   12300    210.13967     -537.842    133403.11   -41274.464     2614.537   -43889.001    14.456668   0.93621122 
   12400    210.28161   -591.12695    133540.88    -41260.77     2616.303   -43877.073     14.48731   0.93524538 
   12500    204.13854    -593.4275    133546.36   -41355.005    2539.8715   -43894.877    14.546084   0.93520701 
   12600    207.39531   -481.94422    133638.97   -41281.688     2580.392    -43862.08    14.759246    0.9345589 
   12700    211.58366   -574.25047     133683.5   -41263.344     2632.503   -43895.847    14.676891   0.93424761 
   12800    212.90191   -534.92406    133705.35   -41241.293    2648.9046   -43890.197    14.895098   0.93409497 
   12900    210.49444   -480.98809    133624.18   -41288.388     2618.951   -43907.339    14.954284   0.93466234 
   13000    212.00457   -654.95417    133782.68   -41225.013    2637.7399   -43862.753     15.03598     0.933555 
   13100    212.40699    -626.6891    133798.03   -41235.497    2642.7467   -43878.243    15.053884   0.93344787 
   13200     213.6224   -425.84183    133926.46   -41176.356    2657.8687   -43834.224    15.139806   0.93255277 
   13300    214.35731   -540.06137    133920.96   -41238.385    2667.0125   -43905.398    15.133448   0.93259109 
   13400    209.81355   -708.38137    133959.98   -41313.485    2610.4795   -43923.964    15.078551   0.93231943 
   13500     206.6792    -612.8128    133885.66    -41346.87    2571.4821   -43918.352    14.958862   0.93283692 
   13600    211.07359   -685.68757    133846.04   -41376.553    2626.1567    -44002.71    15.010017   0.93311308 
   13700    208.93842   -507.90382    133896.04   -41373.413    2599.5912   -43973.004    15.101969   0.93276466 
   13800    212.25329   -557.76875    133920.22   -41285.384    2640.8345   -43926.219    15.269098   0.93259619 
   13900    212.98814   -570.43431    133800.98   -41324.008    2649.9774   -43973.986    15.412148   0.93342732 
   14000    207.82272    -702.1547    133804.93   -41310.058    2585.7098   -43895.768    15.526609   0.93339979 
   14100    212.55373   -533.55022     133755.2   -41316.411    2644.5725   -43960.984    15.441807   0.93374678 
   14200    211.70504   -605.84326    133776.59   -41361.184    2634.0132   -43995.198    15.551252   0.93359754 
   14300    207.36964   -606.43156    133711.08   -41410.405    2580.0725   -43990.477    15.611899   0.93405493 
   14400    207.41116   -702.33199    133879.31   -41380.652    2580.5891   -43961.241    15.634832   0.93288123 
   14500    210.38417   -579.11986    133881.93   -41328.414     2617.579   -43945.993    15.733513   0.93286294 
   14600    211.92602   -614.18995    133908.59   -41333.881    2636.7626   -43970.644    15.846703   0.93267725 
   14700    208.95891   -783.49689    133860.54   -41374.463    2599.8461   -43974.309    15.934237   0.93301201 
   14800    208.85733   -629.87458     133855.6   -41419.357    2598.5823   -44017.939    16.009564   0.93304646 
   14900    204.44929   -587.35719    133714.66   -41489.387    2543.7379   -44033.125    15.828661   0.93402992 
   15000    205.37192   -588.86287    133739.36    -41490.85    2555.2172   -44046.067    15.807394   0.93385737 
   15100    202.37622   -636.27305    133739.94   -41505.239    2517.9449   -44023.184    15.775966   0.93385332 
   15200     210.4096    -484.9282    133999.29   -41436.874    2617.8954    -44054.77    15.925633    0.9320459 
   15300    207.98856    -768.8435    133983.18   -41441.768     2587.773   -44029.541    16.086126   0.93215798 
   15400    204.59026   -533.88937    133917.49    -41426.21    2545.4918   -43971.702    16.250977   0.93261526 
   15500    212.00824   -602.94595     133986.8   -41409.629    2637.7856   -44047.414    16.239636   0.93213281 
   15600    208.92904   -553.97811    134021.31   -41352.782    2599.4745   -43952.256    16.122274   0.93189279 
   15700    206.11721   -611.81233    133973.66   -41437.223    2564.4899   -44001.713    16.083961   0.93222422 
   15800    212.91374   -530.99779    133966.39   -41435.289    2649.0517    -44084.34     16.07987   0.93227483 
   15900    207.11959   -596.34717    134052.57    -41473.97    2576.9615   -44050.931    16.046695   0.93167545 
   16000    210.36086   -729.36456    134054.41   -41409.259     2617.289   -44026.548     16.09899   0.93166265 
   16100    210.31056   -744.67716    133966.07   -41357.784    2616.6631   -43974.447    16.233617   0.93227705 
   16200    209.60984   -738.20577    133723.08   -41410.362    2607.9449   -44018.307    16.265387   0.93397108 
   16300     208.1758   -715.08126    133790.54   -41427.978    2590.1028   -44018.081    16.345593    0.9335002 
   16400    214.85411   -575.02722    134013.72   -41333.782    2673.1936   -44006.976    16.538326   0.93194553 
   16500    214.25196   -609.41698    134031.11   -41332.406    2665.7017   -43998.108    16.527438   0.93182468 
   16600    211.44271   -625.30235    134116.17   -41313.646    2630.7493   -43944.396    16.517032   0.93123368 
   16700    210.16635   -587.44126    134328.73   -41352.826     2614.869   -43967.695    16.580225   0.92976007 
   16800     210.2406   -656.32528    134373.47   -41350.666    2615.7927   -43966.458    16.809509   0.92945052 
   16900    213.82914   -637.25892    134310.05   -41325.286    2660.4411   -43985.728    16.806018   0.92988941 
   17000    212.10558   -567.76422    134300.07   -41350.649    2638.9967   -43989.645    16.837898   0.92995851 
   17100    217.73547   -734.35275    134403.78   -41280.254    2709.0432   -43989.297    16.869836    0.9292409 
   17200     210.8019   -628.87135    134394.19   -41307.373    2622.7764   -43930.149    16.857664   0.92930722 
   17300     212.3764   -657.17284    134443.32   -41378.826    2642.3662   -44021.192    16.927436   0.92896762 
   17400    211.92899   -561.28767    134425.12   -41398.756    2636.7995   -44035.555    16.758467   0.92909338 
   17500    214.11165   -585.40363    134415.58   -41393.185     2663.956   -44057.141    16.843288   0.92915935 
   17600    211.44761   -522.78487    134515.93   -41368.886    2630.8103   -43999.697    16.940297   0.92846616 
   17700    207.28774   -631.53775    134440.05   -41393.814    2579.0535   -43972.867    16.986557   0.92899019 
   17800    211.02749   -546.73287    134447.86   -41407.227    2625.5831    -44032.81    16.975026   0.92893624 
   17900    213.68588   -729.68568    134617.86    -41373.38    2658.6586   -44032.039    17.056875   0.92776319 
   18000    212.78274   -608.28728    134442.88    -41337.88    2647.4219   -43985.301    17.055607   0.92897069 
   18100    209.30167   -555.61643    134428.06    -41428.24    2604.1107   -44032.351    16.997232   0.92907309 
   18200    209.84046   -629.42702    134290.53   -41436.748    2610.8143   -44047.563    16.875181   0.93002457 
   18300    212.80894   -571.86085    134319.17   -41352.247    2647.7477   -43999.995    17.080327   0.92982626 
   18400    206.57737   -652.63588    134333.47   -41410.978    2570.2153   -43981.193    17.144645   0.92972727 
   18500     212.9366   -444.56428    134321.45    -41373.56    2649.3361   -44022.896    17.194188   0.92981044 
   18600     208.9481   -595.58356    134203.26   -41425.878    2599.7116   -44025.589    16.978687   0.93062934 
   18700    213.39699   -558.11858    134209.84   -41384.632    2655.0642   -44039.696     17.21295   0.93058372 
   18800    206.27701   -566.92096    133940.55   -41352.348    2566.4781   -43918.826    17.280814   0.93245465 
   18900    211.19618   -587.45201    134111.66   -41388.695     2627.682   -44016.377     17.16577   0.93126498 
   19000    214.34239   -578.31422    134328.65   -41368.235    2666.8269   -44035.062    17.239284   0.92976067 
   19100    208.23074   -691.28433    134223.77   -41418.552    2590.7863   -44009.338     17.26199   0.93048713 
   19200     211.2084   -517.31876    134428.29   -41392.816     2627.834    -44020.65    17.357403   0.92907151 
   19300    217.72527   -669.57214    134754.98   -41341.631    2708.9163   -44050.547    17.411752   0.92681914 
   19400    212.93633   -706.22768    134621.85   -41367.121    2649.3328   -44016.454    17.447006   0.92773565 
   19500    211.16821   -577.14764    134587.72   -41377.107     2627.334   -44004.441    17.568287   0.92797089 
   19600    212.73396   -600.40958    134523.77   -41419.676     2646.815   -44066.491     17.57106   0.92841204 
   19700    214.49366   -464.64873    134541.23   -41408.552    2668.7089    -44077.26    17.629428    0.9282916 
   19800    212.17477   -544.68077    134579.44   -41444.789    2639.8575   -44084.646    17.683705   0.92802803 
   19900    214.55262   -506.82949    134581.72   -41448.236    2669.4425   -44117.679    17.700463    0.9280123 
   20000    207.70959   -673.90375    134532.14   -41503.975    2584.3022   -44088.277    17.730435   0.92835433 
   20100    212.12772   -574.07122    134534.83   -41467.214    2639.2721   -44106.486    17.807396   0.92833574 
   20200    211.15467   -679.95671    134664.07   -41503.246    2627.1656   -44130.411    17.859634   0.92744477 
   20300    204.58847   -655.76639    134699.71   -41543.939    2545.4695   -44089.408    17.973846   0.92719939 
   20400    208.64179   -603.68652    134728.35   -41539.171    2595.9005   -44135.071    18.005317   0.92700229 
   20500    207.30951   -634.52384    134842.56   -41512.511    2579.3244   -44091.835     18.02177   0.92621711 
   20600    206.97163   -550.24536    134914.39   -41534.498    2575.1205   -44109.618    18.064754   0.92572401 
   20700    208.57865   -679.34452    134810.33   -41476.813    2595.1149   -44071.928    18.051333   0.92643855 
   20800    211.26211   -665.52059    134821.89   -41482.795    2628.5023   -44111.297    17.928373   0.92635915 
   20900    211.18451   -543.57439    134860.66   -41519.912    2627.5368   -44147.449    17.958295    0.9260928 
   21000    203.62786   -680.06354    134652.64    -41605.56    2533.5177   -44139.078     17.89599    0.9275235 
   21100    202.91801   -509.77464    134548.37   -41614.227    2524.6858   -44138.913    18.110582   0.92824235 
   21200    210.26999   -663.22831    134773.59   -41587.984    2616.1584   -44204.142    18.051889   0.92669115 
   21300    209.21677    -660.1386    134782.61   -41600.336    2603.0543    -44203.39    18.176913    0.9266291 
   21400    205.03611   -613.06917    134863.07   -41570.875    2551.0391   -44121.915    18.355934   0.92607629 
   21500    208.38208   -568.88409    134804.77    -41577.74    2592.6693   -44170.409    18.241814   0.92647676 
   21600    210.39907   -757.55935    134766.23   -41521.449    2617.7644   -44139.213    18.095403   0.92674177 
   21700    207.87236   -591.99709    134785.74   -41491.738    2586.3274   -44078.065    18.289364   0.92660759 
   21800    212.56055   -593.89849    134797.48   -41486.276    2644.6574   -44130.933    18.280864   0.92652691 
   21900     211.9222    -501.6528     134730.6   -41506.723    2636.7151   -44143.438    18.502986   0.92698683 
   22000    209.79556   -548.56006    134806.98   -41561.166    2610.2556   -44171.421    18.451804   0.92646162 
   22100    211.63644   -540.02431    134752.24    -41507.17    2633.1597    -44140.33    18.468923   0.92683797 
   22200    212.78121   -484.47557     134729.9    -41550.36    2647.4027   -44197.762    18.377456   0.92699166 
   22300     211.5491   -645.61044    134880.28   -41533.036     2632.073   -44165.109    18.393892   0.92595809 
   22400    212.53435   -751.42695    134933.23   -41499.863    2644.3314   -44144.195    18.454077   0.92559477 
   22500    209.67262   -688.76457    134866.95   -41520.427     2608.726   -44129.153    18.619351   0.92604965 
   22600    210.68663   -655.38535    134696.67   -41495.242    2621.3423   -44116.584     18.62669   0.92722033 
   22700    209.48575   -676.19384    134727.07   -41502.045     2606.401   -44108.446    18.650971   0.92701108 
   22800    212.65001   -573.97399    134521.83   -41488.748    2645.7704   -44134.519    18.591588   0.92842545 
   22900    209.61702   -749.87996    134544.02   -41531.654    2608.0343   -44139.688    18.476352   0.92827234 
   23000    210.23368   -518.64913    134736.76   -41505.001    2615.7066   -44120.708     18.54023   0.92694448 
   23100     209.1447   -616.69995    134590.15   -41602.845    2602.1577   -44205.002    18.670637   0.92795421 
   23200    207.71008   -614.19645    134687.03   -41553.121    2584.3083    -44137.43    18.642188    0.9272867 
   23300    210.21819   -649.65824    134584.69   -41587.904    2615.5139   -44203.418    18.718158    0.9279918 
   23400    211.76907   -496.49938    134698.09   -41526.867    2634.8098   -44161.677    18.724639   0.92721057 
   23500    206.36879   -603.73502    134767.13   -41555.044    2567.6201   -44122.664    18.793835   0.92673557 
   23600     211.2362    -642.4194    134623.29   -41543.185    2628.1799   -44171.365     18.84198   0.92772576 
   23700    210.88009   -628.61395    134551.34   -41578.223    2623.7493   -44201.972    18.711347    0.9282218 
   23800    203.02026   -589.52571    134512.85   -41619.484     2525.958   -44145.442    18.763047   0.92848743 
   23900    208.82306    -541.6607    134532.45   -41625.884    2598.1559    -44224.04    18.727236   0.92835219 
   24000     211.2004   -531.23559    134604.67   -41552.754    2627.7345   -44180.488    18.764274   0.92785407 
   24100    209.19417   -519.17336    134658.03   -41553.038    2602.7731   -44155.811    18.979442    0.9274864 
   24200    207.20691   -665.82217    134573.64   -41609.288    2578.0479   -44187.336    18.963545   0.92806799 
   24300    209.20377   -561.28428    134598.72   -41575.962    2602.8927   -44178.855    18.909888    0.9278951 
   24400    208.20464   -581.16363    134611.52   -41619.178    2590.4616    -44209.64    18.814197   0.92780684 
   24500    209.63451   -663.95246    134660.38   -41586.838    2608.2518    -44195.09     18.80413   0.92747022 
   24600    208.35541   -626.64741    134789.46   -41577.441    2592.3374   -44169.778    18.866015   0.92658203 
   24700    209.12157    -546.1158    134790.52    -41589.66    2601.8699    -44191.53    19.145711   0.92657471 
   24800    208.97312   -677.08445    134867.04   -41594.235    2600.0229   -44194.257    19.045811   0.92604901 
   24900    208.81898   -591.43646    134678.65    -41544.96    2598.1051   -44143.065    19.103809   0.92734442 
   25000    211.01782   -685.55838     134586.7   -41528.111    2625.4629   -44153.574    19.038034   0.92797799 
   25100    210.30739   -527.24168    134628.74   -41535.676    2616.6237     -44152.3    19.075901    0.9276882 
   25200    209.98107    -569.5219    134693.63   -41578.896    2612.5637    -44191.46    19.120834   0.92724128 
   25300    206.33164   -631.10572    134716.99   -41581.281    2567.1579   -44148.439    19.264267   0.92708048 
   25400    206.52829   -524.07522     134742.8   -41577.049    2569.6046   -44146.653     19.39069    0.9269029 
   25500     211.9825   -571.07076    134719.03   -41533.803    2637.4653   -44171.269    19.266144   0.92706647 
   25600    212.13007   -531.88373    134700.02   -41618.602    2639.3014   -44257.903     19.29066   0.92719726 
   25700    207.08583   -440.57005    134661.15   -41645.839    2576.5414   -44222.381    19.086694   0.92746488 
   25800    206.05661   -546.53068    134742.36   -41629.501     2563.736   -44193.237    18.932843   0.92690592 
   25900    210.72892   -592.59714    134735.45   -41584.802    2621.8683    -44206.67    19.084603   0.92695344 
   26000    213.90965   -490.73589    134793.98   -41530.747    2661.4427    -44192.19    19.275297   0.92655093 
   26100    211.29021   -447.41917    134841.62   -41611.299    2628.8519   -44240.151    19.340622   0.92622359 
   26200    210.17806   -676.44256    134707.55   -41597.319    2615.0146   -44212.334    19.409519   0.92714548 
   26300    208.99404   -580.78505    134644.68   -41572.929    2600.2832   -44173.212    19.378984   0.92757836 
   26400     209.4725   -515.65111    134764.74   -41556.096    2606.2362   -44162.333    19.453982   0.92675202 
   26500     208.0435   -649.88047    134799.76   -41601.412    2588.4567   -44189.869    19.368806   0.92651123 
   26600    206.19321    -633.1272    134735.28   -41634.903    2565.4355   -44200.339    19.380916   0.92695466 
   26700    210.43858   -540.63417    134570.15   -41655.061     2618.256   -44273.317    19.357119   0.92809209 
   26800     208.1188   -617.31188    134837.33    -41583.73    2589.3935   -44173.124    19.383469    0.9262531 
   26900    213.47239   -585.88933    134856.95   -41587.104    2656.0023   -44243.106    19.422476   0.92611834 
   27000    209.34945   -510.33582    134813.86   -41621.714    2604.7051   -44226.419     19.37231   0.92641431 
   27100    207.29092   -492.81165    134953.21   -41616.252    2579.0931   -44195.345    19.331904   0.92545769 
   27200    208.87969   -522.52098    134956.79   -41637.166    2598.8605   -44236.026    19.427657   0.92543321 
   27300    206.53583   -635.52332    134925.77   -41661.374    2569.6983   -44231.072    19.485165   0.92564591 
   27400    209.91701   -650.61159    134941.01   -41606.073    2611.7667    -44217.84    19.567567   0.92554137 
   27500    214.07484   -564.79646    135056.97    -41557.19    2663.4981   -44220.688    19.616931   0.92474675 
   27600    212.75024   -689.71627    135063.32   -41601.569    2647.0174   -44248.586    19.528007   0.92470327 
   27700    210.85854   -602.71161    135011.85   -41609.434    2623.4811   -44232.916    19.465312    0.9250558 
   27800    211.32894   -628.28577    135082.41   -41532.262    2629.3338   -44161.595    19.543646   0.92457256 
   27900    214.48203   -653.21046    135163.13   -41549.281    2668.5642   -44217.845    19.647947   0.92402043 
   28000    211.90427     -567.011    135069.91   -41589.864     2636.492   -44226.356    19.605705   0.92465814 
   28100    212.21511   -558.71456    134970.19   -41571.569    2640.3594   -44211.928    19.641303    0.9253413 
   28200    206.59238   -633.78225    135024.64   -41614.277     2570.402   -44184.679    19.756549   0.92496812 
   28300    208.84139   -586.94196    134973.43   -41604.539    2598.3839   -44202.923    19.656805   0.92531908 
   28400    210.87058    -612.9228    135043.26   -41646.453    2623.6309   -44270.084    19.526493   0.92484058 
   28500    200.47224   -641.87587    135059.77   -41667.066    2494.2557   -44161.322    19.629244   0.92472759 
   28600     209.1365   -516.21472    134889.21   -41622.506    2602.0557   -44224.562    19.681448   0.92589679 
   28700    207.20802   -660.22232    134857.94   -41636.483    2578.0616   -44214.544    19.723018   0.92611153 
   28800    207.43558   -577.79059    134920.58     -41600.7     2580.893   -44181.593    19.950265   0.92568154 
   28900    213.18197   -531.99297    134993.62   -41569.675    2652.3889   -44222.064    19.891107   0.92518068 
   29000    209.89164   -709.00704    135090.54   -41647.287    2611.4511   -44258.739    19.843028    0.9245169 
   29100    212.94697   -527.96441    134991.45   -41600.712    2649.4651   -44250.177    19.892663   0.92519557 
   29200    210.67472   -540.77214    134894.15   -41577.753    2621.1941   -44198.947    19.818813   0.92586289 
   29300    207.02067   -665.65264    134911.74   -41640.945    2575.7307   -44216.675    19.899092   0.92574217 
   29400    207.83664   -468.56992    134920.33   -41698.349     2585.883   -44284.232    20.001327   0.92568327 
   29500    208.62274   -611.28376     135049.8   -41721.027    2595.6635    -44316.69    19.969951   0.92479583 
   29600    209.09865   -728.01222    134907.54   -41644.586    2601.5848   -44246.171    19.896971   0.92577102 
   29700    209.82316   -532.12003    134903.33   -41703.479    2610.5991   -44314.078    19.946818   0.92579994 
   29800    209.97208   -640.24743    134773.36   -41681.304    2612.4519   -44293.756    19.896393   0.92669274 
   29900    209.92409   -537.73321    134860.26   -41704.449    2611.8548   -44316.303    19.826355   0.92609556 
   30000    210.58696   -555.62488    134860.84   -41678.273    2620.1021   -44298.375    19.940604    0.9260916 
   30100    211.32026   -463.08542    134903.46   -41674.946    2629.2258   -44304.172    19.925298   0.92579899 
   30200    206.12509   -643.42494    134836.28   -41686.681     2564.588   -44251.269    19.814443   0.92626025 
   30300    208.06525   -596.15699    134718.01   -41645.201    2588.7272   -44233.928     19.98574   0.92707343 
   30400    209.91397   -600.21127    134872.09    -41622.37    2611.7288   -44234.098    19.839007   0.92601432 
   30500    207.69971   -606.98188     134795.6   -41629.426    2584.1793   -44213.606     19.85832   0.92653983 
   30600    211.47752     -593.866    134966.71   -41616.817    2631.1824   -44247.999     19.95993   0.92536518 
   30700     207.7039   -628.90568    134947.94    -41632.39    2584.2314   -44216.622    20.003962   0.92549387 
   30800    210.83074   -484.89244    135029.65   -41570.036    2623.1352   -44193.171    20.110436   0.92493382 
   30900    205.83113   -693.21617    134956.04   -41683.134    2560.9305   -44244.065    19.997607   0.92543831 
   31000    205.81037   -709.50243    134973.52   -41727.068    2560.6723    -44287.74    19.992746   0.92531847 
   31100    207.62823   -554.10609    134988.86    -41718.74    2583.2899    -44302.03     20.01513   0.92521332 
   31200    206.67935   -595.69055    134966.88   -41721.826    2571.4841    -44293.31    20.043269   0.92536396 
   31300    206.27419   -620.91021    134899.15   -41668.827    2566.4431    -44235.27     20.06728   0.92582859 
   31400    207.13916   -637.30002    134781.91   -41632.615    2577.2049    -44209.82    20.277242   0.92663393 
   31500    209.84045    -523.1419    134774.17   -41681.309    2610.8141   -44292.124    20.155737   0.92668712 
   31600    214.28219   -460.19369    134899.31   -41616.957    2666.0778   -44283.034    20.170488    0.9258275 
   31700    208.44117   -608.14278    135052.13   -41650.405    2593.4044   -44243.809    20.223442   0.92477987 
   31800    212.83266   -694.88304    134890.67    -41589.05    2648.0429   -44237.093    20.327339   0.92588677 
   31900    210.55296   -521.18281    134861.24   -41578.547    2619.6791   -44198.226    20.154159   0.92608885 
   32000    214.94115   -575.16489    134770.11   -41581.769    2674.2765   -44256.045    20.131252   0.92671504 
   32100    212.33774   -657.38182    134619.05   -41604.556    2641.8852   -44246.441    20.019379   0.92775493 
   32200     210.2571   -662.53445    134643.37   -41595.504    2615.9981   -44211.502    20.121808   0.92758742 
   32300    213.25046    -466.1305    134883.63   -41580.697    2653.2412   -44233.938     20.19847   0.92593515 
   32400     208.5838   -659.50991     134967.3   -41654.691    2595.1791    -44249.87    20.310432   0.92536112 
   32500    212.68381   -468.81468    135071.02   -41663.693    2646.1909   -44309.884    20.263777   0.92465052 
   32600     212.8145   -574.35755    135204.21   -41609.691     2647.817   -44257.508    20.448953   0.92373965 
   32700    209.10824   -527.41674    135269.87   -41675.073    2601.7041   -44276.777     20.22136   0.92329131 
   32800    207.73338   -551.10392    135323.84   -41710.646    2584.5982   -44295.244    20.231898   0.92292302 
   32900    210.61808   -704.23363    135334.23   -41717.698    2620.4894   -44338.187    20.202333   0.92285222 
   33000     211.9575   -681.75497    135262.43   -41766.346    2637.1543     -44403.5    20.290667   0.92334209 
   33100    211.15226   -657.97475    135167.26   -41698.765    2627.1355     -44325.9    20.388733   0.92399215 
   33200    210.66456   -516.23338    135314.92   -41736.956    2621.0676   -44358.023    20.349463   0.92298388 
   33300    211.78952   -573.18796    135233.04   -41676.863    2635.0643   -44311.927    20.297322   0.92354273 
   33400    208.96065   -604.46158    135232.69   -41770.729    2599.8677   -44370.597    20.286323    0.9235451 
   33500    212.51146    -632.9723     135365.4   -41748.477    2644.0466   -44392.523     20.37262   0.92263966 
   33600     207.2883   -634.65025    135325.85   -41726.954    2579.0605   -44306.015    20.313006   0.92290932 
   33700     209.9709   -734.11438    135314.78   -41734.064    2612.4372   -44346.502    20.445808   0.92298483 
   33800    209.92336   -570.49554    135350.48   -41731.185    2611.8457   -44343.031    20.472485   0.92274143 
   33900    211.19993   -695.80158    135280.66   -41750.351    2627.7286    -44378.08    20.370049   0.92321762 
   34000    211.08347   -629.92905     135378.1   -41714.117    2626.2796   -44340.397    20.553926   0.92255314 
   34100     209.4675   -665.58347    135227.07    -41748.33    2606.1739   -44354.504    20.493397   0.92358353 
   34200    206.96128   -617.20079    135230.86   -41749.769    2574.9918   -44324.761    20.421998   0.92355762 
   34300    207.26127   -575.04045    135213.21   -41802.897    2578.7243   -44381.622    20.422736   0.92367819 
   34400     209.2537   -604.32436     135304.1   -41724.812    2603.5139   -44328.326    20.440627   0.92305767 
   34500    206.68427   -592.60602    135324.21   -41746.185    2571.5453    -44317.73    20.384932   0.92292056 
   34600    213.58794    -605.9339    135236.52   -41730.132      2657.44   -44387.572    20.587354   0.92351895 
   34700    207.72458   -491.93569    135340.44   -41794.936    2584.4887   -44379.424    20.546497   0.92280987 
   34800    210.12881   -654.35935     135375.4   -41784.087    2614.4018   -44398.489    20.474168   0.92257156 
   34900    207.68469   -590.81108    135344.13   -41791.406    2583.9923   -44375.398    20.483807   0.92278469 
   35000    207.79275   -658.33385    135202.47   -41858.145    2585.3369   -44443.482    20.502151   0.92375152 
   35100    207.40166   -676.41263    135303.08    -41798.13     2580.471   -44378.601    20.586024   0.92306465 
   35200    206.50805   -664.99147    135235.47   -41798.566    2569.3528   -44367.919    20.568078    0.9235261 
   35300    205.97696   -607.84637    135137.87   -41773.631     2562.745   -44336.376    20.706076   0.92419313 
   35400    206.34252   -514.73039    135252.78    -41786.93    2567.2932   -44354.223    20.646049   0.92340794 
   35500    211.20951   -598.07796    135347.32    -41685.14    2627.8479   -44312.987    20.647609   0.92276295 
   35600    208.78044   -690.79789    135431.95   -41731.875    2597.6256   -44329.501    20.722546   0.92218635 
   35700    212.35974   -666.16639    135415.24   -41685.982    2642.1589   -44328.141    20.787377   0.92230011 
   35800    210.21487   -652.87721    135284.31   -41726.281    2615.4726   -44341.754    20.639715   0.92319269 
   35900    210.19731   -629.82582    135238.83   -41667.502    2615.2541   -44282.756     20.75706   0.92350316 
   36000    213.78288   -604.80139    135106.25    -41632.99    2659.8654   -44292.855    20.825909   0.92440943 
   36100    213.84728   -658.35756    135191.27   -41653.624    2660.6668   -44314.291    20.824321   0.92382807 
   36200    208.39702   -638.93441    135251.49   -41682.612    2592.8551   -44275.467    20.920167   0.92341672 
   36300    207.16691    -552.8235    135461.76   -41729.253    2577.5502   -44306.803    20.982951   0.92198335 
   36400    212.21537   -730.52073    135413.76   -41676.089    2640.3627   -44316.451    20.878343   0.92231017 
   36500    206.99773   -505.17332    135260.78   -41664.373    2575.4453   -44239.819    20.989948   0.92335336 
   36600    206.54605   -557.78546     135171.5   -41782.204    2569.8255    -44352.03    20.947069    0.9239632 
   36700     206.4796   -614.59614    135183.16   -41725.331    2568.9988    -44294.33    20.885221   0.92388351 
   36800    208.54409   -600.99573    135150.47   -41713.828     2594.685   -44308.513    21.007452   0.92410698 
   36900    209.75413   -601.22492    135284.77    -41741.58    2609.7401    -44351.32    21.278204   0.92318959 
   37000    211.63733   -619.95197    135135.31   -41685.288    2633.1707   -44318.459     21.17171   0.92421066 
   37100    214.67921   -485.45337    135072.13   -41675.482    2671.0175     -44346.5     21.08101   0.92464296 
   37200    210.60999   -668.03846    135146.76   -41733.739    2620.3886   -44354.128    20.994357   0.92413232 
   37300    207.93861    -603.9606    135247.47   -41742.545    2587.1517   -44329.697      21.1265    0.9234442 
   37400    206.27886   -607.92326    135178.21   -41770.048    2566.5012   -44336.549    21.221423   0.92391734 
   37500    206.30942   -592.24997    135236.84   -41777.601    2566.8814   -44344.483    21.181756   0.92351677 
   37600    209.74883   -662.90305    135151.61   -41723.565    2609.6742   -44333.239    21.233113   0.92409919 
   37700     212.0708   -515.34984    135203.28   -41726.145    2638.5639   -44364.708    21.212874   0.92374604 
   37800     205.8674   -632.17917    135356.34   -41804.647    2561.3819   -44366.029    21.045007   0.92270144 
   37900    204.33557   -577.71244    135307.49    -41760.71     2542.323   -44303.033    21.231562    0.9230346 
   38000    207.61487    -657.0834    135109.44   -41735.581    2583.1237   -44318.705    21.174374   0.92438761 
   38100     210.3282   -528.51673    135034.22   -41694.677    2616.8826    -44311.56    21.203604   0.92490256 
   38200    211.03073   -631.98458    135158.23    -41711.28    2625.6234   -44336.903     21.38428   0.92405389 
   38300    213.25529   -545.80453    135219.31   -41661.863    2653.3012   -44315.164    21.249074   0.92363649 
   38400    214.00417   -643.51772     135212.6    -41731.32    2662.6188   -44393.939     21.25016   0.92368236 
   38500    207.96872   -549.01934    135171.72   -41739.679    2587.5263   -44327.205    21.294067   0.92396168 
   38600    210.76584   -617.05408    135044.39   -41709.511    2622.3277   -44331.839    21.389857   0.92483289 
   38700    211.50767   -739.01525    134991.97   -41718.527    2631.5575   -44350.084    21.314709   0.92519202 
   38800    212.16209   -491.29249    135152.98    -41735.95    2639.6997    -44375.65    21.423846   0.92408984 
   38900    207.16156   -509.24597    135248.42   -41694.276    2577.4837    -44271.76    21.373028   0.92343771 
   39000    207.81815   -660.97742    135221.45   -41738.002    2585.6529   -44323.655     21.36062   0.92362191 
   39100    211.14072   -638.39428    135077.81   -41714.559     2626.992   -44341.551    21.387585   0.92460406 
   39200    209.18303   -619.87229    135106.65   -41740.778    2602.6345   -44343.412    21.445556   0.92440666 
   39300    210.90351   -609.10081    135252.24   -41733.782    2624.0406   -44357.823    21.570998   0.92341165 
   39400    210.09684   -722.53791    135200.84   -41697.193    2614.0041   -44311.197    21.621351   0.92376267 
   39500    208.67122   -564.11539    135327.77   -41669.775    2596.2667   -44266.042    21.479564   0.92289624 
   39600    209.05662   -550.15949    135343.44    -41709.31    2601.0617   -44310.372    21.428455    0.9227894 
   39700    212.67385   -578.38957    135417.57   -41654.739     2646.067   -44300.806    21.582379   0.92228426 
   39800    209.28206   -647.68085    135346.18   -41727.908    2603.8667   -44331.775    21.575463   0.92277073 
   39900    207.67599   -694.37056    135278.64    -41771.71    2583.8841   -44355.594    21.593028   0.92323144 
   40000    203.98291   -775.80502    135322.36   -41790.245    2537.9352   -44328.181    21.724588   0.92293313 
   40100    208.93329   -594.79062    135323.63   -41698.963    2599.5273    -44298.49    21.688558   0.92292448 
   40200    208.78681   -625.44229     135228.5   -41721.588    2597.7048   -44319.293    21.763131   0.92357372 
   40300    214.84688   -644.58642    135100.91    -41704.18    2673.1036   -44377.283    21.644656   0.92444597 
   40400    216.40529   -598.86677    135139.51   -41625.931    2692.4932   -44318.424    21.675968   0.92418194 
   40500    211.89818   -537.15046    135235.06   -41645.293    2636.4162   -44281.709      21.5959   0.92352893 
   40600    213.68296   -674.25253    135110.99   -41687.036    2658.6223   -44345.658    21.694094   0.92437703 
   40700    209.65628   -439.33842    135159.13   -41729.583    2608.5227   -44338.106     21.92643   0.92404775 
   40800    207.03006   -620.41611    135302.99   -41776.427    2575.8476   -44352.275    21.955067   0.92306529 
   40900    205.87175   -586.95943    135222.59   -41801.211     2561.436   -44362.647    22.055847   0.92361412 
   41000    210.86675   -547.81354    135186.79   -41719.944    2623.5833   -44343.528    21.817985   0.92385868 
   41100    210.34319   -645.61464    135358.82   -41704.685    2617.0692   -44321.754    21.794779   0.92268453 
   41200    212.11868   -684.19258    135288.62   -41724.551    2639.1596   -44363.711    21.902138   0.92316332 
   41300    206.67988   -691.77093    135166.19   -41866.655    2571.4907   -44438.146    21.945984   0.92399948 
   41400    207.52203   -717.63618    135398.16   -41818.266    2581.9686   -44400.234    22.135645   0.92241645 
   41500    206.42163   -719.90307    135236.75   -41821.722    2568.2775       -44390    22.090814    0.9235174 
   41600    209.19056     -623.572    135236.96    -41783.32    2602.7282   -44386.048    21.953084   0.92351598 
   41700    206.63869   -645.44342    135234.43   -41748.254    2570.9782   -44319.233    21.977489   0.92353322 
   41800    210.66694   -628.76815    135194.15   -41750.379    2621.0973   -44371.477    21.943203   0.92380843 
   41900    208.82833   -649.02213    135218.26   -41732.597    2598.2214   -44330.818    21.851365   0.92364365 
   42000    212.59242   -566.89966    135313.76   -41725.619    2645.0539   -44370.673    21.930986   0.92299183 
   42100    210.38003   -574.01168    135338.42   -41730.944    2617.5275   -44348.472    22.100738    0.9228236 
   42200     211.2388   -576.13886    135428.36   -41691.145    2628.2122   -44319.357    22.168969   0.92221077 
   42300    214.79943   -662.96877    135293.61   -41678.106    2672.5132   -44350.619    22.127529   0.92312925 
   42400    206.51562   -708.64557    135252.74   -41715.892    2569.4469   -44285.339    22.110972   0.92340819 
   42500    211.91098   -722.53468    135355.44   -41711.908    2636.5754   -44348.483    22.083331   0.92270756 
   42600    211.81468   -653.60524    135309.48   -41722.836    2635.3773   -44358.213    22.035438     0.923021 
   42700    208.47008   -536.58525    135183.36   -41730.176    2593.7641    -44323.94    22.086574   0.92388217 
   42800    213.32397    -449.8219    135134.37   -41679.319    2654.1558   -44333.474    22.190132   0.92421703 
   42900    207.39573   -670.51229    135270.78   -41752.665    2580.3972   -44333.063     22.27625   0.92328509 
   43000    210.89555   -659.14639    135235.43   -41781.007    2623.9416   -44404.948    22.316176   0.92352644 
   43100    211.70784   -522.29026    135389.53   -41760.995     2634.048   -44395.044    22.221628   0.92247523 
   43200     211.4732   -572.93046    135470.81    -41728.01    2631.1287   -44359.138    22.219499   0.92192181 
   43300    210.35142   -681.04218    135462.23   -41743.248    2617.1715   -44360.419    22.129947    0.9219802 
   43400    214.71544   -648.82698     135605.8   -41699.746    2671.4682   -44371.214     22.30485   0.92100406 
   43500    209.41456   -691.00941    135589.35   -41714.741    2605.5153   -44320.256    22.238532   0.92111577 
   43600    215.67864   -599.18366    135454.73    -41631.12    2683.4523   -44314.572    22.275136   0.92203123 
   43700    214.50141   -566.34512    135414.28   -41660.539    2668.8053   -44329.344    22.216244   0.92230668 
   43800     210.7141   -678.23577       135374   -41666.755     2621.684   -44288.439    22.207939   0.92258105 
   43900    206.10677   -610.99633    135422.29   -41704.615    2564.3601   -44268.975    22.361554   0.92225211 
   44000     211.9877   -514.04881    135433.13   -41741.401      2637.53   -44378.931    22.435011   0.92217831 
   44100    206.98704    -580.5265    135421.49   -41754.284    2575.3123   -44329.596    22.456096   0.92225753 
   44200    204.29042   -703.37006    135316.29   -41788.254    2541.7613   -44330.016    22.223292   0.92297454 
   44300    209.63346   -566.51253    135501.64   -41805.668    2608.2388   -44413.907    22.230819   0.92171203 
   44400    210.04439   -700.82899    135331.59   -41783.395    2613.3516   -44396.747     22.32302   0.92287021 
   44500    212.32444   -696.53915    135459.71   -41805.866    2641.7197   -44447.586    22.372361    0.9219973 
   44600      208.136   -529.69161     135445.3   -41863.543    2589.6075    -44453.15    22.420411   0.92209544 
   44700    205.38391   -623.04447    135470.61   -41842.205    2555.3663   -44397.571    22.445171   0.92192316 
   44800     206.8269   -687.32145    135527.52   -41803.533    2573.3198   -44376.853    22.334153   0.92153602 
   44900    211.60622    -658.7314    135562.31   -41755.874    2632.7836   -44388.657    22.401016   0.92129954 
   45000    209.00328   -687.86989    135504.85    -41757.59    2600.3982   -44357.988    22.520363   0.92169019 
   45100     209.9656    -572.3778    135495.31   -41693.898    2612.3712    -44306.27    22.594364   0.92175511 
   45200    209.39943   -658.42117     135471.9   -41757.549     2605.327   -44362.876    22.509632   0.92191439 
   45300    210.11231   -581.90584    135456.22   -41770.734    2614.1966    -44384.93    22.513529   0.92202109 
   45400     208.4295   -534.16619    135554.83   -41748.535    2593.2592   -44341.794    22.429069   0.92135035 
   45500     211.2776   -484.10563    135552.24   -41763.009     2628.695   -44391.704    22.498894   0.92136797 
   45600     212.8895   -645.05253    135609.74   -41764.396    2648.7501   -44413.146    22.531248   0.92097729 
   45700    211.37115   -576.52132    135603.49   -41782.372     2629.859   -44412.231    22.681972   0.92101972 
   45800     212.9326   -648.89734    135707.64   -41727.284    2649.2863    -44376.57    22.693259   0.92031291 
   45900    212.43868   -591.62827    135922.63   -41668.712     2643.141   -44311.854    22.705269   0.91885725 
   46000    212.28095   -595.07437    135917.36   -41660.232    2641.1786   -44301.411    22.677447   0.91889284 
   46100    219.31267   -545.87219    135686.65   -41616.678    2728.6665   -44345.345    22.521654   0.92045528 
   46200     213.9938   -767.56632    135633.84    -41618.18    2662.4897    -44280.67    22.551561   0.92081364 
   46300    211.62984    -654.3485    135552.26   -41638.049    2633.0776   -44271.127    22.457424   0.92136782 
   46400     212.8772   -542.69828    135793.82   -41664.211    2648.5971   -44312.808    22.598175   0.91972886 
   46500    214.46991   -582.03944     135801.6   -41676.628    2668.4134   -44345.041     22.67729   0.91967613 
   46600    214.14738   -631.36628    135620.98   -41672.468    2664.4005   -44336.869    22.643637   0.92090095 
   46700    208.14379   -654.01033    135623.85   -41759.606    2589.7044    -44349.31    22.815177   0.92088144 
   46800    210.90589   -553.61008    135583.31   -41797.969    2624.0703   -44422.039    22.759231   0.92115682 
   46900    209.97935   -640.44009    135476.82   -41733.832    2612.5423   -44346.374     22.51476   0.92188087 
   47000     212.8366   -503.95467    135553.48   -41716.144    2648.0919   -44364.236    22.724688   0.92135951 
   47100    214.68558   -563.05603    135579.44   -41686.774    2671.0968   -44357.871    22.796403   0.92118313 
   47200    211.50322   -537.97566    135580.12    -41739.31    2631.5021   -44370.812    22.833169   0.92117846 
   47300    212.35009   -620.49043    135503.63   -41768.163    2642.0389   -44410.202    22.851316   0.92169849 
   47400    207.77917   -592.80005    135482.48   -41721.575    2585.1679   -44306.743    22.780804   0.92184241 
   47500    213.40816   -701.22002    135534.56   -41669.435    2655.2033   -44324.639    22.812003   0.92148813 
   47600    213.61572   -656.15867    135593.03   -41623.784    2657.7857   -44281.569    22.844063    0.9210908 
   47700    213.16139   -532.58072    135677.05   -41663.744    2652.1329   -44315.877    22.827809   0.92052042 
   47800    211.43015    -667.6493    135557.83   -41679.807     2630.593     -44310.4    22.889778   0.92132994 
   47900    208.59693   -639.30469    135570.98    -41767.42    2595.3424   -44362.762    22.893273    0.9212406 
   48000    204.17953   -625.58577    135748.57   -41789.267    2540.3816   -44329.648    23.003608   0.92003543 
   48100    206.57686   -620.78723    135682.72   -41760.861    2570.2089    -44331.07    23.022871   0.92048194 
   48200    210.79203   -515.30874    135777.15   -41796.877    2622.6536    -44419.53    23.074329   0.91984175 
   48300    210.81091   -701.05866    135629.14   -41785.215    2622.8885   -44408.104    22.817048   0.92084557 
   48400    214.72515   -518.47788    135643.76   -41712.943    2671.5891   -44384.532    22.867174   0.92074628 
   48500    208.68353   -665.81211    135498.81   -41764.199    2596.4199   -44360.619    23.019623   0.92173129 
   48600     210.8908   -615.03783    135530.07     -41767.8    2623.8825   -44391.683    23.041454   0.92151867 
   48700    210.12667    -559.3569    135621.77   -41732.666    2614.3752   -44347.041    23.032483   0.92089559 
   48800    212.97555   -532.23876    135556.34   -41766.575    2649.8207   -44416.396     23.01156   0.92134011 
   48900    209.07018   -611.82945    135547.48   -41761.569    2601.2306   -44362.799    22.943416   0.92140035 
   49000     213.3547   -656.25443    135535.52   -41799.199     2654.538   -44453.737    23.057121   0.92148164 
   49100    209.39712   -549.47075    135590.18   -41797.297    2605.2983   -44402.595    23.335524   0.92111013 
   49200    207.01395   -601.99969    135625.88   -41815.629    2575.6471   -44391.276    23.266949   0.92086772 
   49300    210.94835    -569.3006    135669.37    -41766.93    2624.5985   -44391.528     23.26112   0.92057253 
   49400    211.05719   -576.07602    135749.48   -41739.664    2625.9527   -44365.616    23.054279   0.92002922 
   49500    212.58947   -568.71997    135845.83   -41756.973    2645.0171    -44401.99    23.199156   0.91937671 
   49600    210.09736   -693.91876    135764.51   -41765.939    2614.0106    -44379.95    23.207314   0.91992742 
   49700    211.99824    -759.5292    135675.98    -41784.31    2637.6612   -44421.972    23.229266   0.92052765 
   49800    208.05172   -575.35669    135685.96   -41833.172    2588.5589   -44421.731    23.203048   0.92045993 
   49900    212.73781   -574.94959    135631.79   -41720.607    2646.8627    -44367.47    23.387995   0.92082756 
   50000     209.4505   -580.48766    135744.26   -41751.707    2605.9624   -44357.669    23.293616   0.92006464 
   50100    213.94844   -557.79612    135921.14   -41775.636    2661.9253   -44437.562    23.344431   0.91886732 
   50200    209.16341   -657.06933    135849.47   -41818.643    2602.3904   -44421.034    23.186306   0.91935206 
   50300    209.12658   -647.53841    135810.04   -41797.893    2601.9322   -44399.826    23.106681   0.91961901 
   50400    210.57864   -509.81927    135842.96   -41824.733    2619.9986   -44444.731    23.273499   0.91939616 
   50500    208.44823   -584.95233     135810.4   -41858.297    2593.4922   -44451.789    23.353584   0.91961651 
   50600    206.90023    -607.2285    135771.91   -41882.762    2574.2322   -44456.994    23.361815   0.91987728 
   50700    206.64028   -616.45867    135658.57   -41891.613    2570.9979   -44462.611    23.482739    0.9206458 
   50800    207.40517    -620.6741    135610.13   -41892.498    2580.5146   -44473.013    23.500385   0.92097464 
   50900     210.2735   -718.04853    135655.39   -41801.671    2616.2021   -44417.873    23.475636   0.92066738 
   51000    209.10438   -652.18944    135673.47    -41827.24    2601.6561   -44428.897     23.40676   0.92054468 
   51100    206.06188   -635.13865    135646.58   -41847.043    2563.8016   -44410.845      23.2952   0.92072719 
   51200    209.01707   -617.35987    135618.98    -41820.01    2600.5697    -44420.58    23.313106   0.92091457 
   51300    205.52402   -399.85106    135654.92   -41873.531    2557.1095    -44430.64    23.477162   0.92067055 
   51400    208.86174    -655.2546    135789.79   -41869.736    2598.6371   -44468.373    23.470191    0.9197561 
   51500    207.24285   -692.74535    135613.68   -41871.028     2578.495   -44449.523    23.582553   0.92095052 
   51600    211.38138   -529.19293    135799.61   -41811.646    2629.9862   -44441.632    23.510107   0.91968963 
   51700    208.58368   -632.76215    135831.31   -41803.787    2595.1775   -44398.964    23.426463   0.91947495 
   51800    206.07705    -509.7656    135746.52   -41830.042    2563.9903   -44394.032      23.2766   0.92004928 
   51900    209.13245    -713.4402    135787.58    -41874.15    2602.0052   -44476.156    23.292555   0.91977107 
   52000     206.1568    -567.0416    135733.57   -41889.321    2564.9826   -44454.303    23.393918   0.92013707 
   52100     207.1055    -575.9795    135766.42   -41841.354    2576.7862    -44418.14    23.606609   0.91991445 
   52200    208.07317    -614.2243    135817.18   -41859.257    2588.8258   -44448.083    23.434485   0.91957065 
   52300    210.64853   -508.02516    135820.55   -41853.351    2620.8682   -44474.219    23.511577    0.9195478 
   52400    209.88109   -656.61751    135841.39    -41808.52    2611.3198    -44419.84    23.433585   0.91940675 
   52500    208.63659   -710.91096    135674.94    -41799.09    2595.8359   -44394.925    23.418525    0.9205347 
   52600    208.95801   -684.44475    135777.01   -41827.448    2599.8349   -44427.283    23.489779   0.91984269 
   52700    210.81058   -602.66074    135717.33   -41845.118    2622.8843   -44468.002    23.474974   0.92024719 
   52800    209.91826   -521.04883    135739.79   -41798.527    2611.7823    -44410.31    23.485669   0.92009495 
   52900    210.51706   -619.18809    135816.92   -41797.447    2619.2324   -44416.679      23.5416   0.91957242 
   53000    213.46535   -658.30253    135787.17   -41780.969    2655.9148   -44436.884    23.510191   0.91977388 
   53100    209.53262   -621.99995     135654.3   -41831.089    2606.9842   -44438.073    23.472727   0.92067478 
   53200    209.77186   -570.92339    135723.53   -41829.719    2609.9608    -44439.68     23.48341   0.92020515 
   53300    209.17543   -643.58497    135736.55   -41836.791    2602.5401   -44439.331    23.347626    0.9201169 
   53400     204.9208   -583.17984    135806.21   -41909.682    2549.6043   -44459.287    23.473363   0.91964493 
   53500    209.60375   -579.47496    135726.63   -41913.809    2607.8691   -44521.678    23.537626   0.92018416 
   53600     207.9161   -641.46394    135704.78   -41913.276    2586.8716   -44500.148    23.588663   0.92033231 
   53700     205.8401   -595.83444    135700.77   -41936.273    2561.0422   -44497.315    23.610644   0.92035952 
   53800    207.65506   -576.97897    135661.08    -41828.74    2583.6237   -44412.364    23.542589   0.92062875 
   53900    210.21915   -674.98147    135689.73   -41879.791    2615.5259   -44495.317    23.529593   0.92043434 
   54000    205.63863   -510.50216    135633.67   -41858.375    2558.5355    -44416.91      23.5737   0.92081483 
   54100     209.1755   -645.35236    135497.76   -41876.678    2602.5409   -44479.219    23.718587   0.92173841 
   54200    210.48768   -543.88528    135476.75   -41848.592    2618.8669   -44467.459    23.734529   0.92188139 
   54300    209.04935   -581.52689    135640.28   -41819.019    2600.9713    -44419.99    23.651414   0.92076996 
   54400    208.36502    -544.3947    135596.74    -41854.59     2592.457   -44447.047    23.652194    0.9210656 
   54500    210.55751   -605.54882    135659.49   -41844.656    2619.7357   -44464.391    23.546214   0.92063955 
   54600    211.06624   -596.99013    135662.03   -41755.161    2626.0654   -44381.226    23.635409   0.92062227 
   54700    211.10082   -638.27683    135661.91   -41764.285    2626.4955   -44390.781    23.839745   0.92062312 
   54800    213.11496   -670.34962    135689.52   -41833.669    2651.5552   -44485.224    23.831261   0.92043582 
   54900      210.607   -585.17563    135745.12   -41869.914    2620.3515   -44490.265    23.728304   0.92005882 
   55000    205.73049    -631.9571    135760.77   -41927.479    2559.6785   -44487.157    23.663075   0.91995272 
   55100    206.66273   -591.87751    135752.89   -41889.621    2571.2772   -44460.898    23.765709    0.9200061 
   55200     207.1738   -550.53472    135826.61   -41885.125    2577.6359   -44462.761    23.864816   0.91950679 
   55300    205.20358   -634.33001    135845.87   -41832.628    2553.1227    -44385.75    23.709729    0.9193764 
   55400    210.65039   -624.32217    135927.01   -41810.006    2620.8913   -44430.897    23.728136   0.91882764 
   55500    208.15436   -583.13189     135913.6   -41766.221     2589.836   -44356.057     23.66576    0.9189183 
   55600    211.04095    -539.5131    135967.67    -41809.46    2625.7506   -44435.211    23.768109   0.91855283 
   55700    211.92067   -564.26417    135991.86   -41818.557     2636.696   -44455.253    23.901031   0.91838944 
   55800    211.94646   -580.53101    135938.63   -41837.462    2637.0169   -44474.479     23.81995   0.91874909 
   55900    211.66045   -606.75186     135953.5    -41810.79    2633.4583   -44444.248    23.803168   0.91864858 
   56000    215.70208   -516.95478    135889.32   -41813.924    2683.7439   -44497.668    23.762703   0.91908243 
   56100    209.65954   -566.40002    135870.06   -41779.312    2608.5633   -44387.876    23.759212   0.91921272 
   56200    212.26169   -642.51055    135958.35   -41787.966    2640.9389   -44428.905     23.70433   0.91861585 
   56300    208.79547   -699.49296    135886.17   -41825.384    2597.8126   -44423.196     23.69793   0.91910377 
   56400    211.24224   -520.89214    135949.25   -41811.957    2628.2551   -44440.212    23.832896   0.91867732 
   56500    210.03251   -675.66408    135902.68   -41901.935    2613.2037   -44515.139    23.868923   0.91899209 
   56600    211.11373   -483.44312    135813.17   -41920.175    2626.6561   -44546.831    23.759972   0.91959777 
   56700    206.04488   -492.65957    135794.29   -41956.619      2563.59   -44520.209    23.698605   0.91972561 
   56800    207.06245   -579.45427    135985.48   -41891.055    2576.2505   -44467.305    23.640824   0.91843255 
   56900    207.44824   -629.59005    135907.59   -41876.309    2581.0505    -44457.36    23.718225   0.91895894 
   57000    210.94404    -568.0463    135744.74    -41827.34    2624.5449   -44451.885    23.622006   0.92006137 
   57100    204.46578   -580.29388    135699.42    -41880.76     2543.943   -44424.703    23.804667   0.92036863 
   57200    208.49171   -571.83883    135635.23   -41917.142    2594.0333   -44511.175    23.893067    0.9208042 
   57300    209.55011   -582.40404    135709.06    -41953.57    2607.2018   -44560.772    23.793522   0.92030324 
   57400    207.58634   -575.58209    135753.62   -41956.387    2582.7687   -44539.156     23.70592   0.92000116 
   57500    204.50056   -570.76047    135787.34   -41996.523    2544.3757   -44540.898    23.716295   0.91977272 
   57600    207.17489   -712.19209    135729.03   -41945.266    2577.6495   -44522.916    23.646489   0.92016786 
   57700    201.73145   -594.90208     135632.1    -41979.96    2509.9228   -44489.883    23.722301   0.92082549 
   57800    201.16589   -651.76836    135692.56   -41999.569    2502.8861   -44502.455    23.691337   0.92041517 
   57900    199.97923   -680.37216    135578.97   -41959.848    2488.1219    -44447.97    23.643392   0.92118634 
   58000     205.0935   -615.11484     135581.8   -41962.835    2551.7531   -44514.588    23.664733   0.92116708 
   58100    206.02189   -553.36719    135708.41   -41894.304    2563.3039   -44457.608    23.639276    0.9203077 
   58200    209.76764   -652.60097    135777.47   -41840.621    2609.9082   -44450.529    23.666417   0.91983961 
   58300    213.02633   -433.91015    135836.03   -41781.873    2650.4525   -44432.326    23.771347   0.91944301 
   58400    212.77353   -661.87615    135820.51   -41791.745    2647.3073   -44439.052    23.799836   0.91954808 
   58500    211.42257   -475.50129    135877.13   -41802.711    2630.4988    -44433.21    23.782425   0.91916495 
   58600    216.86776   -565.12577    135898.41   -41776.044    2698.2472   -44474.291    23.772474   0.91902101 
   58700     212.2403   -613.59218     135942.9   -41786.318    2640.6729   -44426.991    23.773511   0.91872021 
   58800    209.49106   -778.55052    135700.68   -41846.283    2606.4671    -44452.75    23.700329   0.92036009 
   58900    205.90334    -581.2474    135643.27   -41885.718     2561.829   -44447.547    23.701141   0.92074966 
   59000    209.71085   -670.47763     135875.8   -41870.818    2609.2017    -44480.02     23.66328    0.9191739 
   59100    210.59956   -564.88211    135765.66   -41863.915    2620.2589   -44484.174    23.799584   0.91991961 
   59200    211.58883   -751.06497    135608.58   -41893.226    2632.5673   -44525.793    23.773735    0.9209852 
   59300    208.23749   -707.70108     135561.2   -41896.297    2590.8703   -44487.167    23.811493   0.92130707 
   59400    210.17438   -530.96457    135505.82   -41948.861    2614.9688    -44563.83    23.783104   0.92168358 
   59500    208.03257   -622.42342    135606.61   -41909.883    2588.3207   -44498.203    23.661832   0.92099853 
   59600    205.99821    -564.6156    135478.02   -41894.298    2563.0093   -44457.307     23.72527   0.92187275 
   59700    209.95208   -637.03616    135504.05   -41917.444     2612.203   -44529.647    23.904044   0.92169564 
   59800    208.62325   -696.00557    135543.07    -41918.51    2595.6699    -44514.18    23.875333   0.92143029 
   59900    208.19552   -472.23042    135613.08   -41886.872    2590.3481    -44477.22    23.925704   0.92095463 
   60000      209.021   -527.56296    135556.89   -41928.542    2600.6186    -44529.16    23.880496   0.92133639 
   60100    205.31016    -630.7829    135689.41   -41888.958    2554.4487   -44443.407    23.925646   0.92043651 
   60200    207.65755   -568.89175    135685.78   -41870.325    2583.6547    -44453.98     23.88841   0.92046115 
   60300    211.69871   -478.17467    135805.14    -41821.05    2633.9345   -44454.985    24.058961   0.91965219 
   60400    214.32891   -506.64432    135735.82   -41777.584    2666.6591   -44444.243    24.029671   0.92012183 
   60500    211.85183   -617.34137    135647.84   -41808.391    2635.8395    -44444.23    23.956922   0.92071864 
   60600    209.38687   -582.10276    135715.84   -41866.014    2605.1708   -44471.185     24.00093   0.92025729 
   60700    210.64248   -654.62202    135592.62   -41890.623     2620.793   -44511.416    23.949552   0.92109357 
   60800     210.4173   -544.61318    135653.84    -41855.16    2617.9913   -44473.152    23.969941   0.92067786 
   60900    212.92358   -616.76461    135698.75   -41849.268    2649.1742   -44498.442     24.03143   0.92037321 
   61000    210.00596    -596.5412    135692.17    -41889.81    2612.8733   -44502.683    24.138448   0.92041781 
   61100    209.53124   -599.43061     135689.1   -41922.172     2606.967   -44529.139    24.027921   0.92043862 
   61200     208.3802   -626.85876    135861.21   -41922.258    2592.6459   -44514.904    24.085263   0.91927265 
   61300     208.4358   -622.31629    135755.03    -41905.58    2593.3376   -44498.917    24.118156   0.91999164 
   61400     209.5728   -406.58858    135851.69   -41940.861     2607.484   -44548.345    24.164409   0.91933701 
   61500    209.90626   -609.15476    135758.45   -41948.465     2611.633   -44560.098    24.208063   0.91996845 
   61600    209.67362   -612.89916    135795.57    -41916.99    2608.7384   -44525.728    24.214401   0.91971696 
   61700    207.85952   -673.70661    135786.93   -41991.099    2586.1676   -44577.267    24.281331   0.91977552 
   61800    206.21759   -562.10988    135685.35   -42049.699    2565.7389   -44615.438    24.424126   0.92046406 
   61900    206.56452   -612.02546    135660.39   -41978.134    2570.0553   -44548.189    24.092532   0.92063345 
   62000    207.55137   -601.50837    135674.21   -41928.448    2582.3336   -44510.782    24.056534   0.92053963 
   62100    213.47542   -661.74909    135683.38   -41935.081    2656.0401   -44591.121    24.158153   0.92047746 
   62200    209.97881   -646.99942    135627.64   -41886.328    2612.5355   -44498.864    24.234361   0.92085572 
   62300    205.65676   -598.88664    135683.79   -41917.069    2558.7611    -44475.83    24.211109   0.92047469 
   62400    210.90933   -540.96593    135726.23   -41877.726    2624.1131   -44501.839    24.049546   0.92018684 
   62500    209.19715   -615.97079    135600.89   -41889.316    2602.8102   -44492.126    24.153698   0.92103738 
   62600    209.65813   -434.01909     135634.4   -41882.192    2608.5457   -44490.738    24.133061   0.92080987 
   62700    206.06605   -609.47405    135642.87     -41908.5    2563.8534   -44472.353    24.217647   0.92075232 
   62800    210.22151   -536.84181    135742.64   -41889.443    2615.5552   -44504.999    24.156913   0.92007558 
   62900    209.28931   -633.83314    135681.08   -41834.921    2603.9569   -44438.878    24.013839   0.92049305 
   63000     211.8784    -639.6864    135555.21   -41803.478      2636.17   -44439.648    24.101817    0.9213478 
   63100    209.81238   -585.02449    135458.94   -41789.266    2610.4649   -44399.731    24.146328   0.92200258 
   63200    211.88038   -650.12493    135401.55   -41821.117    2636.1948   -44457.312    24.068279   0.92239337 
   63300    211.92092   -688.78174    135305.88   -41856.499    2636.6991   -44493.198    24.023753   0.92304555 
   63400    211.27455   -628.09253    135418.35   -41773.521     2628.657   -44402.178    24.000023   0.92227894 
   63500    212.54518   -504.79267    135446.44   -41866.151    2644.4661   -44510.617    24.031919   0.92208766 
   63600    205.22863   -594.94161    135438.24   -41849.298    2553.4343   -44402.732    24.222321   0.92214351 
   63700    212.23319   -585.17188    135563.03   -41850.646    2640.5843    -44491.23    24.157464    0.9212946 
   63800    206.57201   -703.92195    135342.14   -41947.161    2570.1485   -44517.309    24.151388   0.92279826 
   63900    207.96876   -581.70361    135448.47   -41929.444    2587.5268   -44516.971    24.132139   0.92207386 
   64000    211.07458   -642.07917    135562.79   -41913.944    2626.1691   -44540.113    24.289546   0.92129628 
   64100     210.2766   -598.72756    135478.44   -41824.996    2616.2407   -44441.237    24.257906   0.92186987 
   64200    211.29273    -584.0186    135643.75   -41819.047    2628.8833    -44447.93    24.281724   0.92074634 
   64300    214.43701    -440.1295    135786.16    -41741.95     2668.004   -44409.954    24.394201   0.91978072 
   64400    214.12603   -534.61938    135857.36   -41768.957    2664.1349   -44433.092     24.47427   0.91929867 
   64500    212.86828   -582.16109    135833.32   -41759.276    2648.4861   -44407.763    24.419488    0.9194614 
   64600    206.43191   -657.99472    135598.83    -41822.81    2568.4054   -44391.216    24.344281   0.92105141 
   64700    210.82239   -674.79558    135506.79   -41844.763    2623.0313   -44467.794    24.282285   0.92167701 
   64800    213.00262   -475.54993    135543.06   -41859.605    2650.1576   -44509.763    24.212277   0.92143036 
   64900    208.76332   -494.94732    135735.72   -41831.399    2597.4126   -44428.812    24.321447   0.92012252 
   65000    212.80871   -669.21792    135722.59   -41802.446    2647.7449   -44450.191    24.526947   0.92021153 
   65100    211.54284    -657.8772     135688.5   -41828.737    2631.9951   -44460.732     24.54899   0.92044274 
   65200    207.45473   -607.60964    135670.72   -41820.194    2581.1312   -44401.325    24.525249   0.92056334 
   65300    214.45883   -619.51983     135576.8   -41827.111    2668.2756   -44495.386    24.520354   0.92120102 
   65400    214.62994   -619.06596    135601.55   -41766.426    2670.4045    -44436.83    24.433898    0.9210329 
   65500    212.74873   -655.88645    135599.01   -41824.962    2646.9987   -44471.961    24.537441   0.92105017 
   65600    209.72854   -529.77744    135620.22   -41859.518    2609.4218   -44468.939    24.478865   0.92090609 
   65700    207.47698   -521.19625    135697.23   -41908.848    2581.4081   -44490.256    24.514965   0.92038352 
   65800    206.39682   -655.51544    135841.42    -41912.33    2567.9688   -44480.299    24.494999   0.91940658 
   65900    208.28888   -534.51358    135899.11   -41885.409    2591.5096   -44476.919    24.578806   0.91901624 
   66000    210.36284   -630.97094    135855.46   -41792.385    2617.3137   -44409.699    24.591382   0.91931156 
   66100    210.51228   -607.68541     135792.8   -41749.439     2619.173   -44368.612    24.555234   0.91973575 
   66200    213.58635    -631.4249     135883.5    -41719.16    2657.4202   -44376.581    24.522647   0.91912183 
   66300    212.83761   -640.82372    135821.43   -41761.251    2648.1045   -44409.355    24.471669    0.9195419 
   66400    207.89014   -734.06659    135830.31   -41812.033    2586.5485   -44398.582    24.505681   0.91948176 
   66500    212.25076   -658.84035    135708.83   -41834.564     2640.803   -44475.367    24.595011   0.92030484 
   66600    209.62303   -686.03986     135681.6   -41858.651    2608.1091    -44466.76    24.574492   0.92048951 
   66700    209.73925   -701.03503    135679.04   -41877.682    2609.5551   -44487.237     24.56086   0.92050688 
   66800    208.60046   -574.93973    135785.28   -41816.977    2595.3863   -44412.363    24.690265   0.91978666 
[...]
   84600    204.63019   -698.61939    136211.22   -42033.495    2545.9887   -44579.483    26.369793   0.91691042 
   84700    203.77729   -620.09909    136073.78   -42039.547    2535.3769   -44574.924    26.365888   0.91783657 
   84800    209.27622   -589.08424     136109.9   -41999.824     2603.794   -44603.618    26.474097   0.91759297 
   84900     211.1858   -548.52297    136124.99   -41986.077    2627.5528    -44613.63    26.488186   0.91749129 
   85000    210.81456   -600.03848     136096.5   -41943.134    2622.9339   -44566.068    26.444223   0.91768332 
   85100    211.09917   -477.32272    136089.55   -41940.052    2626.4749   -44566.527    26.304462    0.9177302 
   85200    208.91021   -673.82018    136189.03   -41947.901    2599.2402   -44547.142    26.427414   0.91705986 
   85300    207.04649   -566.97635    136029.29   -41994.054     2576.052   -44570.106    26.512916   0.91813676 
   85400    207.70057   -579.02359    136062.33   -41977.016      2584.19   -44561.206     26.53523   0.91791379 
   85500     210.6553   -535.93577    136083.23   -41943.875    2620.9525   -44564.827    26.456971    0.9177728 
   85600     208.7748   -610.85284    135957.25   -41922.675    2597.5554    -44520.23    26.459492   0.91862328 
   85700    207.98208   -457.44745       135981   -41960.612    2587.6925   -44548.304    26.490654   0.91846282 
   85800    209.34425    -617.2383     135879.1   -41955.232    2604.6405   -44559.873    26.652215   0.91915162 
   85900    211.83947   -650.11734    135961.06   -41860.719    2635.6857   -44496.405    26.633939   0.91859754 
   86000     209.8004   -639.86283    135781.43   -41914.383    2610.3158   -44524.699    26.424225   0.91981272 
   86100    210.36252   -649.20017    135779.46   -41904.949    2617.3097   -44522.259    26.495979   0.91982612 
   86200    210.92728   -514.19809    135821.71   -41869.537    2624.3363   -44493.874    26.426443   0.91953995 
   86300    212.06983   -519.31725    135828.89   -41906.224    2638.5518   -44544.776    26.497205   0.91949134 
   86400    208.33196   -559.38516    136002.63   -41916.451    2592.0456   -44508.497    26.624951    0.9183167 
   86500    209.93079   -654.79651    135957.34   -41906.577    2611.9381   -44518.515     26.76998   0.91862265 
   86600    210.13839   -548.18799    135943.88   -41847.153    2614.5211   -44461.674    26.704985   0.91871361 
   86700    213.19937      -573.82    135902.17   -41835.446    2652.6055   -44488.051     26.48259   0.91899554 
   86800    209.79534   -666.87155    135974.92    -41894.33    2610.2529   -44504.583    26.470124   0.91850391 
   86900    212.32849    -505.8908    135858.98   -41852.405    2641.7701   -44494.175    26.513951   0.91928771 
   87000     209.6686    -618.7038     135988.6   -41857.819     2608.676   -44466.495    26.712704    0.9184115 
   87100     210.4235   -545.52208    136040.47   -41905.227    2618.0684   -44523.296    26.749113   0.91806133 
   87200    211.39229   -408.23195    136088.01   -41902.758     2630.122    -44532.88      26.6331   0.91774061 
   87300    215.96308   -563.65429    136087.13   -41905.757    2686.9913   -44592.748    26.614073   0.91774651 
   87400    207.72012   -571.08347    136022.85   -41911.368    2584.4332   -44495.802    26.695071   0.91818023 
   87500    214.69905   -606.68374    136183.46   -41929.891    2671.2644   -44601.155    26.726255   0.91709734 
   87600    205.88817   -722.46532    136121.46   -41949.654    2561.6402   -44511.295    26.714472   0.91751509 
   87700    206.22582   -579.48226    136119.24    -41958.67    2565.8413   -44524.512     26.87509   0.91753004 
   87800    209.62981   -670.04558    136132.22   -41941.986    2608.1933   -44550.179     26.66556   0.91744253 
   87900    211.57908   -633.21836    136093.08   -41957.086     2632.446   -44589.532    26.771796   0.91770638 
   88000    212.18469   -637.11562    136148.14   -41974.961     2639.981   -44614.942    26.876128   0.91733527 
   88100    209.13568   -586.00831    136001.62   -41912.977    2602.0455   -44515.022    26.785937   0.91832352 
   88200    211.01131   -597.04923    135969.76   -41887.377    2625.3819   -44512.759    26.923126   0.91853871 
   88300    206.57062   -618.99163    136080.76   -41921.979    2570.1313    -44492.11    26.961589   0.91778947 
   88400    205.88978    -599.7696    136191.36   -42024.701    2561.6603   -44586.362    26.956929   0.91704416 
   88500    210.80728   -597.91753    136220.79   -41932.389    2622.8433   -44555.233    26.950242   0.91684603 
   88600    208.75668   -564.42955    136199.11   -41886.498      2597.33   -44483.828    26.795262   0.91699194 
   88700    207.24346    -528.9994    136185.55   -41866.942    2578.5027   -44445.445    26.766415   0.91708328 
   88800    214.12722    -647.7362    136146.48   -41813.976    2664.1497   -44478.126    26.879843   0.91734647 
   88900    210.50906    -628.3292    136143.09   -41867.164     2619.133   -44486.297    26.783676   0.91736933 
   89000    211.08347    -569.4376    136183.95   -41856.768    2626.2796   -44483.048    26.769614   0.91709403 
   89100    208.56197   -570.36737     136085.5   -41957.875    2594.9074   -44552.782     27.00154   0.91775751 
   89200    205.82402   -634.56589    136104.24   -41981.666    2560.8421   -44542.508    27.058008   0.91763112 
   89300    207.88098   -604.37825    136212.94   -41997.845    2586.4346   -44584.279    26.947051   0.91689887 
   89400    209.92062   -681.33137    136120.25   -42033.187    2611.8116   -44644.999    26.853636   0.91752323 
   89500    205.72369   -644.89861    136079.58   -42058.948    2559.5938   -44618.541     26.81608   0.91779744 
   89600    204.13844   -562.28675    135921.86   -42105.473    2539.8703   -44645.343    26.901636   0.91886243 
   89700    206.88989   -695.78977    136122.36   -42063.421    2574.1035   -44637.525    26.916418   0.91750901 
   89800     203.9853   -660.97671    135957.49   -42030.612    2537.9649   -44568.577    26.912046   0.91862164 
   89900    206.77271   -557.98019     136070.7   -42074.294    2572.6456    -44646.94     26.92466   0.91785733 
   90000    210.16365   -615.67353    136125.26   -41991.488    2614.8353   -44606.324    26.592683   0.91748948 
   90100    210.94594   -608.46031    136117.98   -42006.065    2624.5686   -44630.634     26.85693    0.9175385 
   90200    205.10396   -719.45881    136228.54   -42036.428    2551.8832   -44588.311    27.035859   0.91679387 
   90300    206.23651   -519.87828    136055.57   -42039.777    2565.9743   -44605.751    26.977616   0.91795944 
   90400    208.28574   -546.25808    136068.36   -42021.325    2591.4705   -44612.795    26.928334   0.91787314 
   90500    204.45611   -517.48754    136107.62   -41984.361    2543.8227   -44528.184    26.734937    0.9176084 
   90600    213.94853   -591.55603    136159.57   -41898.146    2661.9265   -44560.073    26.783498   0.91725826 
   90700    211.32334   -625.97596    136073.37   -41904.856    2629.2641    -44534.12    26.867278   0.91783936 
   90800    212.90319   -571.14072     136006.8   -41944.221    2648.9204   -44593.141    26.850454   0.91828858 
   90900    204.41837   -523.45669    135991.44   -42029.547    2543.3531     -44572.9    26.858039   0.91839229 
   91000    209.45537   -613.12346    135912.68   -42033.778     2606.023   -44639.801    26.875192   0.91892452 
   91100    207.03621   -516.89546    135972.64   -42024.872     2575.924   -44600.796    26.827619   0.91851929 
   91200    208.43815   -522.50981    136137.46   -41988.928    2593.3668   -44582.294    26.938935   0.91740723 
   91300    210.45725   -640.10853    136247.39   -41895.006    2618.4882   -44513.495    26.945894   0.91666704 
   91400    216.18247   -565.72587    136124.34     -41887.6     2689.721   -44577.321    26.880009   0.91749567 
   91500    209.78042   -663.15618    136007.08   -41899.532    2610.0672   -44509.599    26.863219   0.91828668 
   91600    209.10919   -652.36499    135975.94   -41938.728    2601.7158   -44540.444    27.000444   0.91849699 
   91700    208.95862   -611.70178     135957.8   -42007.451    2599.8425   -44607.293    26.911971   0.91861954 
   91800    211.88459   -547.17059    136005.89   -41981.854    2636.2471   -44618.101    27.022868   0.91829472 
   91900     209.9893   -507.64918    136040.69    -41993.08    2612.6661   -44605.746    26.952895   0.91805979 
   92000    208.38029   -714.93286    136085.49   -42003.247     2592.647   -44595.894    26.890748   0.91775759 
   92100    207.79064    -693.0663    136058.04   -42044.283    2585.3106   -44629.593    26.960153   0.91794277 
   92200    210.78797   -546.88929    136114.18   -41980.859     2622.603   -44603.462    26.977245   0.91756413 
   92300    213.52252   -553.92753    136027.77    -41897.33    2656.6261   -44553.956    26.918338   0.91814703 
   92400    211.66085   -604.34221    136007.72   -41901.965    2633.4634   -44535.428    27.074639   0.91828234 
   92500     209.3262   -596.33286    136105.04     -41948.7    2604.4159   -44553.116    27.053863   0.91762575 
   92600      214.288   -630.55725    136041.58   -41920.911    2666.1502   -44587.061    27.113286   0.91805381 
   92700    211.66447    -601.3159    136069.88   -41912.657    2633.5084   -44546.165    27.047484   0.91786288 
   92800    210.03891   -520.34707     136071.9   -41956.177    2613.2834   -44569.461    27.025435   0.91784927 
   92900    207.38988   -493.91951    136091.05    -41920.44    2580.3244   -44500.764    27.157696   0.91772009 
   93000    210.00199   -641.70601    136166.55   -41944.595     2612.824   -44557.419    27.283794   0.91721127 
   93100    211.61853   -592.64839    135988.01   -41884.969    2632.9368   -44517.905    27.200418   0.91841548 
   93200    212.97126   -644.15412    135995.28   -41896.663    2649.7674    -44546.43     27.06782   0.91836634 
   93300    210.30356   -610.16724    136119.79   -41914.887    2616.5761   -44531.463     27.03246   0.91752634 
   93400    209.80595   -620.81493    136173.37   -41947.484    2610.3849   -44557.869    27.243848   0.91716531 
   93500    208.65057   -638.98426    136070.59   -41990.979    2596.0097   -44586.989    27.305498   0.91785809 
   93600    207.49585   -573.88888    136035.98   -42056.406    2581.6428   -44638.049    27.155184   0.91809164 
   93700     208.4821   -659.37094    136002.36    -42022.64    2593.9137   -44616.554    27.292267   0.91831859 
   93800    206.39956   -526.80128    136127.47   -41986.636    2568.0029   -44554.639    27.222121   0.91747459 
   93900    207.89323   -616.42046    136039.71   -41970.193     2586.587    -44556.78    27.220885   0.91806646 
   94000     211.7633   -574.29949     135905.8   -41976.009    2634.7381   -44610.747    27.243852   0.91897099 
   94100    206.74295   -634.84927     135934.6   -41984.345    2572.2754   -44556.621    27.062193   0.91877635 
   94200    211.55704   -527.73126    135959.74   -41982.769    2632.1718   -44614.941     27.27671   0.91860646 
   94300    212.78163   -579.37219    135892.43   -41945.142     2647.408    -44592.55    27.332351   0.91906143 
   94400     210.1265   -631.23499    136016.09   -41934.198    2614.3732   -44548.571    27.380318   0.91822583 
   94500    212.57324   -621.09473    136129.13   -41871.556    2644.8153   -44516.371    27.464269   0.91746335 
   94600    213.68239   -616.10647    136132.83   -41913.775    2658.6152   -44572.391    27.422263   0.91743846 
   94700    210.58164   -604.14708    136101.62   -41960.325     2620.036   -44580.361    27.336363   0.91764885 
   94800    209.51309   -481.82617    135959.54   -41954.755    2606.7412   -44561.496    27.456163   0.91860776 
   94900    209.44817   -567.16099     136000.6   -41923.868    2605.9334   -44529.801    27.389957   0.91833046 
   95000    212.70503   -578.78273    135902.52   -41908.217    2646.4549   -44554.672     27.44245   0.91899322 
   95100    212.99991   -604.29692    135919.41   -41896.549    2650.1238   -44546.673    27.344192   0.91887898 
   95200    208.06577   -534.91601    135987.64   -41916.532    2588.7337   -44505.266    27.380911   0.91841797 
   95300    212.91226    -575.8457    135888.67   -41821.667    2649.0333     -44470.7    27.407233   0.91908689 
   95400    215.36359    -554.5112    136093.87   -41887.408    2679.5326   -44566.941     27.41388   0.91770109 
   95500    212.84193    -678.7354     136018.3   -41901.976    2648.1582   -44550.134    27.522817   0.91821092 
   95600    212.98077   -498.88488    135985.03   -41897.629    2649.8857   -44547.515    27.513051    0.9184356 
   95700    209.72407   -646.29578    135895.92   -41954.641    2609.3661   -44564.007    27.451076   0.91903782 
   95800    208.40922   -652.06445    135833.39   -42002.914    2593.0069   -44595.921    27.361929   0.91946089 
   95900    209.10564   -585.73879    135857.29   -41951.881    2601.6717   -44553.553    27.403562   0.91929912 
   96000    204.55882   -487.85939    135928.26   -42010.728    2545.1006   -44555.829    27.439743   0.91881917 
   96100    211.64307   -633.84599    135908.94   -41963.867    2633.2421   -44597.109     27.41473    0.9189498 
   96200    209.05889   -675.54727    135920.85   -42008.419      2601.09   -44609.509    27.419127   0.91886924 
   96300    211.10074   -575.09314     135879.9   -41962.243    2626.4946   -44588.738    27.427173    0.9191462 
   96400    209.71336   -601.75662    135703.56   -41935.731    2609.2329   -44544.964    27.334199   0.92034054 
   96500    209.92298   -635.73924    135803.02   -41971.078    2611.8409   -44582.919    27.484523   0.91966655 
   96600    208.99263   -714.22544    135889.69   -41953.038    2600.2657   -44553.304     27.43632      0.91908 
   96700    208.96681   -557.87136     135906.3   -42029.382    2599.9444   -44629.327    27.393583   0.91896767 
   96800    205.84404   -569.01224    136085.48   -42082.164    2561.0912   -44643.255     27.42642   0.91775764 
   96900    208.12245   -560.65038    136119.53   -42014.927     2589.439   -44604.366    27.368928   0.91752809 
   97000    211.08797   -612.38229    136051.19   -42020.599    2626.3357   -44646.934    27.429622   0.91798893 
   97100    207.96432    -538.7054    136134.88   -42014.832    2587.4716   -44602.303     27.68191   0.91742464 
   97200       207.44   -524.66661    136221.71   -42025.728     2580.948   -44606.676     27.76586   0.91683983 
   97300    208.96751    -668.5242    136241.95   -42022.873    2599.9531   -44622.826    27.673519   0.91670361 
   97400    208.87832    -632.8254    136163.07   -42030.167    2598.8434   -44629.011    27.565878   0.91723469 
   97500    208.65758   -725.04006     136074.5   -41940.199    2596.0969   -44536.296    27.530532   0.91783169 
   97600    210.82206   -562.94443    136066.05   -42004.325    2623.0272   -44627.352    27.479733    0.9178887 
   97700    211.85266   -516.94446    136005.02   -41939.319    2635.8499   -44575.169     27.47253   0.91830063 
   97800    215.49385    -564.1178    135995.22   -41928.973    2681.1532   -44610.126    27.653955   0.91836679 
   97900    213.54066   -666.64574    136114.02    -41895.32    2656.8518   -44552.172    27.456796    0.9175652 
   98000    210.43452   -671.56359    136071.65   -41919.515    2618.2055   -44537.721    27.485469   0.91785097 
   98100    210.03014   -619.64704    136012.94    -41994.49    2613.1742   -44607.664    27.504546   0.91824714 
   98200    212.48947   -649.55764    136071.74   -41973.798    2643.7729   -44617.571    27.454865   0.91785032 
   98300    209.68418    -589.8779    135954.31    -41997.63    2608.8699     -44606.5    27.675309   0.91864309 
   98400    207.56756   -632.49691    136019.33   -42016.413    2582.5351   -44598.948    27.478454   0.91820397 
   98500    207.13719   -527.00238    136037.92   -42023.843    2577.1805   -44601.024    27.490804   0.91807851 
   98600    207.13083   -658.79822    136137.17   -42040.938    2577.1014    -44618.04    27.525159   0.91740918 
   98700    204.74629   -612.36298    136174.54   -42085.189    2547.4331   -44632.622    27.571642   0.91715743 
   98800    208.00587   -516.63798    136094.55   -42061.711    2587.9885   -44649.699      27.5056   0.91769651 
   98900    208.51682   -652.05115    136145.99   -42068.372    2594.3457   -44662.718    27.559555   0.91734974 
   99000    205.14514   -471.51977    136068.69   -42100.825    2552.3956    -44653.22    27.513434   0.91787088 
   99100    207.28153   -699.91922     136039.9    -42035.44    2578.9763   -44614.417    27.552485   0.91806513 
   99200    208.33466   -742.76379    136173.49   -42028.319    2592.0793   -44620.398    27.646426    0.9171645 
   99300    209.29603   -706.27938    136159.32    -41988.24    2604.0405   -44592.281    27.540959   0.91725997 
   99400    214.02573   -491.36245    136145.87   -41960.379     2662.887   -44623.266    27.578289   0.91735059 
   99500     215.4631   -612.98257    136256.93   -41849.804    2680.7705   -44530.574    27.617208   0.91660285 
   99600       215.02   -605.23989    136254.71   -41874.075    2675.2576   -44549.333    27.745863   0.91661781 
   99700    216.20034   -646.53945    136253.52   -41889.788    2689.9433   -44579.732    27.775313   0.91662582 
   99800    214.50569   -723.12196    136162.65   -41906.682    2668.8586    -44575.54    27.658396   0.91723754 
   99900    210.57572   -609.57189    136221.89   -41959.288    2619.9623   -44579.251     27.68505   0.91683865 
  100000    209.01632   -618.19907    136202.52   -41968.335    2600.5604   -44568.895    27.575872     0.916969 
  100100     211.0101   -504.39599    136284.49   -41900.788    2625.3668   -44526.155    27.553084   0.91641748 
  100200    213.38891   -717.64677    136227.68   -41907.611    2654.9637   -44562.574    27.654039   0.91679964 
  100300    213.97376   -463.07909    136422.24   -41898.144    2662.2404   -44560.385    27.847311   0.91549214 
  100400    213.73267   -648.40045    136398.82   -41936.222    2659.2407   -44595.463    27.884534   0.91564935 
  100500    213.45243   -574.63819    136488.53   -41871.039     2655.754   -44526.793    27.725302   0.91504755 
  100600    211.46388   -622.64505    136480.33   -41959.943    2631.0127   -44590.956    27.711901   0.91510248 
  100630    210.97482   -570.55289    136470.88     -41944.3    2624.9278   -44569.228    27.734545   0.91516587 
Loop time of 69.0386 on 6 procs for 100000 steps with 4175 atoms

Performance: 625.737 ns/day, 0.038 hours/ns, 1448.464 timesteps/s
98.3% CPU use with 6 MPI tasks x no OpenMP threads

MPI task timing breakdown:
Section |  min time  |  avg time  |  max time  |%varavg| %total
---------------------------------------------------------------
Pair    | 54.682     | 55.524     | 56.031     |   6.4 | 80.42
Neigh   | 4.6845     | 4.7317     | 4.777      |   1.5 |  6.85
Comm    | 5.7216     | 6.2409     | 7.0878     |  18.7 |  9.04
Output  | 0.15921    | 0.16011    | 0.16398    |   0.4 |  0.23
Modify  | 1.7397     | 1.7669     | 1.7967     |   1.6 |  2.56
Other   |            | 0.615      |            |       |  0.89

Nlocal:        695.833 ave         706 max         682 min
Histogram: 1 0 1 0 0 0 0 3 0 1
Nghost:        1443.50 ave        1460 max        1424 min
Histogram: 1 0 0 0 2 0 1 1 0 1
Neighs:        0.00000 ave           0 max           0 min
Histogram: 6 0 0 0 0 0 0 0 0 0
FullNghs:      18592.0 ave       18900 max       18170 min
Histogram: 1 0 0 1 0 1 0 1 1 1

Total # of neighbors = 111552
Ave neighs/atom = 26.719042
Neighbor list builds = 5161
Dangerous builds = 0

undump              1
unfix               2
unfix               3
unfix               4


################################################
#######         Run Simulation         #########
################################################

reset_timestep      0
log                 log.run_${NAME}
log                 log.run_liquid_density_MLmW
