
# Create simulation box of size 50 x 50 x 50 Angstrom
#
lattice	            sc 1
Lattice spacing in x,y,z = 1.0000000 1.0000000 1.0000000
region 	            all block 0 50 0 50 0 50 units box
create_box          1 all
Created orthogonal box = (0.0000000 0.0000000 0.0000000) to (50.000000 50.000000 50.000000)
  1 by 2 by 3 MPI processor grid

# fill box with 4175 randomly distributed atoms
#
create_atoms        1 random 4175 63782 all
Created 4175 atoms
  create_atoms CPU = 0.000 seconds
mass                1 18.015

# Define potential
#
pair_style          sw
pair_coeff          * * ML_mW.sw mW
Reading sw potential file ML_mW.sw with DATE: 2019-02-27

# Run minimization
#
minimize            1.0e-8 1.0e-8 10000 1000
WARNING: Using 'neigh_modify every 1 delay 0 check yes' setting during minimization (../min.cpp:187)
Neighbor list info ...
  update every 1 steps, delay 0 steps, check yes
  max neighbors/atom: 2000, page size: 100000
  master list distance cutoff = 6.0032907
  ghost atom cutoff = 6.0032907
  binsize = 3.0016454, bins = 17 17 17
  1 neighbor lists, perpetual/occasional/extra = 1 0 0
  (1) pair sw, perpetual
      attributes: full, newton on
      pair build: full/bin/atomonly
      stencil: full/bin/3d
      bin: standard
Per MPI rank memory allocation (min/avg/max) = 4.255 | 4.258 | 4.261 Mbytes
Step Temp E_pair E_mol TotEng Press 
       0            0    7792709.3            0    7792709.3    5898794.3 
     630            0   -45180.336            0   -45180.336   -154.07449 
Loop time of 1.22028 on 6 procs for 630 steps with 4175 atoms

97.6% CPU use with 6 MPI tasks x no OpenMP threads

Minimization stats:
  Stopping criterion = max force evaluations
  Energy initial, next-to-last, final = 
      7792709.32924461  -45180.0188663597   -45180.336116598
  Force two-norm initial, final = 2.0191930e+08 4.9721331
  Force max component initial, final = 1.0948746e+08 0.73126211
  Final line search alpha, max atom move = 0.053306038 0.038980685
  Iterations, force evaluations = 630 1000

MPI task timing breakdown:
Section |  min time  |  avg time  |  max time  |%varavg| %total
---------------------------------------------------------------
Pair    | 0.87885    | 1.0011     | 1.1271     |   8.0 | 82.04
Neigh   | 0.023926   | 0.024471   | 0.024996   |   0.3 |  2.01
Comm    | 0.048626   | 0.17463    | 0.29719    |  19.1 | 14.31
Output  | 0          | 0          | 0          |   0.0 |  0.00
Modify  | 0          | 0          | 0          |   0.0 |  0.00
Other   |            | 0.02005    |            |       |  1.64

Nlocal:        695.833 ave         704 max         685 min
Histogram: 1 1 0 0 1 0 0 1 0 2
Nghost:        1494.17 ave        1515 max        1468 min
Histogram: 1 1 0 0 0 0 1 1 1 1
Neighs:        0.00000 ave           0 max           0 min
Histogram: 6 0 0 0 0 0 0 0 0 0
FullNghs:      19997.0 ave       20462 max       19320 min
Histogram: 1 1 0 0 0 0 0 2 0 2

Total # of neighbors = 119982
Ave neighs/atom = 28.738204
Neighbor list builds = 26
Dangerous builds = 0

# Add velocity/set timestep
#
velocity            all create ${TEMP} 120598 rot yes dist gaussian
velocity            all create 230 120598 rot yes dist gaussian
timestep            5.0

# Define output
#
compute	            1 all msd
thermo	            100
thermo_style        custom step temp press vol etotal ke pe c_1[4] density

# Neighbor lists
#
neigh_modify        delay 0 every 1 check yes

# Set fixes
#
fix                 1 all momentum 10 linear 1 1 1 rescale
fix                 2 all nve
fix                 3 all temp/csvr ${TEMP} ${TEMP} 500.0 928347
fix                 3 all temp/csvr 230 ${TEMP} 500.0 928347
fix                 3 all temp/csvr 230 230 500.0 928347
fix                 4 all press/berendsen iso ${PRES} ${PRES} 1000.0 modulus 20000
fix                 4 all press/berendsen iso -750 ${PRES} 1000.0 modulus 20000
fix                 4 all press/berendsen iso -750 -750 1000.0 modulus 20000

# Run 0.5 ns equilibration
#
dump                1 all custom 1000 eq.${NAME}.dump id type x y z vx vy vz
dump                1 all custom 1000 eq.liquid_density_MLmW.dump id type x y z vx vy vz
run                 100000
Per MPI rank memory allocation (min/avg/max) = 3.506 | 3.508 | 3.511 Mbytes
Step Temp Press Volume TotEng KinEng PotEng c_1[4] Density 
     630          230    892.42114       125000   -42318.699    2861.6373   -45180.336 2.7295415e-33   0.99914793 
     700    146.35699   -619.82825    126169.17   -41430.086    1820.9592   -43251.046   0.27717931   0.98988914 
     800    181.23912   -811.21485    126536.77   -40617.612    2254.9592   -42872.571   0.64331936   0.98701344 
     900    201.55561   -776.01968    126784.87   -40158.606    2507.7349   -42666.341    1.1041856   0.98508201 
    1000    212.98027   -827.41958    126925.74   -39840.465    2649.8795   -42490.345    1.5028312    0.9839887 
    1100    214.89958   -675.80857    126920.22   -39643.687    2673.7593   -42317.446    1.9058219   0.98403151 
    1200    218.97983   -681.63327     127172.7   -39665.711    2724.5254   -42390.237    2.2415077   0.98207784 
    1300    223.77299   -535.58154    127415.36   -39639.827    2784.1614   -42423.989    2.7262455   0.98020753 
    1400    222.73953   -583.88023    127779.25   -39661.364    2771.3032   -42432.667    3.0606177   0.97741603 
    1500    225.67317   -758.82696    127638.33    -39614.11    2807.8033   -42421.913     3.470557   0.97849518 
    1600    231.88994   -717.54536    127885.83   -39506.654    2885.1517   -42391.806    3.8041376   0.97660146 
    1700    228.31802   -549.03453    128057.16   -39544.739    2840.7102   -42385.449    4.2846079   0.97529489 
    1800    224.80985   -814.93048    128039.54    -39643.62     2797.062   -42440.682    4.6234244   0.97542908 
    1900    227.27846   -840.13486     128243.4   -39629.709    2827.7761   -42457.486    4.9517855   0.97387848 
    2000    234.02573   -743.90756    128375.75   -39584.217     2911.725   -42495.942    5.4096144   0.97287452 
    2100    231.13326   -334.47092     128678.9   -39532.089    2875.7372   -42407.826    5.9169659   0.97058251 
    2200    231.31851     -681.879     128790.6   -39561.922     2878.042   -42439.964    6.3693982   0.96974071 
    2300    232.56724   -746.49028    128858.88   -39553.382    2893.5785   -42446.961    6.6690518   0.96922688 
    2400    229.23955   -736.27596    129133.66   -39587.193    2852.1758   -42439.369    7.0875915   0.96716449 
    2500     234.5722   -640.73271    128958.09   -39548.418    2918.5242   -42466.942    7.4360235   0.96848125 
    2600    232.99392   -818.13551    129081.31   -39504.224    2898.8873   -42403.111    7.8301448   0.96755672 
    2700    233.07638   -964.32567    128963.07   -39520.592    2899.9133   -42420.506    8.1406688   0.96844384 
    2800    232.34361   -682.00739     129120.3   -39520.833    2890.7963   -42411.629     8.436609   0.96726459 
    2900    230.43309   -688.56599    129144.57   -39609.851    2867.0257   -42476.877    8.7950464    0.9670828 
    3000    232.13008   -852.47654    129486.16   -39645.244    2888.1396   -42533.383    8.9878853    0.9645316 
    3100    229.22211   -824.64273    129336.64   -39621.777    2851.9588   -42473.735    9.1814685   0.96564665 
    3200    232.29581   -735.17485    129449.14   -39675.806    2890.2016   -42566.007     9.399703   0.96480739 
    3300    233.21574   -727.42026    129679.37    -39687.98    2901.6471   -42589.627    9.7133193   0.96309452 
    3400    230.71944   -652.08359    129573.35    -39750.39    2870.5884   -42620.978    9.9137859   0.96388256 
    3500    231.06475   -717.72358    129649.49   -39796.765    2874.8848    -42671.65    10.307889    0.9633165 
    3600     229.3565   -763.15318    129915.59   -39840.375    2853.6309   -42694.006    10.597021   0.96134334 
    3700    226.89268    -740.0774    129915.74   -39908.294    2822.9763   -42731.271    10.908568    0.9613423 
    3800    233.03701   -628.62205    130110.43    -39856.15    2899.4234   -42755.573    11.213336   0.95990375 
    3900    228.43341   -664.51896    130149.94   -39897.241    2842.1459   -42739.387    11.447339   0.95961237 
    4000    231.53016   -805.83602    130145.44   -39906.878    2880.6753   -42787.554    11.692453   0.95964551 
    4100    231.42773   -871.93771    130131.12   -39898.603    2879.4009   -42778.004     11.97228   0.95975112 
    4200    233.56021   -573.24519    130111.29   -39919.856     2905.933   -42825.789    12.161195   0.95989745 
    4300    229.22447   -875.34083    130387.15   -39927.176    2851.9882   -42779.165    12.377309   0.95786658 
    4400    227.42942    -673.8535    130483.65   -39928.612    2829.6544   -42758.266    12.540467   0.95715815 
    4500     226.5383   -712.24979    130515.93   -39926.661    2818.5671   -42745.228    12.744277   0.95692147 
    4600     231.5683   -711.73571    130526.86   -39988.516    2881.1499   -42869.666    12.882287   0.95684132 
    4700    226.07048   -768.35643    130551.46   -39898.057    2812.7465   -42710.803    13.182864   0.95666104 
    4800    231.10336   -808.44092    130790.57   -39957.339    2875.3652   -42832.704    13.499311   0.95491205 
    4900    229.85908   -707.06726    130821.41   -39842.773     2859.884   -42702.657    13.724415   0.95468691 
    5000    234.56546   -651.40794    130801.65   -39800.971    2918.4403   -42719.411    13.866777   0.95483118 
    5100    229.97668   -605.46084    130785.15   -39888.076    2861.3471   -42749.423    14.172677   0.95495159 
    5200    229.59376   -689.89063    130880.62   -39946.471    2856.5829   -42803.054    14.334658   0.95425504 
    5300    229.38001   -758.80804    130740.29   -39920.789    2853.9234   -42774.713    14.441856   0.95527926 
    5400    230.26856   -656.66086    130912.91   -39965.223    2864.9786   -42830.202    14.850644   0.95401967 
    5500    233.44783   -753.31447     131131.1   -39967.404    2904.5348   -42871.939    15.059002   0.95243228 
    5600     228.5356   -755.32199    131247.88   -39973.282    2843.4173     -42816.7    15.279467   0.95158485 
    5700    230.97715    -652.4526    131288.72   -39980.314    2873.7948   -42854.109    15.425474   0.95128882 
    5800    229.40409    -642.0103    131413.08   -40028.893     2854.223   -42883.116    15.561546    0.9503886 
    5900    229.42581   -924.60596    131482.29   -40075.939    2854.4933   -42930.433    15.710383   0.94988831 
    6000    226.99906    -690.9036    131283.06   -40084.884    2824.2999   -42909.184    15.783091   0.95132983 
    6100     233.5412    -810.8955    131344.47     -40029.6    2905.6966   -42935.296    16.088677   0.95088503 
    6200    230.35619   -483.42241    131557.55   -40097.182    2866.0689   -42963.251    16.282576   0.94934493 
    6300    231.79128   -813.76219    131544.96   -40060.339    2883.9242   -42944.263    16.540222   0.94943575 
    6400    232.17523   -712.80536    131633.88     -40051.5    2888.7013   -42940.202    16.547042   0.94879443 
    6500    234.88541   -703.22754    131643.17   -40009.841    2922.4211   -42932.262    16.576347   0.94872744 
    6600     229.9349   -803.70659    131767.53   -40102.792    2860.8273   -42963.619    16.913359   0.94783205 
    6700    226.58783   -937.32085    131647.55    -40172.57    2819.1833   -42991.754    17.038688    0.9486959 
    6800    228.87165   -846.08387    131485.36   -40092.612    2847.5985   -42940.211    17.143713   0.94986612 
    6900    233.95637   -680.18475     131582.6   -40040.951    2910.8621   -42951.813    17.377954    0.9491642 
    7000    233.61075   -744.10545     131589.2   -40048.692    2906.5618   -42955.253    17.362738   0.94911658 
    7100    229.08127   -780.28161    131563.74   -40081.937    2850.2065   -42932.143    17.488172   0.94930025 
    7200    228.36618   -802.88361    131563.55   -40149.133    2841.3095   -42990.442     17.74757   0.94930159 
    7300    225.59327    -665.9426    131516.36   -40201.309    2806.8092   -43008.118    17.995683   0.94964221 
    7400    226.63534    -725.6516    131478.42   -40235.415    2819.7744    -43055.19    18.119017   0.94991627 
    7500    231.44755   -653.47051    131484.88   -40217.761    2879.6475   -43097.409    18.177256   0.94986963 
    7600    220.89837   -644.46652     131510.8   -40308.329    2748.3956   -43056.725    18.384254   0.94968236 
    7700    227.31867   -795.44596    131477.75   -40203.592    2828.2764   -43031.868    18.487326   0.94992112 
    7800    233.19919   -744.03703    131506.25   -40176.137    2901.4413   -43077.579    18.796713   0.94971525 
    7900    224.74548   -772.84762    131511.07   -40254.645    2796.2611   -43050.906    19.034279   0.94968041 
    8000     231.2393   -740.65651     131401.7   -40220.957    2877.0565   -43098.014    19.155774    0.9504709 
    8100    226.34912   -818.84108    131475.81   -40301.997    2816.2134   -43118.211    19.135161   0.94993513 
    8200    227.91623   -721.62732    131636.67   -40338.663    2835.7113   -43174.375    19.381301   0.94877431 
    8300    226.61598   -854.81708    131573.36   -40339.466    2819.5336       -43159    19.477526   0.94923084 
    8400    229.45319   -931.38135    131452.71   -40302.024     2854.834   -43156.858    19.467109    0.9501021 
    8500    232.23172   -888.89371    131436.39   -40227.092    2889.4041   -43116.496    19.559358   0.95022003 
    8600    226.15311   -695.77471     131527.5    -40247.49    2813.7747   -43061.264    19.844168   0.94956182 
    8700    230.47112   -666.52362    131690.36   -40213.361    2867.4988    -43080.86     19.97708   0.94838753 
    8800    224.42747   -659.68641    131778.13   -40242.196    2792.3044     -43034.5    20.070218   0.94775586 
    8900    224.46965   -880.48614    131565.62   -40333.082    2792.8292   -43125.911    20.315257   0.94928667 
    9000    228.67288   -728.13613    131624.22    -40276.63    2845.1254   -43121.755    20.346096   0.94886404 
    9100    227.91725   -871.27728    131572.51   -40361.901    2835.7239   -43197.625    20.424401   0.94923695 
    9200    230.98759   -656.37646    131708.08   -40266.546    2873.9247    -43140.47     20.53133    0.9482599 
    9300    230.07475   -619.20264    131626.87   -40319.625    2862.5673   -43182.192    20.677431   0.94884494 
    9400    226.93053    -831.5026    131560.74   -40269.414    2823.4472   -43092.862    20.825804    0.9493219 
    9500    227.59145   -862.76323    131539.18   -40276.604    2831.6703   -43108.275    20.904636   0.94947752 
    9600    229.95632   -788.15032     131437.2   -40229.701    2861.0938   -43090.795    21.128367   0.95021416 
    9700     233.6738   -780.88434    131565.06   -40158.363    2907.3463    -43065.71    21.318139   0.94929076 
    9800    228.91364   -829.56228    131511.01   -40228.327    2848.1209   -43076.448    21.406097   0.94968086 
    9900    225.97252   -680.38043    131539.39   -40299.846    2811.5277   -43111.374    21.759135   0.94947598 
   10000    222.71935   -699.96185    131562.16   -40299.674    2771.0521   -43070.726    21.844421   0.94931162 
   10100    231.19036   -959.06151    131663.68   -40267.877    2876.4476   -43144.325    21.989504   0.94857968 
   10200    227.57548   -639.20347     131786.8   -40327.559    2831.4716   -43159.031    22.003364   0.94769351 
   10300    226.09225   -787.38462    131604.39   -40316.882    2813.0174   -43129.899     22.04912   0.94900705 
   10400    232.79203   -852.94689     131601.3   -40257.596    2896.3754   -43153.971    22.339104    0.9490293 
   10500    226.42071   -771.56462    131708.21   -40229.851    2817.1041   -43046.955    22.633874   0.94825898 
   10600    233.64958   -786.86177    131669.96   -40164.543    2907.0449   -43071.588    22.873533   0.94853444 
   10700    233.76354   -764.75281    131696.37   -40152.504    2908.4628   -43060.967    22.986329   0.94834425 
   10800    232.96598   -829.58366    131629.59    -40134.67    2898.5397    -43033.21    23.049341   0.94882536 
   10900    231.69988   -944.81247    131710.53   -40179.617     2882.787   -43062.404    23.281983   0.94824227 
   11000    236.64755   -630.87505    131527.71   -40166.885    2944.3455    -43111.23    23.495993   0.94956033 
   11100     230.5705   -775.16945    131595.98   -40210.622    2868.7354   -43079.358    23.523973    0.9490677 
   11200    231.31475   -873.25898    131546.28     -40183.3    2877.9953   -43061.295    23.606811   0.94942622 
   11300     234.1939   -737.30614     131574.7    -40190.43    2913.8173   -43104.247    23.810897   0.94922115 
   11400     227.5122   -596.61785    131594.12   -40211.404    2830.6843   -43042.089    23.964016   0.94908111 
   11500    231.03865   -782.45289    131516.24   -40247.116    2874.5601   -43121.676    24.245213   0.94964309 
   11600    229.79236   -686.39639    131468.31   -40247.962    2859.0538   -43107.016    24.493609   0.94998933 
   11700    230.63449   -679.88445    131801.39   -40135.465    2869.5315   -43004.997    24.758611   0.94758859 
   11800    230.57181   -807.83692    132032.16   -40202.473    2868.7517   -43071.225    24.921339   0.94593236 
   11900    228.08913   -693.22378    131973.01   -40217.227    2837.8624   -43055.089    24.983875   0.94635628 
   12000    228.60734   -569.66518    132026.57   -40223.172      2844.31   -43067.482    25.267428   0.94597239 
   12100    231.70564    -777.2547    132207.06   -40176.182    2882.8587    -43059.04    25.550106   0.94468098 
   12200    230.67049   -816.71609    132238.37   -40177.428    2869.9794   -43047.408    25.709349   0.94445725 
   12300    229.80671   -779.75279    132198.11   -40192.376    2859.2324   -43051.608    25.771351   0.94474489 
   12400    231.73075    -860.4106    132184.85   -40170.133    2883.1711   -43053.304    26.101396   0.94483971 
   12500     228.2572    -673.5832    132123.05   -40259.288    2839.9535   -43099.242    26.124171   0.94528165 
   12600    230.56709   -693.64284    132159.28   -40184.961    2868.6929   -43053.654    26.373193   0.94502246 
   12700    232.20553   -814.71931    132147.09   -40159.621    2889.0783     -43048.7    26.611932   0.94510968 
   12800    233.21246    -710.2415     132128.5   -40130.028    2901.6064   -43031.635    26.713419   0.94524266 
   12900    231.38021   -690.14394    131927.03   -40199.139    2878.8097   -43077.949    26.956464   0.94668618 
   13000    231.48973   -796.89659    132152.87   -40130.155    2880.1724   -43010.328    27.144283   0.94506831 
   13100     236.5555   -964.13235    132184.54   -40141.014    2943.2001   -43084.214    27.184104   0.94484193 
   13200    236.88221   -942.23185    132144.51   -40066.672     2947.265   -43013.937     27.40284   0.94512809 
   13300    235.02152    -769.3721    131952.68   -40119.542    2924.1145   -43043.657    27.466027   0.94650214 
   13400    230.42556   -695.02088    131963.72   -40202.532     2866.932   -43069.464    27.700685   0.94642291 
   13500    222.25375   -850.84918    132029.65   -40232.748    2765.2591   -42998.007    27.891069   0.94595032 
   13600    229.56581   -728.99729    131899.22   -40249.075    2856.2351    -43105.31    27.808442   0.94688574 
   13700    224.95467   -639.96693     132102.9   -40239.494    2798.8638   -43038.358    28.014038   0.94542578 
   13800    230.94717   -739.48991    132013.36   -40146.754    2873.4218   -43020.176    28.257418   0.94606703 
   13900    234.04116   -768.98286    131785.56   -40182.486     2911.917   -43094.403    28.395436   0.94770243 
   14000    228.82143   -851.84559    131966.87    -40145.81    2846.9736   -42992.784      28.4863   0.94640032 
   14100     229.5505    -806.0496    131873.94   -40150.139    2856.0446   -43006.184    28.636299   0.94706729 
   14200     223.9712   -854.01779    131997.45   -40185.407    2786.6275   -42972.034    28.725324   0.94618112 
   14300    229.22139   -635.59036    132170.18   -40232.295    2851.9499   -43084.245    28.770725   0.94494457 
   14400    231.50796   -754.78413    131794.28   -40205.221    2880.3992    -43085.62    29.032158   0.94763969 
   14500    230.65671   -703.47327    131866.75   -40149.107     2869.808   -43018.915    29.273681   0.94711887 
   14600    233.37618    -875.2681    131922.53   -40161.456    2903.6433   -43065.099    29.628707   0.94671843 
   14700    226.59333   -777.35996    131746.65   -40204.826    2819.2518   -43024.077    29.763447   0.94798233 
   14800    224.00986   -736.93998     131766.9   -40258.578    2787.1085   -43045.687    29.922875    0.9478366 
   14900    220.98307   -828.03992    131708.88   -40350.029    2749.4495   -43099.479    29.978315   0.94825411 
   15000    221.22073   -872.86034    131558.54   -40344.173    2752.4064    -43096.58    30.256989   0.94933776 
   15100    225.17812   -641.10973    131568.61   -40378.116     2801.644    -43179.76    30.425347   0.94926509 
   15200    228.65656   -709.55554    131599.71   -40285.049    2844.9223   -43129.971    30.630196   0.94904077 
   15300    230.57447   -637.34381    131674.85   -40295.991    2868.7847   -43164.776    30.841295    0.9484992 
   15400    223.41682   -1023.9733    131645.26   -40279.632      2779.73   -43059.362    30.806134   0.94871241 
   15500    225.15412   -611.68665    131554.96    -40251.17    2801.3453   -43052.516     30.84058   0.94936361 
   15600    226.25562   -769.71658    131532.46   -40176.582    2815.0501   -42991.632    31.084311   0.94952603 
   15700    227.77184   -807.39471    131686.33   -40254.714    2833.9147   -43088.629    31.084889   0.94841654 
   15800     228.7906   -721.50186    131797.95   -40253.573      2846.59   -43100.163    31.094471   0.94761332 
   15900    224.54535   -689.40467    131907.62   -40298.777     2793.771   -43092.548    31.472113   0.94682547 
   16000    229.04396   -813.50274    131725.54   -40252.267    2849.7423   -43102.009    31.465332   0.94813425 
   16100    229.91717   -690.00972    131736.49   -40196.529    2860.6068   -43057.136    31.475665   0.94805542 
   16200    227.72286   -805.90552    131778.11   -40262.262    2833.3054   -43095.568    31.473595   0.94775598 
   16300     224.9793   -749.91051    132074.07   -40284.575    2799.1702   -43083.746    31.505202    0.9456322 
   16400    234.25266    -704.6037    132198.27   -40178.058    2914.5485   -43092.606    31.562571    0.9447438 
   16500    235.85984    -667.3849     132162.7   -40181.713    2934.5449   -43116.258    31.788803   0.94499806 
   16600    235.94989   -875.33693    132112.97   -40175.418    2935.6652   -43111.083    32.250367   0.94535375 
   16700    236.09368   -679.21347     132227.6   -40206.589    2937.4542   -43144.043     32.36622   0.94453424 
   16800    232.49605    -739.2399    132190.45     -40196.6    2892.6929   -43089.293     32.56612   0.94479963 
   16900    231.59799   -723.47254    132147.54   -40158.522    2881.5193   -43040.041      32.7834   0.94510644 
   17000    229.75317   -714.95979    132252.79   -40170.543    2858.5662   -43029.109    32.866754   0.94435431 
   17100    235.93096   -645.24999    132495.32   -40095.256    2935.4297   -43030.686    33.142916   0.94262567 
   17200    231.82486   -795.74853    132368.43   -40128.164     2884.342   -43012.506    33.356294   0.94352929 
   17300    233.46582   -695.81316    132340.36   -40198.357    2904.7586   -43103.115    33.571561   0.94372944 
   17400    228.87529   -694.63771    132177.87   -40239.082    2847.6437   -43086.726    33.772421   0.94488956 
   17500    233.85943   -654.80446     132109.8   -40220.434     2909.656    -43130.09    34.093197   0.94537644 
   17600    234.29075   -725.02642    132036.19   -40191.499    2915.0224   -43106.521    34.093174   0.94590346 
   17700    230.12942   -942.21151    132042.61   -40224.265    2863.2475   -43087.513    34.101084   0.94585751 
   17800    225.24181   -989.05707     131939.2   -40236.579    2802.4363   -43039.015    34.200071   0.94659883 
   17900     231.3162   -710.14542    132025.37   -40206.085    2878.0133   -43084.098     34.43713   0.94598099 
   18000    235.40099   -764.26067    132167.04   -40158.548    2928.8359   -43087.384    34.499631   0.94496702 
   18100     231.6145   -705.54396    131962.21   -40275.401    2881.7247   -43157.126    34.579516   0.94643377 
   18200    231.26659   -958.79583    131908.05   -40271.494     2877.396    -43148.89    34.577952   0.94682238 
   18300    235.89471   -374.42106    132211.91   -40173.617    2934.9787   -43108.596     34.93375   0.94464629 
   18400     232.8355   -811.57838    132377.46   -40236.184    2896.9163     -43133.1    35.009313   0.94346497 
   18500    232.52996   -750.29932    132484.21   -40212.415    2893.1148    -43105.53    35.092415   0.94270476 
   18600    229.62296   -572.61817    132414.43   -40265.039    2856.9461   -43121.985    35.265565   0.94320153 
   18700    229.15875   -879.96034    132358.52   -40233.424    2851.1705   -43084.594    35.623217   0.94359994 
   18800     233.0375   -629.48889    132425.92   -40209.412    2899.4295   -43108.841    35.631461   0.94311966 
   18900    235.49644   -713.29662    132380.41   -40235.807    2930.0235   -43165.831    35.861961   0.94344388 
   19000    238.65527   -528.52682    132272.08   -40224.377    2969.3253   -43193.703    36.048548   0.94421659 
   19100    234.80849   -669.54378    132678.95   -40283.593     2921.464   -43205.057    36.286977    0.9413211 
   19200    231.00505    -661.1032    132697.65   -40261.343    2874.1419   -43135.485    36.148277   0.94118838 
   19300     233.0017   -887.07486    132724.83   -40215.517    2898.9842   -43114.501    36.399999   0.94099567 
   19400    231.61302   -727.79852    132734.87   -40241.833    2881.7062   -43123.539    36.535798   0.94092453 
   19500    231.19198   -742.31973    132684.75   -40247.473    2876.4677    -43123.94    36.371145   0.94127994 
   19600    229.27525   -964.00659    132739.87   -40305.998      2852.62   -43158.618    36.566474   0.94088906 
   19700     229.9644   -821.56805    132747.34   -40287.043    2861.1943   -43148.237    36.819922   0.94083609 
   19800    229.34885   -679.42838     132658.8   -40327.451    2853.5357   -43180.987    36.835707   0.94146403 
   19900    229.20012   -792.90534    132640.23   -40325.252    2851.6853   -43176.937    37.073452   0.94159589 
   20000    226.93249   -897.72964    132432.53   -40364.224    2823.4716   -43187.695    37.236351   0.94307259 
   20100    224.45646   -777.94896     132481.3   -40304.642    2792.6651   -43097.307    37.604645   0.94272547 
   20200    231.09818   -769.68806    132605.34   -40347.039    2875.3007    -43222.34    37.428624   0.94184358 
   20300    228.29565   -796.25619    132694.05   -40385.716    2840.4319   -43226.148    37.415646   0.94121396 
   20400    226.48779    -903.8229    132647.66   -40370.631    2817.9387    -43188.57    37.585412    0.9415431 
   20500    227.77066   -569.15301    132549.79   -40334.089       2833.9   -43167.989    37.486003   0.94223832 
   20600     225.9214   -768.18319     132563.5   -40355.549    2810.8917   -43166.441     37.74232   0.94214086 
   20700    231.01215   -721.70865     132436.9   -40290.118    2874.2303   -43164.348    38.054174   0.94304146 
   20800    226.93999   -624.14119    132466.52   -40281.951    2823.5649   -43105.516    38.310868   0.94283062 
   20900    229.97804   -734.52188    132343.19   -40325.242     2861.364   -43186.606    38.658898   0.94370924 
   21000     226.4958   -658.87818    132335.38   -40417.216    2818.0384   -43235.254     38.32658   0.94376496 
   21100     230.4836   -686.78313     132673.7   -40436.417    2867.6541   -43304.071    38.128837   0.94135829 
   21200    225.65913   -949.26556    132482.38   -40423.082    2807.6285   -43230.711    38.298818   0.94271774 
   21300    224.51009   -863.67286    132396.16   -40424.672    2793.3323   -43218.004    38.625115   0.94333166 
   21400    230.17306   -595.26171    132284.27   -40385.869    2863.7905    -43249.66    38.908637   0.94412957 
   21500    226.02268   -894.25648    132361.94   -40385.106    2812.1519   -43197.258     39.31727   0.94357555 
   21600    230.71597   -746.41151    132298.91   -40327.165    2870.5452   -43197.711     39.39577   0.94402509 
   21700    230.15481   -774.62589    132371.42   -40291.849    2863.5634   -43155.412    39.202832   0.94350799 
   21800    233.31136   -885.89212    132333.98    -40269.71    2902.8369   -43172.547    39.187278   0.94377493 
   21900    227.29181   -729.53036    132342.28   -40270.176    2827.9422   -43098.118    39.213623   0.94371571 
   22000     232.0843   -588.49307    132400.49   -40316.625    2887.5699   -43204.195    39.364583   0.94330083 
   22100    234.50125   -789.40251    132494.32   -40248.263    2917.6413   -43165.904    39.595761    0.9426328 
   22200    226.53821   -805.81893    132374.97   -40282.837     2818.566   -43101.403    39.644977   0.94348269 
   22300    231.84944    -658.6299    132320.51   -40257.369    2884.6478   -43142.017    39.832434   0.94387096 
   22400    232.19509   -629.50338     132425.2   -40229.615    2888.9483   -43118.563    40.164894   0.94312478 
   22500    231.96235   -606.35733     132569.2   -40242.051    2886.0526   -43128.104    40.226057   0.94210037 
   22600     236.6544   -922.55948    132518.01    -40220.38    2944.4306   -43164.811    40.389714   0.94246429 
   22700    231.06215    -958.2823    132339.32   -40241.124    2874.8525   -43115.976    40.361877   0.94373681 
   22800    234.32384   -669.93287    132451.01   -40224.966     2915.434     -43140.4    40.386458   0.94294105 
   22900    230.51116   -694.57397    132297.92    -40263.25    2867.9971   -43131.247    40.436388   0.94403217 
   23000    226.97842   -780.64394     132233.7   -40244.883    2824.0431   -43068.926    40.790758   0.94449062 
   23100      227.847   -818.31707    132173.87   -40349.733    2834.8498   -43184.583    40.757489   0.94491816 
   23200    227.68448   -701.58424    132241.83   -40273.997    2832.8278   -43106.825    40.850567   0.94443257 
   23300    225.97205   -755.03684    132326.72   -40309.747     2811.522   -43121.268    41.355444   0.94382673 
   23400    228.01815   -679.33604    132280.94   -40221.657    2836.9793   -43058.637     41.03293    0.9441533 
   23500    226.18257   -732.61436    132398.37   -40251.714    2814.1412   -43065.855    41.019779   0.94331594 
   23600    231.77142   -841.89492    132385.25   -40229.021    2883.6771   -43112.698    41.159745   0.94340943 
   23700    230.43088   -923.03694     132238.5   -40276.311    2866.9983    -43143.31    41.266578   0.94445633 
   23800    226.56303   -602.35469    132118.84   -40325.051    2818.8748   -43143.926      41.7106   0.94531172 
   23900    228.30846   -741.61377    132112.36   -40334.885    2840.5912   -43175.476    42.079122    0.9453581 
   24000    229.82933    -814.8728    132135.43   -40266.508    2859.5138   -43126.022    41.972668   0.94519307 
   24100     228.9765   -607.23009    132159.68   -40262.647     2848.903    -43111.55    41.875232   0.94501966 
   24200    226.95916   -677.46961    132210.92   -40313.659    2823.8034   -43137.463    41.985465   0.94465337 
   24300    227.00509   -759.54636    132442.77   -40280.291    2824.3748   -43104.665    42.450026   0.94299968 
   24400    227.18143   -814.86521    132395.08   -40329.245    2826.5689   -43155.814    42.913018   0.94333939 
   24500    234.40361   -705.20927    132428.32   -40288.662    2916.4266   -43205.088    43.155002   0.94310256 
   24600    227.86321   -777.25797    132687.04   -40287.187    2835.0515   -43122.238    43.411226   0.94126365 
   24700    229.10886     -823.646    132593.91   -40320.352    2850.5498   -43170.901    43.642689   0.94192482 
   24800    227.42175   -862.28895    132640.63    -40319.05     2829.559   -43148.609    43.901347   0.94159305 
   24900    227.36705   -774.46168    132534.71   -40262.922    2828.8784     -43091.8    44.090793   0.94234555 
   25000    235.42912   -768.00774    132702.64   -40226.442    2929.1859   -43155.627    44.528433   0.94115302 
   25100    233.45633   -788.51663    132518.62   -40229.718    2904.6406   -43134.359    44.676772   0.94245993 
   25200    230.20065   -686.47732    132408.62   -40280.068    2864.1337   -43144.201    44.631354   0.94324292 
   25300    232.28131   -746.35129    132547.62   -40271.535    2890.0211   -43161.556    44.518279   0.94225377 
   25400     229.2223   -717.41761     132708.7   -40258.828    2851.9612   -43110.789    44.689489   0.94111004 
   25500    228.73267   -759.37859     132838.8   -40217.225    2845.8693   -43063.094     44.68372   0.94018837 
   25600    229.86353   -971.71434    132929.11   -40303.919    2859.9393   -43163.859    44.893261   0.93954956 
   25700    230.02843   -696.77355    132878.53   -40330.347     2861.991   -43192.338    44.982321    0.9399072 
   25800     230.3624   -949.54396    132885.12   -40313.603    2866.1462   -43179.749    45.119204   0.93986062 
   25900    230.38323   -532.92674    132851.09   -40267.462    2866.4053   -43133.868    45.272239   0.94010138 
   26000    233.38059   -699.75416    132866.19   -40185.857    2903.6982   -43089.556    45.179176   0.93999454 
   26100     227.6483   -771.44466    132980.37   -40257.146    2832.3776   -43089.524    45.311666   0.93918745 
   26200    229.77834   -775.81486    132992.58     -40252.6    2858.8794   -43111.479    45.504995    0.9391012 
   26300    229.67795   -852.66342    132877.92   -40233.592    2857.6303   -43091.223    45.814914   0.93991156 
   26400     232.2619   -819.37672    132829.29   -40232.979    2889.7796   -43122.759     45.94577   0.94025567 
   26500     225.3588   -724.89434    132861.94   -40287.517    2803.8919   -43091.409    46.045797    0.9400246 
   26600    227.17377   -687.66789    132624.27   -40335.048    2826.4736   -43161.521    46.000788   0.94170917 
   26700    227.51082   -757.49026    132582.73   -40362.539    2830.6671   -43193.206    46.158497    0.9420042 
   26800    230.09869   -584.34702    132585.78   -40296.431    2862.8652   -43159.296    46.444246   0.94198257 
   26900    231.64988   -854.67624    132788.93   -40292.055    2882.1649    -43174.22    46.364137   0.94054145 
   27000    227.02041   -745.53704    132690.19   -40339.621    2824.5655   -43164.187    46.372073   0.94124132 
   27100    228.15037   -712.77425     132632.9   -40343.774    2838.6243   -43182.399    46.662693   0.94164786 
   27200    226.34023   -777.37954    132739.94   -40355.906    2816.1028   -43172.009      46.9201   0.94088857 
   27300    227.61253    -698.1127    132898.81   -40376.373    2831.9326   -43208.306    47.147441   0.93976381 
   27400     233.0857   -430.61784    133007.23   -40334.197    2900.0293   -43234.227    47.538216   0.93899774 
   27500    230.69454   -652.68689    133140.71   -40275.927    2870.2787   -43146.206    47.764071    0.9380564 
   27600    235.58315   -834.84456     133141.4   -40310.573    2931.1022   -43241.675    47.943647    0.9380515 
   27700    229.71101    -653.6642    133102.41   -40324.008    2858.0417   -43182.049    48.164108   0.93832631 
   27800    228.80117   -683.32982    133236.64   -40252.767    2846.7215   -43099.488    48.515572   0.93738098 
   27900    228.67962   -909.58572    133088.27   -40264.249    2845.2092   -43109.458    48.509517   0.93842595 
   28000    229.74566   -762.42437    132848.65   -40303.412    2858.4728   -43161.885    48.337739    0.9401186 
   28100    229.04825     -727.761    132801.48   -40281.736    2849.7957   -43131.532    48.379123   0.94045254 
   28200    229.60726   -562.10329    132833.79   -40322.392    2856.7509   -43179.143    48.439654   0.94022377 
   28300    228.37799   -752.86698    132862.65   -40316.007    2841.4563   -43157.463    48.375775   0.94001954 
   28400    227.43282   -752.05242    133084.34   -40350.904    2829.6967   -43180.601    48.719575   0.93845367 
   28500    225.75629    -840.7226    133050.57   -40382.096    2808.8375   -43190.933     48.79967   0.93869189 
   28600    229.98002   -691.48389    133111.41   -40337.058    2861.3887   -43198.446    48.940917   0.93826287 
   28700    226.50739   -720.82222    132987.98    -40335.52    2818.1826   -43153.702     48.90901    0.9391337 
   28800    233.33917   -925.61257    132943.51   -40306.208    2903.1829   -43209.391    49.137412   0.93944783 
   28900    232.96293   -536.38053    132999.48   -40271.536    2898.5018   -43170.038    48.909824   0.93905251 
   29000    229.54953   -755.52153     133003.8   -40361.281    2856.0326   -43217.313    48.891062   0.93902197 
   29100    232.23612   -783.71724    133045.48   -40312.173    2889.4588   -43201.632    48.859204   0.93872777 
   29200    233.19671   -691.43363    133080.55   -40302.087    2901.4105   -43203.498    48.868536   0.93848043 
   29300    229.59843   -528.65083    132814.76   -40374.572    2856.6409   -43231.213    48.727934   0.94035851 
   29400    226.90527    -767.7483    132736.77   -40428.174    2823.1329   -43251.306    48.707666   0.94091105 
   29500    227.41323   -814.67696    132583.49   -40454.532    2829.4529   -43283.985    49.052168   0.94199885 
   29600    230.35373   -756.68981    132720.23   -40359.413    2866.0383   -43225.451    49.208077   0.94102826 
   29700    223.43018   -919.72673    132545.46   -40409.722    2779.8962   -43189.618    49.416484   0.94226912 
   29800    230.04624   -696.50156     132621.1   -40363.764    2862.2126   -43225.976     49.63504   0.94173167 
   29900    226.32526   -716.93324     132631.8   -40378.949    2815.9165   -43194.866    49.723218   0.94165567 
   30000    228.42905   -869.53905    132431.75   -40350.923    2842.0917   -43193.015    49.789647   0.94307814 
   30100    227.36642    -715.8788    132214.71   -40337.845    2828.8705   -43166.716     49.59995   0.94462629 
   30200    224.95621   -648.49239    132340.58   -40351.848    2798.8829   -43150.731     49.86976   0.94372785 
   30300    228.86642    -785.3854    132244.89   -40327.212    2847.5334   -43174.746    50.011129    0.9444107 
   30400    228.49566   -864.16434    132396.76    -40311.88    2842.9204   -43154.801    50.345205   0.94332737 
   30500    232.66589   -647.47996    132281.59   -40324.419     2894.806   -43219.225    50.341199   0.94414871 
   30600     228.7079   -884.51888    132267.36    -40307.59    2845.5611   -43153.151     50.42691   0.94425031 
   30700    230.12133   -833.76652    132288.93   -40311.544    2863.1469   -43174.691    50.553067   0.94409633 
   30800    232.05072   -552.97985     132161.9    -40249.65    2887.1521   -43136.802    50.824797   0.94500377 
   30900    232.38557   -745.81519    132339.56   -40384.567    2891.3182   -43275.885    51.042337   0.94373512 
   31000    226.68862   -700.60021    132419.74   -40446.188    2820.4375   -43266.626    51.067211   0.94316369 
   31100    228.95232   -722.44033    132477.23   -40447.245    2848.6021   -43295.847    51.174588   0.94275442 
   31200    225.29763   -849.57552    132381.21   -40447.306    2803.1309   -43250.437    51.511636   0.94343818 
   31300    229.90254   -489.14418    132423.06   -40384.207    2860.4246   -43244.632    51.773716   0.94314006 
   31400    229.97591   -918.61884    132398.21   -40347.599    2861.3375   -43208.937    52.044604    0.9433171 
   31500    232.55604   -825.31353    132213.95   -40397.985    2893.4392   -43291.424    51.909704   0.94463172 
   31600    231.20069    -752.2009    132402.14    -40326.53    2876.5761   -43203.106    51.695535    0.9432891 
   31700    230.17977   -827.18758    132503.39    -40352.35    2863.8739   -43216.224    51.835686   0.94256825 
   31800    234.29767   -804.74065    132392.14    -40280.71    2915.1084   -43195.818    51.724854   0.94336034 
   31900    233.45504   -843.05396    132386.04   -40273.836    2904.6246   -43178.461     51.90563   0.94340377 
   32000    230.95641   -777.62037    132456.81   -40272.679    2873.5368   -43146.216    52.255669   0.94289977 
   32100    228.84348   -570.71824    132510.33   -40290.272    2847.2479    -43137.52    52.227567   0.94251893 
   32200    229.66056   -782.58324    132809.34    -40280.23     2857.414   -43137.644    52.507426    0.9403969 
   32300    230.86982   -894.93244     132618.6   -40253.815    2872.4595   -43126.275    52.544614   0.94174943 
   32400    227.63931   -685.43101    132841.19   -40294.633    2832.2657   -43126.899    52.928096   0.94017139 
   32500    232.42922   -881.59249    132840.69   -40301.047    2891.8614   -43192.908    52.857736   0.94017496 
   32600    232.23949   -933.14219    132815.81   -40231.426    2889.5008   -43120.927    53.312533   0.94035107 
   32700    230.91374   -645.48925    132654.37   -40299.689    2873.0059   -43172.695    53.213807   0.94149551 
   32800    226.17054   -755.29951     132700.5    -40343.67    2813.9915   -43157.661    53.276278   0.94116821 
   32900    225.11817   -722.21115    132754.79   -40343.816    2800.8981   -43144.714    53.557485   0.94078333 
   33000    228.55655    -854.5207    132664.46   -40407.213     2843.678   -43250.891    53.641774   0.94142389 
   33100    232.46327   -800.39094     132477.4   -40340.473     2892.285   -43232.758    53.655155   0.94275319 
   33200     226.3254   -824.38065    132306.11   -40389.428    2815.9182   -43205.346    53.738725   0.94397373 
   33300      228.701   -745.49713     132220.6   -40319.119    2845.4752   -43164.594    53.810309   0.94458421 
   33400    223.28454   -703.24244    132096.93    -40407.25    2778.0841   -43185.334     53.76578   0.94546855 
   33500    230.37647   -423.22272    132400.82   -40351.227    2866.3213   -43217.549    54.039953   0.94329845 
   33600    230.01835   -695.22251    132517.89   -40318.913    2861.8656   -43180.778    54.150229   0.94246515 
   33700    230.42969   -858.22835    132441.52    -40312.59    2866.9834   -43179.573    54.017271   0.94300856 
   33800    230.98341     -788.857    132402.41   -40311.473    2873.8728   -43185.346     54.30096   0.94328714 
   33900     232.8696   -611.24083    132464.42   -40309.232    2897.3405   -43206.573    54.344421   0.94284555 
   34000    230.43588    -896.1873     132527.7   -40273.364    2867.0604   -43140.424    54.576113   0.94239536 
   34100    229.05835   -750.27519    132360.31   -40302.186    2849.9213   -43152.107    54.600205   0.94358721 
   34200    232.76181   -733.52341    132419.76   -40304.749    2895.9994   -43200.749    54.810019   0.94316352 
   34300    227.25549   -781.89823    132538.83   -40354.227    2827.4904   -43181.717    55.082622   0.94231621 
   34400    229.74297   -843.19567    132488.99   -40290.918    2858.4394   -43149.358    55.324271    0.9426707 
   34500    233.46198   -859.41079    132571.16   -40318.707    2904.7109   -43223.417    55.513661    0.9420864 
   34600    229.69895   -822.36746    132403.89   -40308.902    2857.8917   -43166.794    55.541853   0.94327662 
   34700    225.48812    -862.6853    132347.01   -40394.709    2805.5009    -43200.21    55.649061   0.94368201 
   34800     228.1066   -754.83862    132443.17   -40360.527    2838.0798   -43198.607    55.806587   0.94299681 
   34900    227.56456   -707.95615    132362.78   -40375.539    2831.3357   -43206.874    55.847419   0.94356955 
   35000    221.23942   -804.68184    132301.61   -40445.092    2752.6389    -43197.73    56.010641   0.94400582 
   35100    229.61947   -686.77913    132361.75   -40370.998    2856.9028     -43227.9    56.311978    0.9435769 
   35200     227.4417   -792.99972    132204.74   -40388.042    2829.8071   -43217.849    56.400185   0.94469753 
   35300    230.67217   -711.61053    132310.05   -40377.735    2870.0003   -43247.736    56.657024   0.94394563 
   35400    224.65355   -906.04794    132341.85   -40388.279    2795.1172   -43183.396    56.836723   0.94371879 
   35500    231.65704   -913.44412    132219.66   -40272.894    2882.2539   -43155.148    56.748387   0.94459092 
   35600    231.10897   -819.60179    132135.07   -40324.546     2875.435   -43199.981    56.849635   0.94519561 
   35700    231.24026   -851.28251    132094.85   -40277.096    2877.0685   -43154.165    57.053898   0.94548341 
   35800    227.72643   -680.57553    132172.47   -40301.971    2833.3497    -43135.32    57.143837    0.9449282 
   35900    232.36538   -682.77002    132282.13    -40261.65    2891.0671   -43152.717    57.258514   0.94414488 
   36000    233.60024   -971.00941    132449.12   -40222.951    2906.4311   -43129.382    57.571235   0.94295449 
   36100    231.66193   -636.37172    132336.08    -40261.45    2882.3148   -43143.765    57.526291   0.94375992 
   36200      228.819   -717.56296    132456.46   -40282.649    2846.9434   -43129.593      57.6157   0.94290221 
   36300    227.64536   -776.70406    132334.94   -40343.745    2832.3411   -43176.086    57.853469   0.94376808 
   36400    230.65149    -761.7077    132321.49   -40288.435    2869.7431   -43158.178    57.605678     0.943864 
   36500    232.85182   -663.58232    132372.63   -40275.845    2897.1193   -43172.964    57.404368   0.94349932 
   36600     227.3204    -728.7172    132478.04   -40417.162     2828.298    -43245.46    57.411638   0.94274866 
   36700     226.5351   -625.76791    132400.98   -40360.063    2818.5273   -43178.591    57.579611   0.94329733 
   36800    225.83987   -657.13627    132579.55   -40346.904    2809.8773   -43156.781    57.964501   0.94202685 
   36900    231.21259   -789.47312    132413.75   -40354.001    2876.7242   -43230.726    58.081183   0.94320633 
   37000    229.20894   -614.60924    132364.43    -40292.24     2851.795   -43144.035    58.183005   0.94355781 
   37100    230.01973   -744.61292    132258.54   -40277.901    2861.8827   -43139.784    58.062188   0.94431322 
   37200    227.31551   -744.44313    132305.05   -40350.475    2828.2371   -43178.712    57.956055   0.94398132 
   37300    232.16796   -491.04753    132232.66   -40376.327    2888.6108   -43264.938    58.025866   0.94449809 
   37400    227.98252   -685.65308    132283.56   -40408.009     2836.536   -43244.545    58.057522   0.94413463 
   37500    228.42315   -858.84792    132221.72   -40410.026    2842.0183   -43252.044    58.446212   0.94457618 
   37600    227.39637   -817.44587    132372.64   -40342.466    2829.2432   -43171.709    58.536177   0.94349926 
   37700    230.09041   -725.04457    132407.64   -40342.977    2862.7622   -43205.739    58.746309   0.94324991 
   37800    224.03409    -783.5328    132329.78   -40437.734    2787.4099   -43225.144    58.922617   0.94380488 
   37900    226.54455   -823.41896    132240.01   -40388.835     2818.645    -43207.48    58.872519   0.94444554 
   38000    228.16331   -775.67375    132207.61   -40343.951    2838.7853   -43182.736    58.915027   0.94467699 
   38100    230.35437   -642.18214    132326.93   -40300.567    2866.0463   -43166.614    59.343165   0.94382522 
   38200    232.07384   -668.83176    132420.55   -40314.504    2887.4398   -43201.944    59.458378   0.94315793 
   38300    233.38665   -752.59868    132504.41   -40262.109    2903.7736   -43165.882    59.695178     0.942561 
   38400     230.3965   -711.60932    132391.04   -40343.187    2866.5705   -43209.757    59.824409   0.94336812 
   38500    233.30376   -837.72904    132579.32   -40375.998    2902.7423    -43278.74    60.072434   0.94202845 
   38600    232.58127    -718.1415    132474.77   -40351.716    2893.7532   -43245.469    60.000328   0.94277193 
   38700     227.0112   -773.87693    132380.31   -40353.921     2824.451   -43178.371    60.277857   0.94344464 
   38800    230.34761   -761.34007    132495.74   -40386.814    2865.9622   -43252.776     60.19747   0.94262267 
   38900    229.03446   -631.76119    132559.38   -40341.143    2849.6242   -43190.767    60.702592   0.94217015 
   39000    232.12963   -699.07108    132750.21   -40389.289    2888.1339   -43277.423    60.930539   0.94081574 
   39100    229.12824   -804.32354    132948.97   -40350.897    2850.7909   -43201.688    60.889376   0.93940922 
   39200    233.17291   -839.66796    132861.55    -40384.24    2901.1143   -43285.355    60.804768   0.94002732 
   39300    228.13974   -767.51967    132790.19   -40376.282    2838.4921   -43214.774     60.99822   0.94053252 
   39400    230.22804   -743.12053    132762.02   -40334.857    2864.4746   -43199.332    61.117353   0.94073205 
   39500    233.37626   -660.77675    133059.91   -40307.436    2903.6443    -43211.08    61.302132     0.938626 
   39600    229.43479   -893.71972    133000.89   -40340.046     2854.605   -43194.651    61.547607    0.9390425 
   39700    234.45088   -765.51747    132964.79   -40292.278    2917.0147   -43209.292    61.633022   0.93929747 
   39800    230.01208   -877.25442    132902.38   -40377.388    2861.7876   -43239.175    61.923842   0.93973859 
   39900    228.55286   -849.46441    132794.69   -40420.388    2843.6321    -43264.02    61.908108   0.94050065 
   40000    225.11936   -745.42549    132924.77   -40428.423    2800.9129   -43229.336    61.958321   0.93958026 
   40100    232.17459   -1012.6598     132703.9   -40316.613    2888.6933   -43205.306    61.861687   0.94114407 
   40200    227.49138   -544.49508    132652.29   -40327.576    2830.4252   -43158.001    62.010181   0.94151028 
   40300    232.48812   -607.81971    132712.73    -40304.14    2892.5942   -43196.734    62.217965   0.94108149 
   40400    233.32707   -740.53962    132913.25   -40196.276    2903.0323   -43099.308    62.438197   0.93966174 
   40500    233.15402   -813.66107    132890.81    -40213.92    2900.8793   -43114.799    62.667645   0.93982037 
   40600    229.14931   -837.20863    133095.42   -40252.051     2851.053   -43103.104     63.11804   0.93837559 
   40700    232.14056   -694.96196    132827.46   -40320.727    2888.2699   -43208.997     63.26916   0.94026863 
   40800    227.37251   -677.86072    132652.43   -40386.702    2828.9463   -43215.649    62.992708   0.94150926 
   40900    229.42416   -707.34194    132731.04   -40421.906    2854.4727   -43276.379    63.104513   0.94095163 
   41000     227.3541   -844.35864    132844.88   -40350.223    2828.7172    -43178.94    63.132525    0.9401453 
   41100    233.16642    -654.5044    132822.84   -40349.724    2901.0335   -43250.757    63.423689   0.94030134 
   41200    230.14227   -619.64021    132897.17   -40359.596    2863.4073   -43223.003     63.65914   0.93977543 
   41300    226.14207   -716.81799    133073.55   -40528.203    2813.6373   -43341.841    63.661265   0.93852979 
   41400    230.19635   -834.72108    132918.08   -40486.512    2864.0803   -43350.592     63.54097   0.93962756 
   41500    230.32062     -953.954    132836.16   -40504.762    2865.6264   -43370.388    63.616682   0.94020701 
   41600    233.23362    -813.0849    132766.57    -40488.16    2901.8697    -43390.03    63.369794   0.94069981 
   41700    229.68374   -805.32726    132844.37   -40469.261    2857.7024   -43326.963    63.674643   0.94014889 
   41800     228.5692   -633.53777    132656.19   -40476.278    2843.8354   -43320.113    63.612338   0.94148257 
   41900    230.73426   -546.57826    132870.19   -40442.125    2870.7729   -43312.898    63.689852   0.93996624 
   42000    231.39486   -903.86231    132957.27    -40430.93     2878.992   -43309.922    64.006232    0.9393506 
   42100    228.94838   -721.13975    132965.12   -40441.643    2848.5531   -43290.196    64.284669   0.93929516 
   42200    231.40932   -768.75195     132850.3   -40408.255    2879.1718   -43287.427    64.032686   0.94010698 
   42300    229.32384   -812.86552    133043.94   -40367.507    2853.2246   -43220.732    64.382507   0.93873867 
   42400    226.88238      -820.39    132990.61   -40402.912    2822.8481   -43225.761    64.500442    0.9391151 
   42500    229.59287   -616.89562    132981.44   -40384.067    2856.5718   -43240.639    64.533916   0.93917984 
   42600    228.37542   -508.86186    133197.06   -40383.519    2841.4244   -43224.943    64.531773   0.93765954 
   42700    233.14385   -769.04183    133272.89   -40409.285    2900.7527   -43310.038    64.418205   0.93712601 
   42800    235.97615   -696.84511    133075.29   -40356.019     2935.992   -43292.011    64.982096   0.93851755 
   42900    227.46705   -764.69977    132963.16    -40439.71    2830.1226   -43269.833    64.925581   0.93930901 
   43000    228.47206   -721.38664    132717.38   -40464.802    2842.6268   -43307.429    64.602804   0.94104849 
   43100    232.98976   -814.02684    132720.83   -40435.434    2898.8356    -43334.27    64.770239   0.94102403 
   43200     231.1746   -722.71037    132855.88   -40382.767    2876.2515   -43259.018    65.167278   0.94006745 
   43300    228.27827    -559.5928    133040.54   -40380.322    2840.2156   -43220.537    65.184166   0.93876267 
   43400    234.41967   -849.92086     133104.6   -40327.062    2916.6263   -43243.688     65.47371   0.93831087 
   43500    233.23159   -617.71401    133162.92   -40318.343    2901.8444   -43220.187    65.595511    0.9378999 
   43600    236.01665   -918.40195    133096.33   -40219.614    2936.4958    -43156.11    65.676028   0.93836915 
   43700    231.51928   -789.68885    133079.52   -40248.632      2880.54   -43129.172    65.621347   0.93848767 
   43800    232.98698   -731.94078    132978.21   -40254.014    2898.8009   -43152.815      65.8166   0.93920267 
   43900    234.97406   -802.86262    132851.15   -40304.162     2923.524   -43227.686    66.001958   0.94010094 
   44000    231.42558   -667.01238    132981.15   -40330.846    2879.3742    -43210.22    66.126425   0.93918192 
   44100    228.88775   -654.60444    133095.58   -40348.374    2847.7987   -43196.173    66.383456   0.93837448 
   44200    229.28142   -954.89912    132870.11   -40386.628    2852.6968   -43239.325    66.512921   0.93996682 
   44300    226.04487   -783.47088    132922.39   -40396.454    2812.4279   -43208.882    66.839067   0.93959712 
   44400    231.64697   -842.26369     132912.4   -40350.729    2882.1287   -43232.858    66.602997    0.9396677 
   44500    225.72955   -679.71882    132718.23   -40376.504    2808.5047   -43185.009    66.625174   0.94104247 
   44600    223.25088    -752.2803    132843.16   -40441.218    2777.6653   -43218.883    66.543779   0.94015749 
   44700    228.84068   -674.85448    132930.12   -40415.209    2847.2131   -43262.423    66.724585   0.93954244 
   44800    228.38766   -869.65492    132985.75   -40369.363    2841.5767    -43210.94    66.599388   0.93914946 
   44900    229.11647   -735.79704    132905.81    -40315.18    2850.6445   -43165.824    66.785315   0.93971429 
   45000    231.66641   -698.23783    132685.58    -40331.61    2882.3706   -43213.981    66.769633   0.94127406 
   45100    229.67846   -900.89673    132847.86   -40263.454    2857.6367   -43121.091    67.143457   0.94012422 
   45200    234.20057   -681.72069    132761.13   -40327.785    2913.9004   -43241.685    67.223393   0.94073837 
   45300    227.02745   -860.44084    132668.87   -40341.258    2824.6531   -43165.911    67.427917   0.94139256 
   45400    229.41484   -822.24137    132763.25    -40318.94    2854.3567   -43173.297    67.673755    0.9407234 
   45500    232.93368   -569.45576    133000.56   -40335.885    2898.1378   -43234.023    67.716619   0.93904488 
   45600    228.28415   -819.28898    132960.57   -40354.666    2840.2888   -43194.955    67.754218   0.93932732 
   45700    231.32018   -956.85227    132879.34   -40386.864    2878.0629   -43264.927    67.509027   0.93990147 
   45800    228.71258   -754.22591       132567   -40351.947    2845.6193   -43197.566    67.408348   0.94211603 
   45900    233.71023   -779.95167    132754.47    -40276.78    2907.7996    -43184.58    67.601488   0.94078561 
   46000    235.09477   -581.41915     132576.5    -40248.35    2925.0258   -43173.376    67.806308   0.94204847 
   46100    235.97141    -851.0927    132600.46   -40192.352     2935.933   -43128.285     68.02587   0.94187829 
   46200    229.84868   -711.77155    132464.61   -40188.323    2859.7545   -43048.077    68.342225   0.94284423 
   46300    236.87435   -708.00734    132445.08   -40202.042    2947.1673    -43149.21     68.28454   0.94298324 
   46400    235.78112   -838.26833    132431.17    -40232.43    2933.5654   -43165.996    68.589381   0.94308229 
   46500    234.33755   -582.64989     132532.1   -40253.289    2915.6047   -43168.894    68.587123   0.94236411 
   46600    230.51493   -731.36971    132656.96   -40238.326     2868.044    -43106.37    68.617297   0.94147709 
   46700    227.93443   -751.88321    132656.23   -40323.287    2835.9377   -43159.225    68.564725    0.9414823 
   46800    227.88317   -799.43742    132689.23   -40375.971    2835.2999   -43211.271    68.581221   0.94124811 
   46900    229.87789   -634.62201    132913.27   -40283.154    2860.1179   -43143.272    68.861235    0.9396616 
   47000     228.5176    -764.1474    132611.91   -40257.945    2843.1934   -43101.138    68.928466   0.94179692 
   47100    235.83432   -875.61375     132595.8   -40242.258    2934.2273   -43176.485    69.094883   0.94191136 
   47200    232.37339   -754.74229    132343.45   -40299.412    2891.1668   -43190.579     69.06143   0.94370736 
   47300    230.70393   -801.25032    132600.23   -40322.494    2870.3955    -43192.89    69.278202   0.94187993 
   47400     231.0064   -706.75122    132800.51   -40289.374    2874.1588   -43163.533    69.520237   0.94045939 
   47500    232.20942   -646.01595    132829.48   -40244.177    2889.1266   -43133.303     69.44593   0.94025429 
   47600    237.39102   -674.52301    133055.46   -40203.471    2953.5956   -43157.067    69.569523   0.93865742 
   47700    233.17469   -883.23726    133056.53   -40268.014    2901.1365   -43169.151    69.602153   0.93864986 
   47800    234.26705   -608.55924     132925.6   -40285.556    2914.7275   -43200.284    69.839174   0.93957439 
   47900    229.68593   -753.02518    132863.78   -40392.591    2857.7297   -43250.321    70.139471   0.94001161 
   48000    228.56001   -806.00367    132787.72   -40434.511     2843.721   -43278.232    70.401563   0.94055002 
   48100    235.07796   -680.64432    133003.55   -40410.172    2924.8168   -43334.989    70.740077   0.93902371 
   48200    232.47757   -831.62814    133085.16   -40453.026     2892.463   -43345.489    70.646412   0.93844792 
   48300    231.72211   -731.58955    133101.02   -40446.009    2883.0636   -43329.072    70.501664   0.93833607 
   48400    231.59975   -770.80041    133349.03   -40377.412    2881.5412   -43258.953    70.775301   0.93659091 
   48500    232.78151   -802.01926    133171.06   -40436.547    2896.2445   -43332.791    70.808858   0.93784261 
   48600    230.18204    -796.5312    133175.71   -40439.794    2863.9022   -43303.697    71.068739   0.93780987 
   48700    233.09636   -571.47059    133077.23   -40409.388    2900.1619    -43309.55    71.143238   0.93850386 
   48800    228.25895   -836.76669    133214.06    -40442.78    2839.9752   -43282.755    71.310522   0.93753983 
   48900    229.85183    -669.6382     133266.2   -40430.532    2859.7937   -43290.326    71.438889   0.93717304 
   49000    228.76183   -898.72345    133227.46   -40462.778    2846.2321    -43309.01    71.190146   0.93744555 
   49100    229.38679    -607.8945    133228.75   -40459.385    2854.0078   -43313.393    71.481685    0.9374365 
   49200    230.02831   -686.17583    133414.25    -40481.04    2861.9894   -43343.029    71.531598    0.9361331 
   49300    232.46747    -787.5489    133506.96   -40424.753    2892.3373    -43317.09    71.872862   0.93548298 
   49400    230.37876   -871.97841    133463.08   -40405.341    2866.3498   -43271.691    71.862393   0.93579059 
   49500    233.89948   -728.07825    133568.61    -40425.97    2910.1542   -43336.124    71.626926   0.93505124 
   49600    229.88349    -892.9342     133646.6   -40426.751    2860.1877   -43286.939    71.911232   0.93450559 
   49700    225.37746   -862.87211    133517.84   -40438.451    2804.1241   -43242.575    72.033718   0.93540678 
   49800    230.78271   -824.66918       133584   -40492.656    2871.3756   -43364.031    72.256167    0.9349435 
   49900     230.7756   -749.31597    133496.46    -40367.22    2871.2872   -43238.508    72.271155   0.93555655 
   50000    232.33221   -872.41048    133449.87    -40411.52    2890.6544   -43302.174    72.463747   0.93588322 
   50100    231.69689   -920.83354    133527.07   -40428.241    2882.7499   -43310.991     72.59927   0.93534209 
   50200    229.33678   -694.41981    133479.87   -40459.533    2853.3856   -43312.918    72.564122   0.93567289 
   50300    233.20739   -847.63902    133584.05   -40419.139    2901.5433   -43320.682     72.55951   0.93494312 
   50400    229.98568   -571.69395    133371.26   -40451.712    2861.4591   -43313.171    72.618235   0.93643483 
   50500    227.76815   -960.85429    133207.25   -40500.634    2833.8688   -43334.503    72.435376    0.9375878 
   50600    227.49415   -596.01234    133221.85    -40518.74    2830.4597     -43349.2    72.482649   0.93748502 
   50700    230.11746   -576.90938     133292.1   -40517.055    2863.0987   -43380.154      72.4816   0.93699093 
   50800     230.1754   -702.31959    133429.75   -40515.123    2863.8196   -43378.943    72.760219   0.93602435 
   50900    231.76242   -640.34882    133437.49   -40420.249    2883.5651   -43303.815    72.907877      0.93597 
   51000      228.111   -770.63822    133292.46    -40442.12    2838.1345   -43280.255     73.06994   0.93698844 
   51100    226.30416   -686.81097    133227.34   -40479.404     2815.654   -43295.058    73.109463   0.93744641 
   51200    235.61755   -764.98685    133389.02   -40461.252    2931.5303   -43392.782    73.287105   0.93631012 
   51300    221.13081   -865.09063    133378.95   -40532.344    2751.2877   -43283.632    73.473546   0.93638079 
   51400    221.18451   -745.91891    133256.14   -40524.935    2751.9558   -43276.891    73.455022   0.93724378 
   51500    230.83191   -707.18451    133117.46   -40513.123    2871.9879   -43385.111     73.48018   0.93822021 
   51600    227.49022   -894.00893    133087.92   -40460.124    2830.4108   -43290.535     73.59575   0.93842843 
   51700    232.45579   -881.28961    133152.16   -40456.401     2892.192   -43348.593    73.645199   0.93797569 
   51800    231.20569   -831.97055    133107.72   -40510.571    2876.6383    -43387.21    73.754971    0.9382889 
   51900    223.95838   -675.70911    132927.23   -40551.329     2786.468   -43337.797    73.713951   0.93956288 
   52000    227.24628   -908.57393    133139.47   -40578.859    2827.3757   -43406.235    73.712124   0.93806512 
   52100    224.82366   -675.71859    133103.65    -40535.85    2797.2338   -43333.084    73.771457   0.93831752 
   52200    226.64671   -660.96091    133292.24   -40566.842     2819.916   -43386.758    73.999225   0.93698998 
   52300    228.12006   -917.29353     133040.4   -40564.811    2838.2473   -43403.058    73.893269   0.93876362 
   52400    230.77189   -646.56586    132888.96   -40518.822    2871.2411   -43390.063    73.809297   0.93983349 
   52500    231.27251   -704.61428    132827.81   -40510.721    2877.4697    -43388.19    74.007886    0.9402661 
   52600    228.52877   -836.74505    132840.09   -40535.188    2843.3323   -43378.521    74.331614   0.94017923 
   52700    226.44271   -864.39084    132886.51   -40532.797    2817.3779   -43350.175    74.175728   0.93985081 
   52800     233.4644   -660.35604    132813.78    -40474.18     2904.741   -43378.921    74.228883   0.94036549 
   52900     231.1928   -751.76041    132904.49   -40450.322     2876.478     -43326.8    74.298678   0.93972367 
   53000    233.20298   -691.40141    132960.46   -40416.383    2901.4884   -43317.872    74.320553   0.93932809 
   53100    227.72834   -782.09044    132898.64   -40462.551    2833.3735   -43295.925    74.688203   0.93976501 
   53200    227.40422   -771.05977    133212.28   -40455.054    2829.3409   -43284.395     74.91241   0.93755237 
   53300    232.80755    -826.6473     133329.6   -40452.684    2896.5686   -43349.253    75.002359   0.93672738 
   53400    227.63103   -689.85211    133291.51   -40539.257    2832.1628   -43371.419    75.350809    0.9369951 
   53500    230.42095   -783.70776    133306.12   -40556.939    2866.8747   -43423.814    75.255825   0.93689238 
   53600    225.61375   -790.34386    133388.54   -40564.627    2807.0639   -43371.691    75.306243   0.93631351 
   53700    225.37488   -916.38363    133281.83   -40596.869     2804.092    -43400.96    75.417523   0.93706317 
   53800    227.98715   -763.21591    133268.19   -40459.494    2836.5936   -43296.087    75.485578   0.93715903 
   53900    233.40652   -723.25979       133414   -40504.685    2904.0208   -43408.705    75.540595   0.93613484 
   54000    231.34696   -643.13456    133369.97   -40474.808    2878.3961   -43353.204    75.825398   0.93644385 
   54100    231.27511    -824.2129    133186.41   -40504.469    2877.5021   -43381.971    75.836081   0.93773453 
   54200    229.29064   -728.37952     133085.3   -40493.453    2852.8115   -43346.265    75.793615    0.9384469 
   54300    228.01221   -540.91088    133118.77   -40465.885    2836.9054   -43302.791    75.859996   0.93821095 
   54400    228.26871   -932.20751    133220.41   -40499.156    2840.0968   -43339.253    76.165745   0.93749516 
   54500    226.96799   -813.15842    133092.61   -40484.633    2823.9133   -43308.546    75.850329    0.9383954 
   54600     227.1108   -642.33713    133156.27   -40388.035    2825.6902   -43213.725    76.009631   0.93794675 
   54700    233.38811   -764.63725    133104.73   -40403.953    2903.7918   -43307.745    76.051323   0.93830991 
   54800    234.62782   -582.98618    132964.49   -40486.397    2919.2162   -43405.613    76.389158   0.93929962 
   54900    230.42126   -553.91036    133052.23   -40544.456    2866.8785   -43411.335    76.949503   0.93868018 
   55000    225.79857   -727.76208    133210.24   -40608.001    2809.3634   -43417.364    77.308543   0.93756678 
   55100    230.10436   -781.88077    133204.46   -40572.545    2862.9357    -43435.48     77.34373   0.93760742 
   55200     223.5526   -941.90569    133180.85   -40585.126    2781.4193   -43366.545    77.366012   0.93777363 
   55300    229.88386   -802.20862    132956.46   -40531.703    2860.1923   -43391.895    77.254589   0.93935632 
   55400    230.69739   -721.47518    132877.31   -40503.718    2870.3142   -43374.033    76.958397   0.93991583 
   55500    232.83082   -790.36572    133039.13     -40434.8    2896.8581   -43331.658    77.142903   0.93877262 
   55600     234.3437    -864.0352    133004.29   -40471.704    2915.6812   -43387.385    77.053807   0.93901851 
   55700    227.61381   -673.59996    132882.77   -40469.827    2831.9485   -43301.776    77.604291   0.93987721 
   55800     234.0015   -781.54952    132890.51   -40455.376    2911.4235   -43366.799     77.45316   0.93982253 
   55900    235.02615   -896.08096    132689.03   -40432.443    2924.1721   -43356.615    77.455661   0.94124956 
   56000    231.67077   -713.85862    132830.21   -40421.389    2882.4249   -43303.814    77.578168   0.94024913 
   56100    235.06285   -734.07626    132833.29   -40390.303    2924.6287   -43314.931    77.413633   0.94022731 
   56200    235.48831   -754.02618    132973.99   -40392.394    2929.9223   -43322.316    77.528227   0.93923247 
   56300    227.28535   -609.43994    132814.15    -40431.14    2827.8619   -43259.001    77.558962   0.94036284 
   56400    230.90552   -559.64418    133060.85   -40404.673    2872.9036   -43277.577    77.693367   0.93861935 
   56500    225.59162   -740.90234    133170.31   -40483.269    2806.7886   -43290.058     77.86687   0.93784787 
   56600     223.9828   -659.50528     133134.3   -40486.768    2786.7718    -43273.54     78.02903   0.93810157 
   56700    229.89366   -870.80566    132941.45   -40533.702    2860.3142   -43394.016    78.026234    0.9394624 
   56800    226.80317   -746.70351     132869.8   -40443.144    2821.8626   -43265.006    78.181366   0.93996895 
   56900    228.06044   -741.12677    132834.35   -40417.222    2837.5054   -43254.728    78.453433   0.94021982 
   57000    231.36884   -644.16227    132873.76   -40370.727    2878.6682   -43249.396    78.582748   0.93994096 
   57100    232.02103   -795.15433    132756.32   -40441.908    2886.7827    -43328.69    78.505605   0.94077244 
   57200    230.95625   -771.99494    132979.83   -40507.253    2873.5348   -43380.788    78.729344   0.93919124 
   57300    227.62459   -693.11949    133066.69    -40559.77    2832.0826   -43391.853    78.981251   0.93857817 
   57400    228.29643   -748.03613    133165.94    -40573.22    2840.4416   -43413.662    79.035971   0.93787867 
   57500    220.10026   -801.48669    133256.73   -40628.611    2738.4657   -43367.076    79.298795   0.93723966 
   57600     226.8588   -785.86551    133439.14   -40581.606    2822.5547    -43404.16    79.231192   0.93595847 
   57700    221.20052   -703.56581    133297.27   -40627.341     2752.155   -43379.496    78.991036   0.93695458 
   57800    226.83302   -848.45757    133135.61   -40662.015     2822.234   -43484.249    79.151952   0.93809233 
   57900    227.76321    -751.2641    133151.85   -40632.075    2833.8074   -43465.883     79.39537   0.93797786 
   58000    224.88749    -744.2952    133267.27   -40627.499     2798.028   -43425.527    79.538315    0.9371655 
   58100    232.78619   -667.86795    133484.88   -40550.878    2896.3027    -43447.18    79.722673   0.93563775 
   58200    233.15162   -742.75507    133694.95   -40494.623    2900.8495   -43395.473    79.940659   0.93416763 
   58300    234.54335   -653.18418    133804.18   -40431.099    2918.1652   -43349.265    79.989311   0.93340502 
   58400    229.93086   -1050.5427    133746.65    -40434.16     2860.777   -43294.937    80.015511   0.93380648 
   58500    233.83323   -856.82376    133652.03   -40436.534      2909.33   -43345.864    79.976856   0.93446757 
   58600    230.87237   -857.44426    133618.36   -40412.268    2872.4911   -43284.759    80.227258   0.93470307 
   58700    235.32061   -839.17281    133748.34   -40413.387    2927.8357   -43341.222    80.304941   0.93379471 
   58800    233.47558   -839.92822    133721.09    -40476.32    2904.8801     -43381.2    80.468127   0.93398498 
   58900     223.0974   -899.28379    133513.81   -40524.642    2775.7558   -43300.398    80.540976   0.93543497 
   59000    225.22899    -774.2715    133498.68   -40498.531    2802.2769   -43300.807    80.534854   0.93554105 
   59100    234.36034   -810.03948    133465.68   -40496.393    2915.8882   -43412.281    80.564137   0.93577237 
   59200     229.0871   -737.68075    133532.23   -40518.933     2850.279   -43369.212    80.693218   0.93530596 
   59300    228.08605   -723.38204    133584.11   -40506.299     2837.824   -43344.123    80.663907    0.9349427 
   59400    225.33452   -855.83885    133496.99   -40565.413    2803.5898   -43369.003    80.914634   0.93555289 
   59500    227.59038   -669.38957    133562.59   -40527.862     2831.657   -43359.519    81.022745   0.93509334 
   59600    230.20996    -898.2636    133521.83    -40518.02    2864.2495    -43382.27    81.028272   0.93537881 
   59700     229.2088     -717.235    133585.35   -40543.918    2851.7932   -43395.711    81.163774   0.93493405 
   59800    232.69775   -796.06138    133432.42   -40546.933    2895.2024   -43442.135    81.441926   0.93600556 
   59900    226.50881   -678.68195    133530.32   -40511.295    2818.2002   -43329.495    81.671309   0.93531931 
   60000    227.98787    -794.5224    133417.41   -40551.495    2836.6026   -43388.097     81.47762    0.9361109 
   60100    229.53938   -680.21721    133298.95   -40502.265    2855.9063   -43358.171    81.530029   0.93694283 
   60200    228.76688   -807.66012    133393.95   -40465.451    2846.2949   -43311.746    81.745506   0.93627554 
   60300    234.20688   -870.19506    133328.61   -40413.735    2913.9788   -43327.714    82.035271   0.93673435 
   60400    231.08445   -762.15539    133126.27   -40358.395    2875.1298   -43233.525    82.001835   0.93815812 
   60500     233.0704   -715.43605    133372.76   -40396.015    2899.8389   -43295.854    82.318653    0.9364243 
   60600    229.42946   -846.20959    133381.66   -40461.869    2854.5386   -43316.408    82.466086   0.93636179 
   60700    228.06074   -817.12384    133262.24   -40492.351    2837.5092    -43329.86    82.790198   0.93720088 
   60800    227.46952   -850.25196    133230.73   -40456.749    2830.1533   -43286.902    82.953181   0.93742255 
   60900    227.27522   -754.52798    133111.11    -40441.13    2827.7358   -43268.866     83.14257   0.93826493 
   61000    230.56967   -676.40794    133163.73   -40472.832     2868.725   -43341.557    83.314416    0.9378942 
   61100    227.42768     -579.484    133116.55    -40503.52    2829.6327   -43333.153    83.745437   0.93822664 
   61200     228.1558   -808.51407    133140.61   -40495.143    2838.6919   -43333.835     83.62712   0.93805709 
   61300    229.58232    -819.2721    133012.73   -40480.374    2856.4405   -43336.814    83.829782    0.9389589 
   61400    229.40661   -758.57803    133172.82    -40499.71    2854.2544   -43353.965    84.127399   0.93783016 
   61500    225.89955   -689.51967    133074.48   -40497.187    2810.6199   -43307.807    84.257402   0.93852321 
   61600     230.6343   -697.29922    133368.29   -40433.299    2869.5291   -43302.828    84.294733   0.93645568 
   61700    225.07335   -620.21385    133104.75   -40526.796    2800.3404   -43327.137    84.351958   0.93830979 
   61800    226.19257   -717.43233    133351.72   -40587.484    2814.2656   -43401.749    84.423705   0.93657204 
   61900     226.6633   -782.76512    133515.79   -40529.928    2820.1223    -43350.05    84.450236   0.93542112 
   62000    231.84081   -805.22175    133395.51   -40478.203    2884.5404   -43362.744    84.781706   0.93626458 
   62100     228.8614    -738.1942    133250.43    -40503.01     2847.471   -43350.481    84.657819   0.93728396 
   62200    227.97819   -937.84626    133378.25   -40447.826    2836.4822   -43284.308     84.40053   0.93638575 
   62300    226.36767   -689.12388    133505.24   -40478.157    2816.4442   -43294.601    84.811533   0.93549504 
   62400     229.8019   -957.20983    133449.66   -40430.615    2859.1725   -43289.788    84.839929   0.93588466 
   62500    229.30684   -822.88451    133397.79   -40439.813    2853.0131   -43292.826    85.252886   0.93624856 
   62600     230.3067   -666.31596    133372.06   -40430.759    2865.4532   -43296.212    85.331558   0.93642921 
   62700    229.50568   -776.42366    133320.26   -40453.549     2855.487   -43309.036     85.55449   0.93679303 
   62800    227.43355   -802.47549     133196.2   -40425.148    2829.7058   -43254.853    85.389674   0.93766557 
   62900    229.58655   -660.93296    133183.05   -40368.121    2856.4931   -43224.614    85.556389   0.93775813 
   63000    230.24659   -670.65188    133088.43   -40323.774    2864.7053   -43188.479    85.690789   0.93842486 
   63100    234.98898   -831.60623    133269.55   -40304.806    2923.7097   -43228.515    86.125077   0.93714951 
   63200    231.93684   -642.37526    133197.52   -40354.726    2885.7352   -43240.461    86.218083   0.93765625 
   63300    229.85585   -835.01794    133359.53   -40398.485    2859.8438   -43258.329    86.419989   0.93651721 
   63400     232.9974   -777.82306    133166.23   -40341.065    2898.9306   -43239.996    86.243508    0.9378766 
   63500    229.53851   -831.59289    133029.41    -40448.69    2855.8955   -43304.586    86.063769   0.93884123 
   63600    229.77172   -682.26565    132994.98   -40460.437     2858.797   -43319.234     86.18392   0.93908426 
   63700    226.66507   -838.78943    132965.65    -40455.61    2820.1444   -43275.755    86.403333   0.93929142 
   63800    231.29427   -718.79714    132951.52   -40564.035    2877.7404   -43441.775    86.522191   0.93939121 
   63900    225.26948   -761.48169    133124.35   -40557.807    2802.7806   -43360.588    86.692828   0.93817163 
   64000    226.48378   -708.88479    132970.94   -40548.849    2817.8888   -43366.738    86.981859   0.93925399 
   64100     229.2273   -728.07788    132930.72    -40456.37    2852.0234   -43308.393    87.052129   0.93953823 
   64200    228.93783   -744.85715    133120.13   -40438.217    2848.4219   -43286.639    87.503689   0.93820136 
   64300    231.46684   -657.89151     133176.2   -40336.054    2879.8875   -43215.942    87.802111   0.93780636 
   64400    232.64873   -792.02742    133068.47   -40352.682    2894.5925   -43247.274    88.150696    0.9385656 
   64500    235.02296   -647.21734    133101.02   -40347.867    2924.1324       -43272    88.057473   0.93833608 
   64600    230.63856    -657.1776    132955.28   -40416.356    2869.5821   -43285.939    88.128725   0.93936463 
   64700    228.77147   -770.98984    132907.13   -40447.823    2846.3521   -43294.175     88.14768     0.939705 
   64800     229.2259   -794.87851    132657.01   -40457.193    2852.0059   -43309.199    88.166896   0.94147672 
   64900    231.37222   -862.54462     132644.5   -40430.283    2878.7103   -43308.994    88.300081   0.94156557 
   65000    230.61429   -841.63618    132729.32   -40382.666    2869.2802   -43251.946    88.278464   0.94096382 
   65100    230.04628   -899.63566    132573.81   -40406.975    2862.2131   -43269.188    88.248865   0.94206759 
   65200    231.46143   -684.34976    132646.46   -40393.113    2879.8202   -43272.933    88.307597   0.94155164 
   65300    232.42265   -802.26936    132617.11   -40404.183    2891.7797   -43295.962    88.237326      0.94176 
   65400    236.35618   -696.72367    132826.46   -40340.158    2940.7202   -43280.878    88.580511   0.94027571 
   65500    229.30115   -783.18645     132797.9   -40420.754    2852.9423   -43273.697    88.821093   0.94047792 
   65600     229.0091   -603.66822    132717.51   -40458.087    2849.3086   -43307.395    89.140974   0.94104755 
   65700    228.72582   -786.87575    132936.15   -40503.047    2845.7841   -43348.831    89.420399   0.93949983 
   65800    227.09875   -711.59128     132856.3   -40515.052    2825.5402   -43340.592    89.256829   0.94006451 
   65900    230.49229   -694.67743    132710.12   -40490.307    2867.7622    -43358.07    89.133219   0.94109999 
   66000    230.58316   -769.37058    132844.29   -40376.298    2868.8929   -43245.191    89.702383   0.94014947 
   66100    230.58404   -617.15823    132879.75   -40312.069    2868.9038   -43180.973    89.695536   0.93989863 
   66200    234.70879    -733.5625    132970.77   -40268.748    2920.2235   -43188.972    89.845866   0.93925522 
   66300    233.70417   -568.01583    132797.91   -40305.674    2907.7241   -43213.398    89.967573   0.94047785 
   66400     228.6791   -740.32047    132966.48   -40338.506    2845.2028   -43183.709    90.272436   0.93928551 
   66500    226.59054   -871.77516    132904.21    -40356.06    2819.2172   -43175.278    90.666419   0.93972563 
   66600    230.88642   -672.34911    132981.45   -40376.372     2872.666   -43249.038    91.016246   0.93917982 
   66700    233.23606   -789.25625     133095.1   -40407.452       2901.9   -43309.352    91.095736    0.9383778 
   66800    232.06226   -728.28838    132960.02   -40356.727    2887.2957   -43244.022    91.021622   0.93933114 
[...]
   84600    225.57334   -827.33043    132750.36   -40466.095    2806.5611   -43272.656    111.64128   0.94081471 
   84700    228.03852   -654.17149    132535.37   -40488.067    2837.2328     -43325.3    111.16824   0.94234082 
   84800    223.37213   -678.79041    132607.32   -40450.958    2779.1739   -43230.132    111.29913   0.94182951 
   84900    228.79046   -860.32207    132695.59   -40430.006    2846.5882   -43276.595    111.19858   0.94120304 
   85000    225.41731   -709.28487    132768.93   -40359.871    2804.6199   -43164.491    111.36485    0.9406831 
   85100    232.00459   -730.41983    132728.67   -40356.813    2886.5782   -43243.391    111.29823   0.94096845 
   85200    229.61787   -912.88467    132840.01   -40370.738    2856.8828    -43227.62    111.47169   0.94017975 
   85300    227.36325   -939.75257    132711.58   -40412.716     2828.831   -43241.547    111.97332   0.94108961 
   85400    225.34075    -767.3432    132592.48   -40392.101    2803.6674   -43195.768    111.89601   0.94193499 
   85500    231.79021   -720.75943     132581.9   -40352.207    2883.9109   -43236.118    112.26479   0.94201011 
   85600    229.44771   -773.61077    132664.79    -40333.57    2854.7658   -43188.336    112.59316   0.94142154 
   85700    230.41696   -745.53049    132819.86    -40385.17     2866.825   -43251.995    112.28495    0.9403224 
   85800    228.80752   -823.93306    132830.64   -40392.415    2846.8005   -43239.215    112.16146   0.94024609 
   85900     232.0694   -839.70511    132845.67   -40300.312    2887.3846   -43187.697    112.60751   0.94013973 
   86000      229.373   -757.83844    132567.04   -40350.949    2853.8362   -43204.785    112.46313   0.94211569 
   86100    232.00591   -696.34198    132751.06   -40338.051    2886.5946   -43224.646    112.87881   0.94080977 
   86200    232.33249   -877.57006    132837.36   -40303.569    2890.6579   -43194.226    112.93331   0.94019856 
   86300    232.35264   -795.32296    132666.09    -40340.75    2890.9085   -43231.658    113.35338    0.9414123 
   86400    231.27292   -698.33888     132804.2   -40343.524    2877.4749   -43220.999     113.2803   0.94043326 
   86500    227.48981   -818.31478    132660.31   -40337.721    2830.4058   -43168.127    113.40667   0.94145337 
   86600    235.60008    -813.3744    132709.88   -40262.904    2931.3129   -43194.217    113.73053   0.94110169 
   86700    238.01653   -876.65341    132664.33   -40257.104    2961.3781   -43218.483    114.02553   0.94142478 
   86800    228.74214   -587.34198    132903.61   -40327.037    2845.9871   -43173.024    114.28966   0.93972987 
   86900    230.54683   -537.15856    133029.14    -40291.44    2868.4409    -43159.88    114.42129   0.93884308 
   87000     227.8436   -636.53569    133131.15   -40282.782    2834.8075    -43117.59    114.58879   0.93812372 
   87100    223.71433   -826.69446    132899.03   -40308.709    2783.4315    -43092.14    114.46729   0.93976225 
   87200    232.48619   -869.86055    132995.63   -40298.407    2892.5702   -43190.977    114.57617   0.93907966 
   87300    229.16678   -794.24355       132960   -40306.534    2851.2705   -43157.805    114.96988    0.9393313 
   87400    225.12417   -758.09713    133008.73   -40321.705    2800.9727   -43122.677    115.32931   0.93898717 
   87500     230.2943   -823.51704    132889.05   -40344.114    2865.2989   -43209.413    115.38226   0.93983283 
   87600    227.42557   -673.88564    132741.45   -40359.939    2829.6065   -43189.545    115.50698   0.94087786 
   87700    230.45107   -601.86372    132868.75   -40355.117    2867.2494   -43222.367    115.44264    0.9399764 
   87800     231.3238   -838.21297    132880.15   -40339.357    2878.1078   -43217.464    115.72538   0.93989577 
   87900    227.50179   -752.31913     132866.9   -40365.189    2830.5547   -43195.744    115.75118   0.93998951 
   88000    226.33184   -728.61613    133117.97   -40376.692    2815.9984    -43192.69    116.17751   0.93821659 
   88100     233.2077   -774.32951    132961.59   -40297.123    2901.5472    -43198.67    116.11526   0.93932009 
   88200    230.54041   -832.57925    132882.31   -40264.812     2868.361   -43133.173    115.99802   0.93988052 
   88300    229.38621    -1045.878    132855.23   -40296.599    2854.0006   -43150.599    116.25619   0.94007207 
   88400    223.90774   -841.29174    132692.58   -40411.837     2785.838   -43197.675    116.05678   0.94122441 
   88500    234.12756   -836.87555    132608.35   -40320.824    2912.9919   -43233.816    115.98467   0.94182221 
   88600    230.54175   -605.60192    132733.57    -40254.66    2868.3777   -43123.037    116.04405   0.94093369 
   88700    232.34082    -693.6706    132660.03   -40214.379    2890.7615    -43105.14    116.19405    0.9414553 
   88800    231.87357   -670.04481    132697.33   -40142.665     2884.948   -43027.613    116.49083   0.94119067 
   88900    232.51042      -898.59     132508.1   -40203.363    2892.8717   -43096.234    116.82615   0.94253475 
   89000    230.99352   -954.62675    132396.79   -40212.417    2873.9985   -43086.416     117.0444   0.94332721 
   89100    232.48796   -921.25694    132492.09   -40299.485    2892.5922   -43192.077    117.30392   0.94264869 
   89200    226.27234   -738.53549    132531.89   -40334.568    2815.2581   -43149.826    117.82792   0.94236558 
   89300    231.68173   -808.23078    132788.92    -40341.76    2882.5612   -43224.321     117.8702   0.94054152 
   89400    232.77739    -809.9801    132724.26   -40374.212    2896.1933   -43270.405    117.97506   0.94099972 
   89500    224.85507   -894.20138    132484.12   -40409.093    2797.6246   -43206.717    117.66668   0.94270537 
   89600    224.37932   -987.30814    132700.37   -40456.423    2791.7053   -43248.128    117.86801   0.94116913 
   89700    226.49895   -751.42247    132761.61   -40424.837    2818.0775   -43242.914    118.04213   0.94073502 
   89800    226.93558   -598.12808    132561.94   -40385.722    2823.5101   -43209.232    117.81846   0.94215199 
   89900    226.47855   -774.51946    132638.59   -40447.944    2817.8237   -43265.768     117.8108    0.9416075 
   90000    225.48749   -772.31907    132537.22   -40363.457    2805.4931    -43168.95    118.21416   0.94232769 
   90100    227.14069   -856.54612    132587.25    -40366.13     2826.062   -43192.192    118.54156   0.94197213 
   90200    229.88169   -749.12102    132706.45   -40425.148    2860.1652   -43285.313    118.96811   0.94112597 
   90300    223.43169   -851.77628    132400.28   -40432.065    2779.9149   -43211.979    119.28098   0.94330233 
   90400    226.68908   -696.00008    132475.88   -40408.443    2820.4432   -43228.887    119.42025     0.942764 
   90500    229.67373   -787.21887    132626.77    -40376.79    2857.5778   -43234.368    119.26262   0.94169142 
   90600    232.69479    -751.6697    132689.07   -40288.977    2895.1656   -43184.143    119.42873   0.94124929 
   90700    234.63956   -916.80896    132775.63   -40315.325    2919.3622   -43234.687    119.62622   0.94063562 
   90800    229.91637   -847.55795    132747.72   -40364.357    2860.5967   -43224.954    119.45568    0.9408334 
   90900    225.27381   -720.96159    132627.72   -40466.913    2802.8345   -43269.747    119.39949   0.94168466 
   91000    224.46924   -908.10838    132745.66   -40487.566    2792.8241    -43280.39    119.76091   0.94084804 
   91100    226.99829   -839.13109    132643.72    -40486.09    2824.2903   -43310.381    119.75133   0.94157108 
   91200    226.53594   -655.53747    132658.67   -40437.671    2818.5378   -43256.208    119.80731   0.94146494 
   91300    230.24825   -727.86324     132760.8   -40335.479     2864.726   -43200.205    119.87165   0.94074076 
   91400    230.02928   -753.87743    132763.92   -40321.699    2862.0016   -43183.701    120.38425   0.94071865 
   91500    235.51973   -619.33644    132915.32   -40336.675    2930.3132   -43266.989    120.52064   0.93964709 
   91600    232.73343   -746.99564    132898.27   -40392.738    2895.6463   -43288.385    120.49409   0.93976762 
   91700    229.91405   -730.47727    132739.45   -40472.361    2860.5679   -43332.929    120.47639   0.94089201 
   91800    228.83912   -651.01332    132834.67   -40444.437    2847.1938   -43291.631     120.7123    0.9402176 
   91900    230.16643    -787.4038    132882.63   -40447.844    2863.7079   -43311.552    120.88277   0.93987825 
   92000    228.32146    -843.7904    132887.52   -40456.907    2840.7531    -43297.66    120.82582   0.93984363 
   92100    227.34255   -798.04304    132809.87   -40495.368    2828.5735   -43323.941    120.39627   0.94039317 
   92200    231.65546   -509.58829    132882.02   -40436.232    2882.2344   -43318.467    120.90515   0.93988253 
   92300    231.40213   -697.25514    132739.43   -40360.286    2879.0824   -43239.368    121.17129   0.94089218 
   92400    233.98273   -755.12035    132763.64    -40366.43      2911.19    -43277.62    121.18421   0.94072059 
   92500    233.97631   -703.92787    132651.86   -40421.598    2911.1101   -43332.708    121.12012    0.9415133 
   92600    229.64795   -874.83632    132556.46   -40407.866    2857.2571   -43265.123    120.89436   0.94219092 
   92700    232.82893   -772.39731     132657.7   -40377.484    2896.8345   -43274.318    121.13937   0.94147188 
   92800    227.79133   -575.78885    132631.48   -40419.681    2834.1572   -43253.838    121.63758   0.94165794 
   92900    229.26998   -766.47717     132703.5   -40379.807    2852.5545   -43232.362    121.65718   0.94114694 
   93000    230.59856   -750.98841    132763.48   -40420.565    2869.0845    -43289.65    121.66698   0.94072174 
   93100    234.47321   -856.73187    132690.65   -40370.346    2917.2925   -43287.638    121.53731    0.9412381 
   93200    230.93778   -762.20225    132729.31   -40386.274     2873.305   -43259.579    121.87533   0.94096389 
   93300    233.09427   -879.00134    132928.42   -40407.885    2900.1359   -43308.021    122.32089   0.93955445 
   93400    228.82544   -767.47703    133026.61   -40457.543    2847.0235   -43304.566    122.67871   0.93886098 
   93500    225.48254   -763.42386    133240.35   -40498.899    2805.4315   -43304.331    122.84601   0.93735486 
   93600    223.11384   -790.66371    133090.64   -40564.782    2775.9604   -43340.743    122.90361   0.93840931 
   93700    226.51731    -664.2442    132984.84   -40513.089     2818.306   -43331.395    122.93681   0.93915585 
   93800    227.94309   -650.83267    133054.19   -40483.409    2836.0454   -43319.454    123.26617   0.93866632 
   93900    231.24139   -937.29182    133044.24   -40466.712    2877.0825   -43343.794     123.2508   0.93873657 
   94000    228.15933   -689.67768    133133.37   -40467.186    2838.7358   -43305.922    123.46332   0.93810806 
   94100    228.45437   -661.19398    133125.62    -40467.56    2842.4067   -43309.967    123.54642   0.93816271 
   94200     232.0904   -780.73063     133152.2   -40466.866    2887.6458   -43354.512    123.62138    0.9379754 
   94300    233.40018   -783.92508    133235.39     -40421.1     2903.942   -43325.042    123.66428   0.93738975 
   94400    227.36484    -769.5789    133109.84   -40421.501    2828.8508   -43250.351    123.43474   0.93827394 
   94500    234.35257    -604.5227    133125.19    -40356.79    2915.7915   -43272.582    123.48215   0.93816571 
   94600    229.73909   -574.52191    133116.27    -40394.93     2858.391   -43253.321    123.66958   0.93822862 
   94700    230.13827   -797.73278    133107.54   -40424.532    2863.3576   -43287.889    123.70646    0.9382901 
   94800      232.282   -623.71795     133021.2   -40416.549    2890.0297   -43306.579    123.65077   0.93889917 
   94900     229.5472   -874.97137    133107.74   -40374.946    2856.0036    -43230.95    124.07451   0.93828871 
   95000    235.31917   -724.56665    133008.05   -40358.768    2927.8178   -43286.585    124.18874   0.93899198 
   95100    233.48025   -834.69072    133064.34    -40351.41    2904.9382   -43256.349    124.52911   0.93859476 
   95200    228.14037   -747.67892    133042.29    -40373.91    2838.4999    -43212.41    124.78574   0.93875028 
   95300    234.41268   -712.60799    133103.55   -40266.391    2916.5394    -43182.93    124.96986   0.93831822 
   95400    235.15676   -815.25984    132951.76     -40339.1    2925.7972   -43264.897    124.82804   0.93938955 
   95500    230.31697   -788.96911    132849.07    -40362.67    2865.5809   -43228.251     124.5769   0.94011563 
   95600    234.09617   -706.90193    132985.53   -40363.653    2912.6014   -43276.254    124.46597   0.93915097 
   95700    228.00822   -794.01219     132885.4   -40425.711    2836.8557   -43262.566    124.44674   0.93985866 
   95800    228.70619   -749.45824    132953.74   -40472.648    2845.5398   -43318.188    124.59123   0.93937556 
   95900    230.35613   -834.17826    132917.81   -40420.741    2866.0683   -43286.809    125.03666   0.93962948 
   96000    229.21467   -754.19123    132979.22   -40490.811    2851.8663   -43342.678    124.94357   0.93919555 
   96100    230.56916   -675.15375    132796.84   -40443.455    2868.7187   -43312.174    124.84865   0.94048541 
   96200    233.25863   -627.01471    132987.94    -40478.37    2902.1808   -43380.551    124.81074   0.93913398 
   96300    231.25684   -654.50517    133172.24   -40436.468    2877.2748   -43313.743    125.12125    0.9378343 
   96400    230.81666   -810.64728    133088.89   -40416.421    2871.7981   -43288.219    124.55783   0.93842159 
   96500    230.62181   -790.67141    133077.05   -40452.841    2869.3738   -43322.215    124.99764   0.93850512 
   96600    233.33964   -698.76174    133094.15    -40449.09    2903.1888   -43352.279    125.21252    0.9383845 
   96700    225.55964   -665.85617    132919.77   -40549.915    2806.3907   -43356.305     125.3042   0.93961564 
   96800     222.8845   -646.46306    133024.68   -40597.666    2773.1069   -43370.773    125.48133   0.93887456 
   96900    228.20769   -781.45052    133040.51   -40530.483    2839.3375    -43369.82    125.81258   0.93876289 
   97000    228.80214   -820.00091    132991.07    -40531.75    2846.7336   -43378.484    125.94468   0.93911188 
   97100    225.97011   -809.14138     133040.3   -40523.732    2811.4977   -43335.229    126.16189   0.93876433 
   97200    224.51836   -531.21976    132937.14   -40533.508    2793.4353   -43326.943     126.1937   0.93949287 
   97300    226.32698   -746.17534    133047.79   -40533.079    2815.9379   -43349.017    126.46456    0.9387115 
   97400    225.98317   -792.53485    133065.47   -40518.204    2811.6602   -43329.864    126.41251   0.93858679 
   97500    225.98388   -659.42256    132992.19    -40414.28    2811.6692   -43225.949    126.50301   0.93910393 
   97600    226.41567   -757.21855    133001.59   -40482.949    2817.0414    -43299.99    126.32174   0.93903755 
   97700    236.01909   -883.67209    132829.71   -40397.786    2936.5261   -43334.312    125.95543   0.94025269 
   97800    231.69095   -768.88148    132826.44   -40380.149    2882.6759   -43262.825    126.19584   0.94027585 
   97900    232.35563   -617.27103    132851.69   -40350.955    2890.9458   -43241.901    126.73423   0.94009711 
   98000    228.71927   -675.57077    132766.93   -40364.876    2845.7025   -43210.579    126.57757   0.94069729 
   98100    227.81341   -699.97215    132953.45   -40431.794    2834.4319   -43266.226    126.73559   0.93937758 
   98200    231.43068   -689.52136    133166.64   -40408.242    2879.4376   -43287.679    126.91127   0.93787374 
   98300    227.69139   -664.84743    133173.58   -40430.035    2832.9137   -43262.948    126.79825   0.93782487 
   98400    226.16247   -733.69434    133261.29   -40443.755    2813.8911   -43257.646    126.99735   0.93720759 
   98500    228.66813   -657.71631    133270.81   -40439.231    2845.0663   -43284.297    127.13643   0.93714066 
   98600    226.09021   -942.44816    133103.31    -40458.55    2812.9921   -43271.542    127.20611   0.93831992 
   98700     220.3384   -737.83889    132965.52   -40485.452    2741.4286   -43226.881    127.22677   0.93929233 
   98800    230.05161   -665.18146    132838.62   -40465.423    2862.2794   -43327.703    127.25338   0.94018962 
   98900    229.74852   -856.69832    132839.72   -40461.594    2858.5084   -43320.103     127.6097    0.9401818 
   99000    226.94503    -795.7822    132791.69   -40500.722    2823.6276   -43324.349     127.4089   0.94052192 
   99100    233.41473   -747.57729    132793.24   -40424.017    2904.1229    -43328.14    127.84067   0.94051095 
   99200    232.25087   -683.94805    132811.95   -40413.224    2889.6424   -43302.867    128.15149   0.94037842 
   99300    232.44237   -853.79681    132846.49   -40363.795     2892.025    -43255.82    128.10761   0.94013392 
   99400    231.38063   -809.42972     132549.4   -40339.378    2878.8149   -43218.193    128.07959    0.9422411 
   99500    235.44585   -507.45378    132698.93   -40214.034     2929.394   -43143.428    128.65795   0.94117936 
   99600    234.08116   -774.74733     132879.5    -40233.59    2912.4146   -43146.005    128.84565    0.9399004 
   99700    230.73321   -697.96028    132819.63   -40253.989    2870.7598   -43124.749    128.72101   0.94032403 
   99800    235.98707   -743.00044    132951.49   -40274.684    2936.1278   -43210.811     129.0053   0.93939145 
   99900    228.17129   -728.12814    132730.18   -40344.009    2838.8846   -43182.893    128.83195   0.94095773 
  100000    226.69622   -814.36149     132880.6   -40346.027     2820.532   -43166.559    128.71054    0.9398926 
  100100    226.81827   -777.86208    133072.46    -40265.91    2822.0504   -43087.961    128.92409    0.9385375 
  100200    228.91984   -689.81269    133113.13   -40262.081     2848.198    -43110.28     129.2702   0.93825075 
  100300    231.42532   -763.16218    132935.29   -40252.168    2879.3709   -43131.538    129.39517    0.9395059 
  100400    230.77599   -779.48102    133097.91   -40287.484     2871.292   -43158.776    129.81345   0.93835799 
  100500    237.22495   -754.72707    132929.26   -40219.534    2951.5294   -43171.063    130.13109   0.93954856 
  100600    233.75072   -821.21409    132963.76   -40315.391    2908.3034   -43223.694    130.31459   0.93930474 
  100630    230.77661   -862.52617    132950.22   -40305.007    2871.2998   -43176.307    130.22947   0.93940041 
Loop time of 88.4047 on 6 procs for 100000 steps with 4175 atoms

Performance: 488.662 ns/day, 0.049 hours/ns, 1131.162 timesteps/s
98.7% CPU use with 6 MPI tasks x no OpenMP threads

MPI task timing breakdown:
Section |  min time  |  avg time  |  max time  |%varavg| %total
---------------------------------------------------------------
Pair    | 65.168     | 67.53      | 76.658     |  49.9 | 76.39
Neigh   | 5.2851     | 5.3057     | 5.3439     |   0.8 |  6.00
Comm    | 3.7781     | 12.927     | 15.286     | 114.4 | 14.62
Output  | 0.16414    | 0.1652     | 0.16976    |   0.5 |  0.19
Modify  | 1.8045     | 1.8195     | 1.8386     |   1.0 |  2.06
Other   |            | 0.6574     |            |       |  0.74

Nlocal:        695.833 ave         709 max         684 min
Histogram: 1 0 1 1 1 0 0 1 0 1
Nghost:        1458.33 ave        1482 max        1430 min
Histogram: 2 0 0 0 0 1 0 1 0 2
Neighs:        0.00000 ave           0 max           0 min
Histogram: 6 0 0 0 0 0 0 0 0 0
FullNghs:      19075.3 ave       19630 max       18706 min
Histogram: 1 0 3 0 0 0 1 0 0 1

Total # of neighbors = 114452
Ave neighs/atom = 27.413653
Neighbor list builds = 5742
Dangerous builds = 0

undump              1
unfix               2
unfix               3
unfix               4


################################################
#######         Run Simulation         #########
################################################

reset_timestep      0
log                 log.run_${NAME}
log                 log.run_liquid_density_MLmW
