LAMMPS data file via write_data, version 29 Oct 2020, timestep = 800000

4175 atoms
1 atom types

-0.6150095496576924 50.61500954965645 xlo xhi
-0.6150095496576924 50.61500954965645 ylo yhi
-0.6150095496576924 50.61500954965645 zlo zhi

Masses

1 18.015

Atoms # atomic

2720 1 1.234801125623647 1.0933735650406746 1.7101777573234527 1 1 0
1543 1 14.788681819727172 19.714983518040775 -0.12603020819328709 0 0 1
1982 1 6.301459134440593 -0.11306005957777832 2.4099608465130213 0 0 1
3671 1 5.9892910928484255 0.005472132948845743 -0.5320808922838102 0 1 1
556 1 23.92514329058842 -0.25527257383233604 6.964788789364847 0 0 0
1644 1 46.94060047224281 10.597750791015649 -0.3981394964877284 0 0 1
1718 1 11.59354147442309 15.627787117626426 0.04800553401915153 0 0 1
324 1 15.497537965326671 2.1679949139668087 1.341265098152489 0 0 0
507 1 47.931558014651166 -0.29261995479737957 15.304579155253005 -1 0 0
2616 1 19.574442552066575 0.5500890457286096 1.7459647966544622 0 1 0
3121 1 14.68674878312902 -0.42497208476909154 14.199235743399925 0 1 0
2638 1 41.9056568590191 -0.093460249206744 -0.2501063319786473 0 1 0
363 1 23.387890970740465 11.04545584133169 -0.3154955874777829 0 0 0
537 1 30.439492414622226 -0.03414098398748955 -0.41898422424231324 0 0 0
1465 1 34.529786918691336 0.7716229847293794 0.5869135882050069 0 0 1
2398 1 37.10598066102512 0.33835588545287454 1.4395488485721248 0 1 0
287 1 0.9060299852636511 24.984418186973222 12.629794626181223 1 0 0
2539 1 12.661548647018975 -0.03940828394191209 8.24679405659582 0 1 0
312 1 42.29971766627443 1.382924046100776 1.9911545667769648 0 0 0
3860 1 45.962698036173556 0.4028366016537879 0.21272146184891738 0 1 1
2441 1 49.881545772495556 1.2878382486793551 2.583068554142556 -1 1 0
484 1 1.9244192888588803 3.348888140080291 0.3469891550382542 0 0 0
289 1 2.370363692636465 4.876492980395435 2.471703080084805 0 0 0
2609 1 5.927005415530718 4.192357879275512 0.9725510171959812 0 1 0
150 1 7.756282813802107 2.2481875244534395 1.9122163779815349 0 0 0
1429 1 10.7242383197414 5.4163661763318585 1.71905466118453 0 0 1
2041 1 13.170494308969419 5.984778152683106 2.92087351230736 0 0 1
1405 1 15.19021848669789 5.102278426067359 0.7819821941331235 0 0 1
459 1 18.322456616401684 5.268325058252584 1.719622257937182 0 0 0
1417 1 20.366380009858442 4.291631942835438 -0.3504812770400566 0 0 1
682 1 22.91080049262805 4.574151896968238 0.7270872990849182 0 0 0
452 1 27.808612862109918 4.794853150188026 0.6133215505024312 0 0 0
1935 1 1.2700924348579559 24.520565902955312 -0.36705873252868243 0 0 1
253 1 32.02385427963364 4.915821558686944 1.7981803134237269 0 0 0
43 1 34.40244372799594 3.4981683621162087 1.3446379416958991 0 0 0
2782 1 50.359535312568575 9.838610207537439 -0.449794715070738 -1 1 0
372 1 39.44425394998563 5.370199893200824 1.6124856937873493 0 0 0
2731 1 43.46598739633881 4.469182915713507 -0.08276378711680021 0 1 0
1851 1 44.75709915269353 2.4226578960696137 1.4900541447831683 0 0 1
458 1 48.94199285195876 3.660814424898944 1.449815665872915 -1 0 0
61 1 19.632316569764868 9.152102133290787 0.6439112922110983 0 0 0
541 1 -0.1456501806603937 7.7144106196412 1.246002231446754 0 0 0
1850 1 2.822419806322912 7.500014702079758 1.524888110025485 0 0 1
1633 1 6.780761533563655 6.441030702833767 -0.4543856262759184 0 0 1
1778 1 8.717724146976368 7.362681940724248 0.8483699580092319 0 0 1
530 1 13.075071942997871 8.52405046182377 1.9685158627067953 0 0 0
442 1 15.595994935323084 9.337761883399784 1.9959153350308685 0 0 0
2031 1 16.971039820779804 7.584247844027457 0.17875691859692922 0 0 1
489 1 23.729370163226847 7.078944876620937 0.3460735369837519 0 0 0
570 1 27.90949523826793 8.963692979411016 -0.4528430756234648 0 0 0
460 1 35.12428989409843 20.375107310583623 -0.30410670697516246 0 0 0
1476 1 34.63613651508096 7.540492049145183 1.0001049195044969 0 0 1
1854 1 32.79330513598448 7.180479608128996 2.932150885838014 0 0 1
436 1 36.625699029584354 8.955570418321512 2.3228209028549447 0 0 0
964 1 26.72964081373088 4.104987486415606 16.130407816457918 0 0 0
394 1 42.01852844507092 6.522999614526832 1.4073801915643278 0 0 0
23 1 47.22437913183672 8.186177631746421 1.4473520065756622 0 0 0
381 1 49.439035484731335 8.747242857313147 2.9953593198545514 0 0 0
2053 1 1.0298638569370742 11.835109847985523 0.43206358047057036 0 0 1
127 1 2.2247903622047627 11.879701148123814 2.9141233091564414 0 0 0
1582 1 5.443882361864891 10.859465740787428 -0.14242623756987205 0 0 1
493 1 6.661975644751674 11.697224400787345 2.341410331240224 0 0 0
144 1 30.416095963446697 5.307949380804354 -0.3230791890351805 0 0 0
1631 1 16.46648046796511 11.998399629580218 1.2818465193563278 0 0 1
262 1 37.89189872868082 20.296632578128687 -0.09947599202370472 0 0 0
1501 1 19.022116050718687 11.79172936556457 0.05919900752452123 0 0 1
474 1 23.192510443172523 10.57741128090155 2.427799453021069 0 0 0
1773 1 19.1417346169764 16.299751495644344 -0.21439002912844968 0 0 1
2104 1 28.259142530863368 9.321783529681186 2.4549972746562303 0 0 1
1780 1 27.79865298653804 12.048887828463984 2.335672962833138 0 0 1
1459 1 32.27511830006896 11.633398801753376 2.5537543407919747 0 0 1
201 1 33.032186599501536 11.759347267539832 -0.035640587833259296 0 0 0
1704 1 38.562173578190254 10.346168967942207 0.6415448746364218 0 0 1
2871 1 36.313186374113435 24.81981534971794 13.1989217313509 0 0 0
569 1 26.319384000055287 0.012497504930759074 1.713196959789438 0 0 0
2037 1 47.569677204133235 12.485238198904238 1.3532207594432926 0 0 1
56 1 48.721462914315595 11.340284307241726 3.79714536444237 0 0 0
353 1 31.866295998788267 -0.414039544172902 8.85784608209997 0 0 0
174 1 6.288083631546326 14.591220253499236 2.48114721928486 1 0 0
323 1 9.521658161029812 11.13291298907242 1.5897715997800583 0 0 0
219 1 12.377460638738905 12.511027956555186 1.5671946960808083 0 0 0
1984 1 14.396729090024794 12.989251593471568 -0.3187330107928655 0 0 1
492 1 6.4312955254947575 15.477658062649851 -0.09240055977541173 0 0 0
1495 1 20.430374216563887 14.21722029876478 0.8097347394009566 0 0 1
2043 1 28.83814825734072 13.494900484724072 0.309632811366953 0 0 1
536 1 35.72316465386103 15.065436454943942 1.766139528352253 0 0 0
868 1 35.00785866910465 3.616653631734013 15.905470348634676 0 0 0
341 1 39.86238542535201 14.135376924910332 2.097262309953828 0 0 0
371 1 43.18214058371704 -0.3735824745114429 11.34505428020523 0 0 0
2626 1 22.020081020984378 21.641115848235007 14.309596358070262 0 0 0
683 1 45.79317475784118 14.680922886319365 1.8409309577698951 -1 0 0
257 1 49.944858557753534 13.549956307714433 -0.011328193502978534 -1 0 0
443 1 2.2002108980431845 16.888475098860518 0.7426954783407451 1 0 0
48 1 10.733597903111987 16.806448370450536 2.349903791921803 0 0 0
552 1 41.346016573393385 9.034769996231232 0.03670854437433124 0 0 0
1916 1 16.813509216726768 16.047219948914528 0.9873349946226349 0 0 1
2008 1 20.57943371337431 18.661189448381993 0.1174861349352766 0 0 1
898 1 16.65829098239697 -0.22614103720267076 10.235309142127537 0 0 0
1533 1 24.80580078387543 16.773439423084003 1.4433792233038978 0 0 1
420 1 29.50302681518994 16.124301216734636 0.954052019873251 0 0 0
2000 1 27.362226443253334 17.309460129799398 2.424810167492297 0 0 1
364 1 31.505232840783194 16.043025075730633 3.0850976890310644 0 0 0
42 1 33.34933012567294 16.71357775592826 1.2335478348695301 0 0 0
1538 1 38.29814665999254 16.334550802932725 1.7962253882325414 0 0 1
388 1 49.854121570100965 5.616403826465264 -0.20900064761158788 0 0 0
2056 1 42.000336484345205 17.975611165791115 0.5289839974883441 0 0 1
2432 1 22.994788523948575 23.797278677590935 15.892855050088638 0 0 0
1705 1 -0.3614996893328258 16.164834795106316 -0.09370255774931824 1 0 1
47 1 49.160954554575966 17.739347909476955 1.4010405913159487 0 0 0
1413 1 0.812881148107544 21.04902664264403 2.6505936197361657 0 0 1
1649 1 2.624353423546508 19.71920285052029 0.7361547126084296 1 0 1
340 1 5.12896224287256 19.57326832622059 1.6431511723148624 0 0 0
136 1 9.420629538448237 18.939523946261353 0.34855692647402303 0 0 0
1699 1 10.251224879547713 21.49679241014812 0.7193761058081007 0 0 1
2066 1 12.925612670405313 21.09591424822869 1.5175950047197073 0 0 1
3985 1 28.65385999131003 22.39806855374378 -0.4886549506368314 0 0 1
370 1 16.07427363894233 18.499828699828555 1.8797096954663326 0 0 0
596 1 18.44401447704445 19.705087256206138 1.7489049659298188 0 0 0
3575 1 22.977396413316523 18.941877503955148 1.4522107892560019 0 0 1
1470 1 24.11484427658794 20.983436421963493 0.17063659971212242 0 0 1
105 1 26.36335452796867 21.621696636113665 1.445204088866439 0 0 0
2 1 31.695838231991516 20.686609149376793 1.7118987060127022 0 0 0
212 1 17.827772252841132 22.09754470204358 16.05759844107714 0 0 0
555 1 33.915788292718034 19.408787167811568 1.8658915659000166 0 0 0
325 1 2.866520186905634 24.06339889598581 14.158377817725034 0 0 0
243 1 39.02426529154219 21.97257830429788 1.8352160797099377 0 0 0
276 1 16.916602315797913 23.521874813887514 13.841620011376946 0 0 0
108 1 45.613738439063425 20.118203035038075 0.12307425567280794 0 0 0
292 1 49.57395734419532 20.336398331224277 1.8439521149559037 0 0 0
1067 1 17.873730228712514 4.073260243678063 15.703856489712077 0 0 0
520 1 1.5950686018107425 23.538303148779907 2.0928420378634836 0 0 0
344 1 6.154369831063728 22.19588082953321 1.26429281787055 0 0 0
684 1 8.462826923945238 22.789170364702702 2.290489438876722 0 0 0
454 1 14.150770132562398 23.348804685569586 2.1589902367400735 0 0 0
1779 1 16.352065839383688 23.576979450813763 0.5922332404533663 0 0 1
3866 1 18.46998504273262 22.402159065712517 1.8824817816946298 0 0 1
338 1 21.033610012429115 23.444117474431245 1.853007853678609 0 0 0
4174 1 25.121500480744263 23.60137839371041 2.916691268800083 0 0 1
101 1 25.420916026425502 16.29370710909943 16.03563440555559 0 0 0
52 1 30.347460670550475 24.54690351529124 -0.10861916329955568 0 0 0
3931 1 32.52448792898738 23.319199220256266 1.1855835155786274 0 0 1
2452 1 37.8985549699939 24.196058493461162 2.6828309162051185 0 0 0
2347 1 41.22606994160317 22.187011794028447 0.036860944810064855 -1 0 0
2575 1 42.87467052372579 23.45924556320638 2.0124426412092 0 0 0
91 1 45.15709106140784 24.22180955502448 0.4748160903678025 0 0 0
2319 1 38.34791664139549 24.291863637713476 14.85745384432479 0 0 0
3123 1 40.379964385849924 23.286746994983986 13.645486035246096 0 0 0
698 1 38.967463093671675 24.736289768185138 8.984458936628315 0 0 0
1505 1 2.8593546459731938 -0.06764824178464934 3.5134609566793813 0 0 1
2502 1 9.349383525076385 0.7185332966484033 5.157607291306387 0 1 0
2775 1 14.014094004197789 0.6395252438341752 3.198812485208846 0 1 0
2112 1 46.75160712844368 24.741813524930098 5.507882282012884 0 0 0
129 1 21.937754293465918 1.2487054825244424 3.1416372007487734 0 0 0
106 1 21.762119850493438 0.6682775198218711 5.742664991376848 0 0 0
225 1 26.165363768303383 2.104659259611791 3.799860201099974 0 0 0
96 1 30.88002505122772 0.6688870289760946 2.1753071453211783 0 0 0
69 1 34.374290757667836 1.8072671445983457 5.795122776160501 0 0 0
1939 1 38.224427275871996 1.7435836676115444 3.4652920937568625 0 0 1
487 1 38.47814124641186 0.2452840530472088 5.468211560231961 0 0 0
2129 1 43.19168589903088 0.54123891169927 4.6801105833925565 0 1 0
2141 1 47.953835158060535 21.137565338714246 14.829483483846879 0 0 0
280 1 50.00766499758486 1.1362137826717653 5.160832421998437 -1 0 0
619 1 4.779437832929658 1.4900115654651254 4.23402297748157 0 0 0
134 1 4.712477730854605 3.9998543933359967 3.3865114142940342 0 0 0
2486 1 10.021576938589481 3.1640340462302077 3.1120973375351584 0 1 0
595 1 12.567643261084338 2.3745150871226506 4.338596931234906 0 0 0
109 1 14.106596480091087 4.646007311233212 5.364133577423583 0 0 0
100 1 16.63552253012724 3.0146407895699383 5.104676445448017 0 0 0
184 1 17.699812417703242 2.52884614317267 2.7246730087924287 0 0 0
283 1 23.26545838992303 4.320201174155499 5.519888291833953 0 0 0
516 1 23.763853382991314 3.2721077877801066 3.0965952552985923 0 0 0
95 1 28.062217015824228 4.108022015196896 3.5310878651864446 0 0 0
126 1 27.650464680199068 5.835837108269437 5.52894606677191 0 0 0
389 1 30.632615012523498 3.133099168868396 3.5349580163776935 0 0 0
699 1 35.69200041077558 3.1117984857190204 3.7721068116653838 0 0 0
123 1 40.34512932350494 3.1272199958468647 2.806802189023042 0 0 0
281 1 41.105756544032786 3.8595521813300246 5.296278260704637 0 0 0
671 1 43.83993592824788 3.011010376520136 5.844055929889405 0 0 0
290 1 45.43116241471289 5.090725050527251 4.530230357317367 0 0 0
1840 1 47.80676241147676 5.729215956602033 2.935601080803458 0 0 1
80 1 0.8702982603917218 6.112525685235448 4.762749879739132 0 0 0
87 1 2.144123566737754 8.386767404871946 5.540965578168893 0 0 0
584 1 6.169302181454112 5.5535061667681145 4.952162500326098 0 0 0
610 1 8.880052474565247 4.555393836753763 4.988383507339866 0 0 0
365 1 7.159261265112568 7.802728215443784 3.4483321379535417 0 0 0
211 1 18.644552001910814 8.21684324118083 4.493563504639374 0 0 0
423 1 19.640451498296194 5.66913346552669 4.29084572545096 0 0 0
686 1 22.185580067070983 6.915525456050709 4.766002339565354 0 0 0
607 1 23.97349105460545 8.139707754650075 2.97592695132404 0 0 0
479 1 26.44059207044233 8.276811694380989 4.368708456555961 0 0 0
654 1 34.15457714417521 6.998932485561565 5.423554762621165 0 0 0
140 1 36.49895261042159 5.569396483789251 4.931441791285463 0 0 0
268 1 38.40826187553984 6.931347851573067 3.3975662935983886 0 0 0
450 1 39.73188068721036 8.571074932648694 5.068543237925581 0 0 0
456 1 41.59890203123533 6.629375861412154 5.5263373312518675 0 0 0
462 1 43.56819903514081 7.009801468076513 3.6976092103952896 0 0 0
2005 1 49.34961906502487 6.075666434042424 5.160526662002851 -1 0 1
447 1 0.05784757621073722 10.103612142083918 6.610820405350549 0 0 0
213 1 3.358203676509202 9.549108419428297 3.42566956101503 0 0 0
4 1 6.006158692154676 10.104830550788174 4.427006240870279 0 0 0
540 1 11.218812555045313 9.825706816569188 3.5192524492336448 0 0 0
554 1 15.889956157602487 8.681025169857328 4.939127433603216 0 0 0
333 1 16.167758429199015 11.359110237527785 5.637582234545562 0 0 0
495 1 20.63566884489082 10.055649292066784 3.3710112044507405 0 0 0
11 1 24.535516087316402 12.098567905404796 6.146407413875291 0 0 0
183 1 31.035338453298497 9.16679192482335 3.3266686382173867 0 0 0
557 1 30.441819043596315 9.567508733279205 6.064144816870417 0 0 0
538 1 34.75656349630705 10.893348183479626 3.6144791391521283 0 0 0
545 1 34.3418638639183 9.624521749018754 6.170211868620519 0 0 0
663 1 40.674943819691705 11.04629398054731 4.530535887285273 0 0 0
71 1 44.93325566986325 9.295266710590539 3.068234870694864 0 0 0
401 1 42.880869696009015 11.253244806177852 3.0641988913422336 0 0 0
1797 1 46.82687242854439 9.932176252838238 5.381680422345275 0 0 1
553 1 49.14741692155947 8.673711427885804 6.249096046964858 0 0 0
439 1 0.12725871589941518 12.21774813384288 4.794578257263356 0 0 0
437 1 0.06386561741739039 14.773545749351793 5.355783829130734 0 0 0
1976 1 3.7700810258996693 14.124172087976262 3.665307662786204 0 0 1
32 1 9.321291990980374 13.242255396022605 3.697268032924204 0 0 0
1577 1 11.939754922039233 14.341715674538868 3.4414607455509403 0 0 1
286 1 13.100050975543379 14.988368819230987 6.040058146041604 0 0 0
354 1 17.119417583204186 13.0355576891341 3.663345652258263 0 0 0
2687 1 19.690619789541763 12.466879933292693 4.22249937729801 0 1 0
668 1 21.30636037913907 14.783731266018473 3.3492513052280395 0 0 0
342 1 25.04374877686068 12.577246680675545 3.232718272783773 0 0 0
501 1 24.032446598073275 15.186073675659609 3.637472712071384 0 0 0
177 1 28.673526056963183 13.22339626971323 4.50005759975494 0 0 0
2383 1 27.271503535312153 15.820945132207545 4.843063584121212 0 0 0
271 1 31.38618105845829 13.515046102197262 4.221215696927682 0 0 0
1726 1 36.16300435643955 13.12066354701024 3.6756151511750446 0 0 1
10 1 36.64984229738121 13.844538071424013 6.296857761057412 0 0 0
1487 1 38.52669128939272 11.853611404344816 2.8771718284987027 0 0 1
594 1 40.6896741180989 15.210716191297672 6.532492327453333 0 0 0
562 1 41.817244614366956 15.260453239022807 4.082279821978183 0 0 0
16 1 44.11498010029886 13.613759674413206 3.709714446432649 0 0 0
38 1 1.7837939933653857 16.1961096949314 3.5957449167633646 0 0 0
602 1 2.9876095868072254 18.371104789184926 5.204084704813898 0 0 0
205 1 7.265516397233535 17.451162957506217 5.487677314081423 0 0 0
311 1 8.384129095643237 16.06137444325606 3.4472116986805883 0 0 0
617 1 17.266220038221586 15.727392082942615 3.7875939568724233 0 0 0
1886 1 15.366051959545569 16.62506245538768 5.770683595424743 0 0 1
1770 1 19.752587587792803 16.750670431537177 4.419182644265794 0 0 1
125 1 24.64667527089986 16.881375125653083 6.036989792848842 0 0 0
378 1 31.810678215608505 17.801870464290985 5.100046888215102 0 0 0
266 1 37.66182379998041 17.882207181590676 4.038185591001532 0 0 0
294 1 38.125670926558094 16.140419935938098 6.378740091924368 0 0 0
366 1 42.90181286106732 17.357765080885997 3.317401631986586 0 0 0
645 1 45.546905902100846 18.082962283067705 4.386895582283839 0 0 0
187 1 47.37122476618471 16.61170645809036 3.1662367417289983 0 0 0
8 1 48.738444516166275 15.703707337294652 5.638880949569276 0 0 0
2747 1 1.053677719778113 20.366205193240145 5.465512503853738 0 0 0
476 1 5.479381850400867 19.321326850414856 4.337927739756616 0 0 0
457 1 11.066000905164138 20.304040267768762 5.931213845816825 0 0 0
709 1 12.311514342726262 19.153315187437546 3.515668096337807 0 0 0
549 1 14.964637922201806 19.153963038764157 4.42912102869265 0 0 0
2097 1 15.46421534931995 21.657736044016485 5.956604326630135 0 0 1
1485 1 19.646893230277033 19.536504294606143 4.108494103196126 0 0 1
2445 1 22.415393739903294 19.903082858973583 4.043654863361177 0 0 0
2461 1 24.489072995094332 19.557462388621165 5.754395937627352 0 0 0
119 1 26.963504598260865 20.499706833331917 5.004065961435848 0 0 0
153 1 28.330629195583633 19.782940248654118 2.797977689202136 0 0 0
90 1 30.862976816250594 20.399264554905898 4.217548119757186 0 0 0
273 1 35.26882598307751 19.256925324099267 4.4520162726887715 0 0 0
529 1 36.09496802739811 21.691067162778793 5.9028360761766105 0 0 0
151 1 39.086584165724986 20.185884427347393 4.030342599465327 0 0 0
252 1 41.89599595073992 19.598275319790407 4.365600446014602 0 0 0
2246 1 45.7240440000089 20.191861370725537 2.881681481650365 0 0 0
46 1 48.078362171585205 21.147073935300718 6.418235518635721 0 0 0
3740 1 4.185480055657581 23.550549696305282 2.6132636434416896 0 0 1
2455 1 4.459437400278483 23.67116736216539 5.460046709262379 1 0 0
357 1 6.460037548843412 21.546630391206666 5.767765071677651 1 0 0
2768 1 23.704760561428717 -0.39940196970880226 1.5076613072397698 0 1 0
2167 1 9.238877243277788 22.300594121956117 5.217395093931578 0 0 0
512 1 14.835352888434377 24.284483977446804 4.860192562088811 0 0 0
1869 1 17.521160097845524 23.835727112610204 4.301499553491654 0 0 1
2109 1 22.702904088367415 22.56788734711358 3.8332162576108697 0 0 0
2206 1 21.97905179448024 23.932406348874323 6.069769858126023 0 0 0
2729 1 27.092133555531262 23.53935754726476 5.013916724669729 0 0 0
2795 1 31.51341531797982 24.53202355479571 5.479475112424348 0 0 0
633 1 6.515539012918148 18.21211022570104 -0.28059084812976703 0 0 0
299 1 35.952888959116535 23.982719858470404 4.383937943488834 0 0 0
1968 1 43.63008344289008 21.614407962721383 3.908435514186751 0 0 1
2889 1 9.513882851494989 24.518659761186985 14.985295947783559 0 0 0
209 1 46.95454375919803 24.027332240910688 2.755526048260838 -1 0 0
1880 1 47.86650801262845 21.377926558217233 3.5679928215565475 0 0 1
2784 1 1.9453894758683332 0.11791936001090542 8.071802033879669 0 1 0
2730 1 6.5046243703004185 0.987072203111985 6.286287516274848 0 1 0
524 1 11.337397214250755 1.7874479327630453 6.669072576927283 0 0 0
13 1 16.594218075080438 0.8947099915635564 6.556669957274785 0 0 0
180 1 14.854567638625173 1.2612846913881757 8.780384559298847 0 0 0
339 1 33.464129912592405 24.845688885350526 3.2997047798231596 0 0 0
2480 1 19.41482827097123 -0.013254002967604483 6.874595070101622 0 1 0
265 1 26.209492066945675 0.9074732431378552 6.221380191737567 0 0 0
94 1 26.737611795246814 2.9163445564207935 8.1009834909222 0 0 0
1597 1 8.924267756159095 1.6730572621269757 -0.5894713668890614 0 0 1
445 1 30.41377223544004 1.4089548699531638 7.62736253049526 0 0 0
451 1 35.62775733366896 1.9698845780135676 8.394765265567314 0 0 0
425 1 38.27267579195718 1.497277440805599 7.873440538292336 0 0 0
147 1 44.801620082836905 0.10832774007794499 9.072068693830575 0 0 0
267 1 1.15587462898565 4.276427213807838 6.803661469545408 1 0 0
701 1 3.3432242045899447 2.5521349732752507 7.128263736971969 0 0 0
5 1 5.270204613719926 4.090746973819965 9.72429848770176 0 0 0
468 1 7.056089820102665 2.347356841005342 8.44411501431831 0 0 0
1469 1 9.368875298422166 3.615147279628081 8.210540319750915 0 0 1
2205 1 12.220118798818524 4.793858747130082 7.430960410688382 0 1 0
465 1 18.965692351033137 4.073044640644619 6.49346286042345 0 0 0
143 1 21.445740069766188 3.1683605660801613 6.841507016520145 0 0 0
600 1 25.457725141909336 5.049035558794057 7.067705911584786 0 0 0
202 1 31.940889408605408 3.06227059216775 5.938383747002236 0 0 0
29 1 32.17115212218651 5.741472666196146 7.1735366789021615 0 0 0
241 1 36.12474234066565 4.720194969883166 9.30452216525482 0 0 0
327 1 37.493900640397975 5.966389240075521 7.376296607533823 0 0 0
322 1 39.423159876838966 3.9647678436676372 7.613914775363227 0 0 0
441 1 43.69375162952592 2.473619212087859 8.739676362964559 0 0 0
222 1 46.87277408207826 5.136456542602704 6.8817513827911645 0 0 0
659 1 44.92903033817761 4.9590869731865235 8.78523124266943 0 0 0
2161 1 49.480110513868176 3.5202039220437245 6.697189509359971 -1 1 0
141 1 49.475317009415676 2.0991122710401213 9.302213374001466 0 0 0
256 1 1.491113532081703 5.958422144664455 9.222267466708143 1 0 0
373 1 3.081589788280612 7.610475360416819 7.9017858631719395 0 0 0
627 1 5.20841555639104 5.974534616306193 7.643350978936272 0 0 0
578 1 7.287245531549984 7.934722419078881 8.075957193704028 0 0 0
639 1 9.925175622499891 7.339659925382101 4.207494441773391 0 0 0
2343 1 14.133584089786067 8.277008173641041 8.95157725717949 0 1 0
386 1 15.403594516809388 6.938240055976858 6.946283839659432 0 0 0
449 1 17.901520571631288 6.0348474128341625 7.752275533220104 0 0 0
334 1 19.29702249734698 8.500211342008095 7.341985026498524 0 0 0
2313 1 22.198191454300837 8.375738349192602 7.159950222821506 0 1 0
155 1 24.246219249162202 7.11250766874956 8.251950996272477 0 0 0
67 1 26.17236789357386 8.758266710584886 8.631310916343834 0 0 0
438 1 29.62283743601686 6.955260578677851 7.0334118741318985 0 0 0
58 1 32.84808315385586 8.755231760971549 10.403222231245895 0 0 0
249 1 33.720964319176524 6.208020664478409 9.698272361646543 0 0 0
242 1 38.61671414055872 8.466978957668129 7.49995122664337 0 0 0
525 1 42.94020958255532 7.123393205097782 8.015264599191168 0 0 0
2640 1 48.23010248291027 7.165344054604614 8.67308266384553 0 1 0
53 1 -0.2003542464610778 11.900424926394638 8.53092129313743 0 0 0
532 1 5.056381176235352 11.820735748773664 8.00941165434729 0 0 0
39 1 3.4552270955936093 9.923114557465395 9.326409108116254 0 0 0
245 1 7.068909288388307 10.282349705507198 6.843499670890624 0 0 0
1761 1 11.676820603887254 8.978569743718356 8.151463220198917 0 0 1
317 1 11.562951281723548 10.860336927961585 6.342802473550188 0 0 0
233 1 17.64828088749444 10.763148524548933 7.823802123197371 0 0 0
116 1 19.92704826433901 12.005126345144548 7.014354096864818 0 0 0
548 1 22.467590576236752 10.91580069111381 7.406907742507977 0 0 0
576 1 28.64732549100087 11.408894944158803 6.429864629598014 0 0 0
625 1 26.30080091726076 10.231378511496843 6.243915364518818 0 0 0
319 1 32.17519468238054 10.832775588228701 7.8056745175116 0 0 0
158 1 36.322258081871574 10.198258780486325 7.817538287869237 0 0 0
20 1 44.60973677438976 9.22714249217549 7.556001099509134 0 0 0
494 1 43.120309100301455 11.736727834138357 8.116381153502708 -1 0 0
429 1 47.106693537929424 9.840461376755325 8.97098219203945 -1 0 0
415 1 48.244802106262895 12.515029248011633 8.914067384376752 -1 0 0
62 1 1.4037322918251047 13.849821224284062 7.548354522846919 0 0 0
12 1 4.039543751139052 13.771393983169682 6.4535816226313 0 0 0
221 1 6.915628164815678 15.295022193674397 8.9526418455511 0 0 0
36 1 9.035551691571614 12.094334844763242 6.307804303504526 0 0 0
692 1 9.302505605140936 14.089583977583711 8.158474687711921 0 0 0
302 1 13.856095660581532 12.34047277346191 6.698856586859002 0 0 0
251 1 15.023845207564772 12.843953032909434 9.232974938953458 0 0 0
2625 1 19.290215709679813 14.229077691952666 8.586405913885683 0 0 0
1695 1 25.19913543982058 14.141979960124125 7.886159831998233 0 0 1
85 1 28.639266705041262 12.48074874769226 9.031245777910094 0 0 0
646 1 29.73846299517045 15.074240296613814 8.12947538259545 0 0 0
128 1 31.9481191557782 13.820310622236565 6.855795807315314 0 0 0
391 1 34.48128125584383 14.794828538609147 7.744462005940713 0 0 0
574 1 38.19513568618965 12.344206799872977 8.143685175069638 0 0 0
583 1 40.72357609245457 12.347723014539197 6.78660921843322 0 0 0
609 1 45.088456482855975 12.359204555446878 5.900795443102817 0 0 0
616 1 46.84697812971077 14.085740174007952 7.253348733836264 -1 0 0
575 1 1.8691588543083495 15.881605283487378 9.18316821350105 1 0 0
514 1 3.170016474198693 17.74506710372522 7.761733331723853 1 0 0
118 1 5.325184307749353 16.052750249094455 6.921933510974698 0 0 0
170 1 9.553695337730915 18.092691815098263 6.939459440014309 0 0 0
31 1 11.330759624793101 16.093072785846324 7.897592939167778 0 0 0
2709 1 16.32832282766408 16.906645103585106 8.358621357396052 0 0 0
1329 1 20.013498832003542 16.605209456378134 7.275396700897358 0 0 0
3754 1 18.473989221529596 18.85658290344046 8.01340270865749 0 0 1
2361 1 22.525988200227186 17.21837964350885 8.267174310076367 0 0 0
662 1 27.045349259798574 16.18076177150638 8.25476096908048 0 0 0
705 1 29.336294880269303 17.078289861435504 6.167665499639334 0 0 0
229 1 34.16508145857472 17.44908904388769 6.5144850779752295 0 0 0
488 1 38.442551197578446 17.62724898855188 8.737165354135442 0 0 0
652 1 42.62391074539305 16.3585982074598 8.183985362391363 0 0 0
263 1 45.26988914815198 15.699564726162361 8.803630542954252 -1 0 0
337 1 46.729415985829675 18.12209850609119 8.816353324152118 0 0 0
559 1 49.23739872957794 17.613830454633725 7.766718179527674 0 0 0
634 1 -0.3547491777567673 20.966497183314637 9.706252139711117 0 0 0
513 1 3.868605819225918 20.00275019228277 9.160420702768013 0 0 0
17 1 6.381206163170168 21.310382081717968 8.380209436809947 0 0 0
246 1 8.516605426847349 19.630229286096526 9.000456200287827 0 0 0
234 1 14.644979374914897 21.006316114841333 8.666935607292835 0 0 0
117 1 11.979072611749423 21.33748122365231 8.266065208970925 0 0 0
2027 1 18.068032840060578 20.896949315237997 6.1500096593195535 0 0 1
1187 1 22.58338341588439 19.434820690460366 10.181060544738761 0 0 0
2673 1 24.157912211984648 20.490062045233657 8.178971509318725 0 0 0
2217 1 26.542971915290142 19.560333291203317 9.465809705611985 0 0 0
50 1 27.986481559773118 19.304085607406368 7.382032067042156 0 0 0
518 1 29.56659805817987 21.797297041353566 8.6226584631052 0 0 0
587 1 31.34335746468239 22.047075711065556 6.668322670491071 0 0 0
296 1 33.90683494536407 18.97769572887328 8.604708776200338 0 0 0
188 1 33.763401635451494 21.46940203953531 7.614951822738375 0 0 0
63 1 38.81237854265907 21.761443352704188 6.383073618851212 0 0 0
669 1 39.75445081924957 19.742845659223438 8.17355972917331 0 0 0
275 1 42.08193914728091 19.162868791532716 6.944917910042167 0 0 0
65 1 43.84483771568926 21.130798145267214 8.081124916993721 0 0 0
490 1 45.96211277976951 19.635329635038964 6.683066154379071 0 0 0
191 1 50.36000397371608 19.924564534851037 7.294031607570583 -1 0 0
3757 1 0.14038922161340162 23.8649795079191 6.346858030693499 1 0 1
2453 1 2.4317550214547348 22.269794268855364 6.839232865656004 0 0 0
145 1 2.0619297715022684 21.927354011430587 10.000565792669459 0 0 0
2316 1 12.789321790208309 23.866759883493266 6.948251188617141 0 0 0
2633 1 19.329823619470716 23.74122893739058 6.846111499769061 0 0 0
521 1 18.744701443612982 22.87267615046118 9.721282467140446 0 0 0
503 1 23.70441474950915 23.30820868434168 7.986952500384046 0 0 0
691 1 26.206145600799395 24.40957387921613 7.370775940515463 0 0 0
448 1 28.0791605635923 24.186395534486127 9.339352090248147 0 0 0
329 1 34.11265605485747 22.919676376284663 10.033760807111955 0 0 0
485 1 42.573323755647806 24.624023055359473 7.603201365293533 0 0 0
508 1 40.100794907536226 24.322053754767186 6.388029232743947 0 0 0
630 1 24.105129527919747 -0.3414263464425389 9.583577697993892 0 0 0
471 1 44.346544816742835 23.06400173721116 6.155251717295126 0 0 0
3968 1 48.54200487085215 23.590518040094903 7.254394676399466 0 0 1
2597 1 -0.01107884569848927 0.017182720493914228 9.838309668427703 0 1 0
2667 1 0.7918402469203778 -0.324919044499272 12.279717947168061 0 1 0
282 1 3.237960927527809 0.6060530875020007 11.833927248553557 0 0 0
680 1 7.165489794947356 0.46445500075093715 10.581088260213809 0 0 0
1116 1 12.024245555429363 3.058615270562867 11.717245951001708 0 0 0
133 1 13.474651762483983 3.7130222535088624 9.641402039774295 0 0 0
179 1 19.295115665102067 0.15094455997973522 9.680155083611853 0 0 0
599 1 24.83453589953145 2.160421646630608 9.865584322225642 0 0 0
135 1 25.431956100650336 2.1449433009401924 12.457218483143768 0 0 0
470 1 28.918872507333933 2.7632728154352306 9.56996641644157 0 0 0
620 1 29.347950018713828 0.7831906862958571 11.736028435104334 0 0 0
506 1 34.12921857686809 0.592565027123126 10.252716115068697 0 0 0
685 1 33.35653865602721 2.4504158522677764 12.251649332155583 0 0 0
655 1 39.546370756778586 0.4039505899804474 10.117388192125684 0 0 0
712 1 41.638402954798146 2.3378916159525924 10.404688504606915 0 0 0
568 1 28.059295071024096 11.513504009954659 16.10155069180049 0 0 0