LAMMPS data file via write_data, version 29 Oct 2020, timestep = 800000

4175 atoms
1 atom types

-0.09409062878822638 50.09409062878929 xlo xhi
-0.09409062878822638 50.09409062878929 ylo yhi
-0.09409062878822638 50.09409062878929 zlo zhi

Masses

1 18.015

Atoms # atomic

1582 1 0.5196941281016452 1.4748920925520068 2.1235879415575267 0 0 1
116 1 3.36609014878917 2.4830829086370803 1.8286544561885048 0 0 0
1943 1 46.12779572260081 23.805623726952934 13.630270513817392 0 -1 1
118 1 28.757382427931955 11.140078160204315 0.9695031021739664 -1 0 0
1316 1 39.84259860070554 8.778485539086422 0.4323860439073368 0 0 1
1367 1 15.967755808655177 0.4339500881232219 3.7366477299101315 0 1 1
816 1 16.833960450747398 3.3527660444158145 0.4923889052581454 1 0 1
2460 1 22.59050154474945 1.8909692647000027 2.548574932519874 0 1 0
573 1 26.474775917637277 0.5745196288485865 2.941935435600057 1 -1 0
2321 1 29.805139277266964 3.464408386437451 1.0638190705360417 1 0 1
370 1 33.71495693407729 2.0709924756491738 2.168272253571163 0 0 0
1958 1 36.39724396705506 5.96762325020841 0.5909190437907845 -1 0 1
3515 1 39.59908221240157 3.114010204669677 2.6812420268918387 0 0 2
1387 1 42.29003069437793 2.1059744335681803 3.1600175793702734 0 0 0
2705 1 37.89797678937943 0.8216609162594916 3.3958811596034915 0 1 0
972 1 48.64682664867895 2.9879574145136645 1.5921414110634722 1 0 0
1539 1 46.385019369062576 1.352840003609899 0.9579080821023822 0 0 1
1289 1 11.393541834600018 24.843190226345992 13.440716899262599 1 -1 0
953 1 9.636108399112997 2.6111680002902307 3.55150032856312 0 0 1
881 1 12.86936709724471 5.10294694843136 1.3198224332336321 0 0 1
2591 1 15.191676650291226 4.646977613261497 2.411888831983526 0 0 0
3202 1 16.419535654707115 6.8828790231845325 3.6223677875590927 0 1 0
616 1 19.489384261183147 4.084924195369432 1.606473689616002 0 0 0
468 1 19.011041770225223 15.917328616767303 -0.03322563570880197 0 0 0
812 1 22.48507625470679 4.6306516127744874 1.4989002396012743 0 1 1
1758 1 24.965706974236547 20.93580902298329 0.804526491480834 0 0 1
2692 1 26.94787817215907 3.4096757490961465 3.2804183515571763 0 1 1
4021 1 24.533861138108087 0.4752036032178294 10.940178896220495 -1 1 2
1581 1 34.0865998801776 4.758232809932985 1.863461146583219 0 -1 0
2816 1 34.44125893283022 23.92498844746997 10.177784209730971 -1 0 1
385 1 39.31659715924168 5.355762540214296 4.143410637078819 0 0 0
1442 1 9.298407250668959 3.9099216767494838 0.9534029874675145 1 1 1
1236 1 48.028165259124876 5.360622619149377 2.623368038136944 -1 0 1
2338 1 -0.05185689221602665 7.705054679126588 1.173624014179819 1 0 -1
36 1 4.401373122444869 6.369628121566609 2.29277297189502 0 0 0
1903 1 2.661992943864433 24.123704098167487 3.3594264188299037 0 0 1
3423 1 9.53786118229644 8.773996158525867 1.9535306775412606 0 1 0
2827 1 9.03178282760331 6.132315496634931 2.4621017426305314 0 1 0
514 1 -0.059047341076624286 23.726898689087427 14.885527538210608 1 0 0
3352 1 13.154229485440807 7.454039037085653 0.06298219559572091 0 1 1
975 1 26.57116737565535 7.912638704228714 2.3756512065766655 0 0 0
3445 1 28.47010531570312 5.712696361752951 2.7229168731911657 0 1 0
562 1 30.69544681431704 7.737663531608464 0.9004784160698065 0 -1 0
777 1 2.892074101144113 24.961087261875186 9.271236683608537 1 0 1
1154 1 42.96225510356399 6.431877232825955 15.955615749999712 -1 0 0
1408 1 37.08343245202657 6.978031674313197 3.179171622290332 -1 1 1
2746 1 23.235811847847074 16.633698783158355 0.02490020581167085 0 0 -1
3460 1 45.25896102112837 4.849191606110636 3.348142068340407 -1 2 1
2967 1 43.53151645810233 6.36917296322195 1.8744811455461468 -1 0 1
3052 1 45.041112111365095 8.571254601920902 2.289245626630154 -1 0 1
1365 1 47.27265035681302 7.420505232678535 0.7437283108096071 0 -1 1
3667 1 0.10546899237916474 10.551306796046173 0.41493943910877706 1 1 2
349 1 2.86231163608226 10.500843509210307 0.5608372962257636 2 0 0
1335 1 3.8142440654146372 10.711727187215372 3.3012685620193305 1 0 1
3760 1 7.64614176558134 10.487849798352185 2.8857957263140355 0 1 0
782 1 5.544109142756025 12.3984600626385 1.3682194448814484 0 0 0
989 1 21.471774543303614 23.18490416553729 4.917190624343378 0 0 1
408 1 12.272418527548433 9.555277876543212 1.9640337970136623 0 0 0
2081 1 16.06972702915989 10.649991415133988 1.1873883246488786 1 1 1
2828 1 18.40436574665781 11.824074051559231 2.4991961759352836 0 1 0
1793 1 20.360518308986798 10.793222065880068 1.128939948236193 0 0 0
1707 1 11.569593162958666 0.30794693420892055 9.769783966698164 0 0 1
2050 1 24.120544250581176 9.094364589695937 1.5033788269435195 0 0 1
2553 1 26.99359413158822 10.515248610817704 3.756764453793581 0 0 -1
2509 1 29.98549468399279 9.966475970259697 3.2606262482741037 0 1 -1
216 1 45.65994602750105 0.09820486344041562 3.6089220269951614 0 0 0
2531 1 33.379423581641774 10.860941155251956 1.3651927414261937 -1 1 0
1182 1 41.49300118476418 10.990104504722174 1.285667492718696 -1 0 0
3375 1 44.43832598796284 11.00602775691395 1.0814184419006867 0 1 0
1136 1 49.27197864958491 12.859711531254268 1.9369345302303675 -1 0 1
469 1 0.45253927786249537 15.147617950363175 1.491678656827554 1 -1 0
2897 1 5.873580341337676 14.654751321766167 2.7825439636453186 1 0 0
2129 1 10.402114279523515 14.24969920045595 2.4809790672675374 1 1 1
2087 1 8.234620432140515 15.742363970969558 2.388566953161619 0 -1 2
3142 1 29.994797608101386 0.11680201698915191 4.3425551865855825 -1 1 1
2871 1 15.515661927884135 15.075159947282387 1.899518459484061 0 0 0
3765 1 46.630599793589 0.8893649134940587 14.563637410445217 0 0 0
3960 1 26.361406962530022 12.653464233076198 1.606760542267461 1 0 1
3639 1 24.297642594407673 14.860886643984797 1.8663437906146974 0 1 1
2606 1 31.607033187769822 14.919323354138763 1.676787701903732 0 0 1
3194 1 34.28050175049218 15.116628148703258 0.7610714665755932 0 0 1
1015 1 0.3143161482711372 -0.07089127282642069 4.657901123118572 1 1 0
3051 1 39.874231480922106 13.277851460175293 0.6571802143152066 0 0 1
1334 1 40.82383213485902 15.73103538885324 1.134489754331931 0 0 1
1874 1 43.80478983359009 12.722895260061577 3.322863147495979 0 0 0
3090 1 43.609410973809545 -0.0811806643641404 12.093108985361434 -1 1 0
1999 1 4.517675406322265 17.282941244127805 2.4145168716971535 1 -1 1
1737 1 2.2005829366762844 16.277056630767035 3.28564025757596 1 1 0
899 1 12.423179898022926 15.927692636935738 1.8839305128489123 1 0 0
3377 1 14.87005848650647 17.984205234541605 2.615306972449896 1 1 0
3546 1 12.29282135719852 17.958927953256758 3.950353790702688 0 0 1
1454 1 21.217526596724046 18.62333683435565 1.2134814076320941 1 -1 0
104 1 0.15352825720648158 24.445146902799678 5.213488110178431 2 0 0
1336 1 5.908791046386202 24.151669633450368 0.5105608916660445 1 0 1
3652 1 18.589124491349 -0.04542640763368411 3.8711245638160863 0 2 1
339 1 26.981398418298387 18.99817870444396 0.6226060051126414 1 0 0
1665 1 27.68627591627562 16.60013880770659 2.1558966087769686 0 0 0
3067 1 37.357467173607105 23.50172364662856 1.8407687838208755 0 0 1
3007 1 34.46422723484484 17.94465894020376 0.8661256225145094 -1 1 0
2855 1 38.28845578196146 16.765175253278315 1.3528262777725117 -1 0 1
1535 1 42.7218436696803 15.336815335800106 3.338418237575493 -2 0 1
1686 1 40.95415436250099 18.915239998925536 0.6958858138697971 0 -1 1
1884 1 43.67330741655378 18.474735258505593 1.161086870084915 1 0 0
2296 1 45.015052695398566 15.915629229103676 1.1849812984406627 0 1 0
2045 1 20.92044363519162 0.3449225794792464 12.749915138657858 0 1 1
623 1 1.4077514168443506 20.528833809340185 2.8856613224464804 0 0 0
2923 1 44.1616977173352 23.1547859661212 11.643346647922996 0 1 0
3789 1 40.212263274091384 23.55936499679529 0.24185002001701067 0 -1 2
89 1 8.54621699156926 18.125970660830834 0.8427251787560909 0 0 0
2046 1 11.8347609988372 20.5182865663101 3.4780528964665645 0 0 0
4060 1 18.42325384756918 21.809098345444916 1.8521942875517334 0 1 1
495 1 16.095054374810587 20.621361751430666 3.217273369731004 0 0 0
810 1 48.73835308457332 17.381520830038095 1.0226440884104702 0 -1 1
905 1 21.131925281627158 21.293144103262286 2.1614501096503047 0 0 0
2161 1 23.20533868880965 24.647102640618325 -0.06503080141089568 0 0 1
2306 1 28.19904005685919 20.557255967258314 2.5463019340874316 0 1 1
3300 1 32.249976504557736 20.708241544938538 1.0025367885536918 0 1 0
2738 1 34.93312104803542 21.83749376535352 1.436500364543637 0 1 0
2133 1 36.9678107346453 19.017631989982668 0.015333990298204953 0 1 0
1698 1 44.4302857554128 20.521773941968597 3.2183251156559707 -1 0 1
2849 1 46.61188353708225 19.514971819039218 1.2439862692722348 -1 1 1
3916 1 3.39621324531961 22.92832582191119 0.9788650640568297 1 1 1
2478 1 3.991777591294456 19.9908678044608 1.1703300080818002 1 0 0
2668 1 5.951245650527062 21.402033954383334 2.5822061129924863 -1 1 -1
1730 1 20.504695350289992 12.232027935822792 13.57251409233738 0 0 0
3484 1 9.587099044531117 22.172518912998644 3.409645009796928 2 1 0
799 1 13.724211578908646 24.438406039287024 2.123555784630853 1 -2 1
2845 1 13.943061808833237 22.079600213666378 4.051211576858903 1 0 1
668 1 17.99409310268424 24.00807184085356 13.816770803126962 1 0 0
2352 1 16.344298420197966 23.99383628191017 5.171139658492152 0 0 0
2316 1 2.3360111880914736 22.141782751524723 13.965217387911268 0 1 0
760 1 26.38903535999173 22.454864220727632 3.341354280812353 -1 -1 1
4175 1 48.78825568888456 21.33897945105671 15.221728297678657 0 1 0
3597 1 30.096872699412867 22.123936678639495 1.3875912052481587 -1 0 1
3316 1 10.79576445631075 12.182810043059265 0.8530373749245583 -1 1 0
2464 1 44.19113911321139 3.2439012435036214 1.200629754484319 0 0 0
2109 1 18.472301472262078 19.646773194319135 14.959382599513374 0 0 0
3370 1 9.202042440001033 0.7539262531289403 8.312131192759384 0 1 0
2663 1 41.219905382288744 22.564853564840654 2.4195836139654388 0 -1 0
643 1 43.98684364020376 22.619234145788564 1.6067311595767026 -1 0 0
1694 1 45.58788639132571 24.50914640483491 2.7416200801797492 1 0 0
2745 1 47.58371345578233 22.0234812464479 2.1213047492819133 0 0 0
2700 1 9.295294404548367 24.75486118716494 14.834307009632345 0 0 1
3780 1 4.487025417192468 1.2072835219773221 5.431538496437341 2 1 0
1096 1 41.60467755770591 24.004748465370103 4.741502573304902 -1 -1 -1
386 1 34.5859644937552 0.29773498699807255 11.790445956601152 -1 -1 0
1055 1 31.95556988560269 5.265066957314309 -0.06442610105959778 0 1 1
2520 1 10.04653166790783 3.124696732338389 6.826016561088183 0 1 0
3267 1 11.946861645622429 1.1635287454740377 3.3413245208903075 1 0 1
2740 1 15.094766654431975 2.8289068174643432 4.72449610885871 0 0 0
1894 1 48.52816280592113 24.847350179842877 12.766109426311786 0 0 1
1339 1 24.298269710452118 1.9573447314405965 5.0348117437980555 1 0 1
3435 1 26.154380057186117 1.2951735489989753 7.782374069186864 0 1 0
1263 1 7.104890953853455 1.1060534256896133 4.179479995344651 0 0 1
1620 1 31.384705369576263 2.3960218233303854 3.523861427152148 1 0 0
2786 1 46.63687199243074 19.125381493134594 16.495110595248445 0 0 1
3385 1 35.463285871648026 1.106110723388528 4.000782832244523 0 1 1
496 1 41.791653801010995 23.88653979931918 12.898215125313419 -2 -1 0
360 1 15.593875587734306 0.8144633151633903 0.983814279194041 0 0 1
16 1 -0.02971581699554285 2.443619788796782 6.042059010767765 1 0 0
659 1 9.62972945162728 2.732864618080704 15.389221794610066 0 0 1
3553 1 2.4785423738057353 2.99842831548782 4.455953553554159 0 1 0
2990 1 2.5151329850851853 5.84965578276056 4.534343218117879 0 1 0
3321 1 5.770081768461199 3.7463617627734096 2.554020167342896 1 1 0
3712 1 7.786034779385222 4.0309479896499365 5.361315633305229 1 0 1
2517 1 11.54020369985947 5.752776037593055 3.59412953388234 0 1 0
4115 1 12.285483899963562 3.56481286258264 5.033393927134095 0 1 1
2374 1 17.591166238223522 4.410801605883703 5.429957499568366 0 1 0
229 1 20.085100828955525 2.118808639104005 3.4454231421751937 0 1 0
47 1 25.681045984720303 6.946773104767068 4.980868185556328 -1 0 0
3856 1 24.28237652117151 4.739435075673491 3.9569283723551587 0 0 2
4132 1 28.88855717762946 3.159484771076814 5.2848600943995345 -1 1 0
1820 1 31.752164646421818 3.55118525021897 6.603392537246569 0 0 0
2618 1 35.39259176301603 3.441667502301843 5.566743476650747 0 1 0
1986 1 38.03606428664614 4.378767755464101 6.7855870472562225 0 0 0
2473 1 43.519286003540856 4.373770886620841 7.221508522983042 0 0 0
3616 1 45.20693090732934 2.526537917018637 4.677593053812691 0 0 2
3752 1 47.71322109450227 3.5586385577947746 5.545798759405927 0 0 0
4116 1 0.23623457248100488 7.112547265285483 4.040720647010582 0 1 0
2305 1 5.686123384452407 8.583169435210507 3.6078132232102895 0 1 0
813 1 7.78132510486771 6.76903324748343 4.92999217767306 1 1 1
3651 1 12.467473919323172 8.204125121322866 4.502289983179385 0 0 1
2806 1 15.111716888496206 8.471364901988915 5.623659424782502 1 0 0
4096 1 18.62581391633056 7.7596952822424035 4.840021519319315 -1 0 0
2445 1 18.811564726019704 6.830736790940687 1.794947946820651 1 0 0
3834 1 21.311067226749703 8.270705989493997 2.0709979498645477 1 1 1
2678 1 21.36724253567895 7.505226692177896 4.796214484269528 0 1 0
113 1 30.447062963449792 6.108753618533808 4.724689457778682 0 0 1
2393 1 32.54250027620823 8.663679401473845 6.349772215788869 -2 0 -1
4161 1 33.20938053862754 5.104686343900234 4.635870742258322 0 1 1
1695 1 32.138456513045895 8.019084434406 3.388837795690472 0 0 1
1212 1 34.969259708390084 7.201148714130072 5.195639601462856 0 0 0
3939 1 40.08178972525066 8.122542142137885 7.3804709200703025 0 0 1
3680 1 43.63398614501632 6.664356706679184 5.288185536996091 0 1 1
2347 1 46.25730151840395 8.255924669010442 4.959151358410614 -1 1 -1
752 1 48.3192094085574 6.175390848550065 5.8071280223727335 0 0 0
890 1 1.29141979530242 9.988514898301236 4.146576945302794 1 0 1
697 1 4.812130763008265 13.198100639945661 5.03844872617545 1 -1 0
2533 1 8.961963271694527 11.904081284152333 5.026540506992106 0 1 -1
665 1 10.812162817906493 9.94216488598763 5.872091572558861 0 0 0
3943 1 14.453526797495222 10.511104410358788 3.3450728938711296 1 0 1
2319 1 18.462089132139383 10.564309540932012 4.996657720804691 0 0 1
1082 1 23.516261327778206 10.754548582888091 3.963576131519636 0 0 -1
3602 1 27.11266412961109 6.888306130593978 7.2193989651083585 -1 1 1
1823 1 29.486445202022686 10.973459280843274 6.068912822514488 0 0 1
3982 1 33.28735530511919 11.413017346471898 7.063093608331957 0 1 1
1344 1 34.000729987901735 12.098315751539657 4.340037086828165 -1 0 0
2883 1 36.1805680053633 11.099666981155508 0.7151836860232157 0 1 0
2567 1 40.30266375175209 10.174615250286426 3.8292624529972503 1 1 0
2089 1 37.81019419855228 9.494883686580938 2.4321456542728592 -1 0 1
2725 1 41.181873963114356 7.793575942742331 5.073898647028948 -1 1 0
3434 1 42.453531328675695 11.804150798804443 5.503415888103436 -1 0 0
9 1 49.22239701513617 12.131247107391799 4.655967028279133 0 1 1
2960 1 47.067593338440176 10.707263551108653 6.1436223115732655 0 0 0
1977 1 2.6094265286550042 14.721774487008519 5.5707077471271145 0 0 1
62 1 6.869607265831404 13.05838512027585 6.763760759396133 0 -1 0
844 1 8.04393148329239 15.802598942303584 6.732284830158236 0 1 1
3336 1 11.263058600934441 13.710838351755381 5.131044856319955 0 0 0
555 1 13.619178978810295 13.449045708966713 3.301750369670604 0 0 0
3244 1 18.261452787155005 14.492797526923017 2.283938072959573 0 -1 0
1406 1 15.363541752561844 13.59061273462997 5.525096527533236 -1 0 1
2756 1 17.093965144568894 15.518759624931558 4.8604175020457046 0 1 0
3448 1 20.417318924082657 14.789914491536468 3.962667534784888 0 1 0
3519 1 22.268667536257542 12.978352514131215 2.316628839214127 1 0 1
2600 1 23.34715773506124 14.338489239769517 6.083396812184191 0 0 0
974 1 25.412103858030964 12.411399239253836 5.281343745019133 -1 0 0
3075 1 26.4621560127008 15.080298029603311 4.216589456889379 0 1 1
2761 1 31.283706466419954 12.307603697308359 3.129565554879791 1 0 0
4017 1 34.914543596400875 14.31894496829356 3.390548828147548 -1 0 1
500 1 37.19738075812754 13.204992705619148 2.0970100330722685 0 1 0
337 1 38.51952314768681 12.562135447659445 4.343271354979186 0 -1 0
846 1 46.25811706430457 13.11898179845756 4.2349440415793005 -1 0 1
2809 1 49.90351373355688 14.59545606563161 5.635402573024844 0 1 1
2295 1 1.2951479397938102 18.53040009220406 4.492139996489822 0 1 1
3925 1 6.403981242388156 17.675400083884426 4.533080346649309 -1 1 1
1058 1 13.359442900707819 18.957830796957417 6.379230517574405 0 0 1
329 1 16.015067948221073 18.226548148181227 5.56379440087549 0 0 0
3965 1 20.096853842733605 18.24082351980393 6.549527277239863 1 1 0
3641 1 21.03616034728786 17.505160619882776 3.9471868275627893 0 1 1
1375 1 23.540023364628457 16.569629177044465 4.201734296417497 0 -1 0
3043 1 30.274043561800184 16.41644393389736 3.3995726986391253 0 1 0
3782 1 32.12704897709523 18.776608581671063 3.1227048950834666 -1 0 1
1086 1 34.45318551045362 17.981010965302907 4.145853055526935 0 0 2
1969 1 37.70743100608672 17.367627735990528 4.141090837820168 -1 0 2
2649 1 42.46664675292456 17.318333844088237 5.296355919423375 0 1 1
2720 1 46.61918991985577 16.92331621038755 5.231906310796928 -1 1 0
2723 1 49.07200494848466 17.75845493939682 5.849561293491138 0 0 0
2003 1 47.11783043317023 15.539148313254021 2.722190449677089 0 0 2
3230 1 3.8647259256153337 19.209173829284214 5.240594568828222 0 0 0
109 1 5.498056788715485 21.63044733951507 5.3921186500271805 0 0 0
1411 1 8.138271203488328 19.536930376996008 3.190923694990108 0 0 1
794 1 9.577758065389103 19.35897276262479 5.886116430363052 -1 1 -1
2266 1 18.39598848037852 19.719922457190997 4.466834830186281 0 0 -1
2921 1 23.803312890355656 21.479284659255683 4.111853835734337 0 1 0
3139 1 18.94458773311601 22.454251060625086 5.692152013633574 0 0 1
1992 1 24.13713806659023 18.878156855121723 5.440726654599941 -1 0 2
3901 1 28.474589737124454 18.5173341330806 4.497512790320525 0 2 1
2125 1 28.90375327856348 20.829358967752206 6.17618852902871 0 0 0
2169 1 33.64547994995314 18.118419349357808 8.022727665108137 0 0 1
2434 1 32.64067177450073 22.256835212716265 6.462259690690019 -1 0 0
1471 1 36.85278365986147 19.99595348098405 2.835198660221336 0 1 2
2480 1 39.62046757170617 20.179205501338473 2.9715745432832286 -1 1 0
1572 1 40.126654272781636 18.917386796827916 5.313926219472461 -1 -1 1
3118 1 44.591884252577955 18.937164107065108 5.3798757341252035 0 0 0
2498 1 48.687896252743656 20.31351537985818 6.2074751900372 -1 0 0
1540 1 42.13242038268707 0.1494013850098014 7.777464079793437 1 0 1
1830 1 40.80797997152321 6.551820138392361 1.6607591826054748 -1 0 1
609 1 49.518177627981515 22.049026635075034 4.1038542844422885 1 0 -1
906 1 4.663637073449802 24.132873795993177 5.24624968604461 0 0 0
2201 1 9.848475785667258 23.222809275272567 5.8622403877939515 0 0 0
2656 1 14.015354604328426 23.05346820621425 6.7535330570066385 1 0 1
529 1 44.310296122336936 24.358272226901473 5.223992346976071 1 0 0
2424 1 29.909131006221013 21.256461040149738 15.470694405421437 0 1 0
523 1 26.728269692738113 23.470973070067767 6.077709370165092 0 1 0
381 1 44.99531761625069 0.4027505863318432 8.116612388977886 0 1 0
2916 1 0.6451616385762843 19.312333085977606 0.41464050632055516 0 0 0
2908 1 33.775281580245235 23.138933272315576 3.982804159996702 0 -1 1
3361 1 37.78951624344221 22.35159225556674 4.4160327385889735 -1 0 0
1203 1 40.27048242333167 22.089255333688804 6.317380829910213 0 0 0
2631 1 0.21395315174708518 20.2425081577125 12.669675860975032 0 0 0
3003 1 44.22700356069032 20.205715614090476 13.982311497606949 0 1 1
700 1 13.852264173076605 5.465449640301009 16.370678871729147 0 0 0
1386 1 12.69561271942953 0.8919392947686057 0.4434730243143258 0 0 1
393 1 50.003019213422945 2.2095379700665676 8.72943099144762 0 -1 0
3600 1 1.2159175282028596 17.47938186116992 14.68019266233635 1 1 1
3234 1 33.04817418595982 2.392315601186207 16.067135317682673 -1 0 0
3859 1 13.90109691235086 3.5867346739333366 7.658054511429232 -1 1 1
238 1 17.01751481517856 2.059355341582848 8.626947497764188 0 0 0
1925 1 19.51733723467784 1.1715941125524139 8.13129294530187 0 0 1
1357 1 23.52114236789305 4.914345832080659 8.369273813416825 0 0 0
368 1 26.877553973707773 2.211259154345863 10.50620734560518 0 1 0
395 1 32.429751873270774 1.2960958404369507 8.351908948224628 0 1 0
203 1 37.22290094492877 2.6790512726747506 9.888113240922523 -1 -1 -1
2913 1 36.978613182962576 0.009428649482007903 10.804920832892922 0 0 0
3623 1 41.93928407311729 2.5362978954249566 6.012716018679695 0 1 1
3643 1 45.99749294449002 3.2938660413276026 7.966188767690641 0 0 0
165 1 44.242015472661464 17.47296918898563 16.30986785686749 0 0 0
3253 1 2.4903200764712223 2.154873169710856 9.495039957715138 0 0 0
3608 1 4.08852156456441 4.192739512582897 8.774992088685071 0 1 0
3334 1 5.84925811064798 2.752394287164468 7.179319327868938 0 1 0
1284 1 11.787629493497837 6.086449421563453 8.174019486991915 0 0 0
225 1 16.63679467519418 4.8075532995879975 8.101571159986355 -1 0 0
2708 1 15.964194893862178 7.022604063303979 9.95222824688708 1 0 1
1800 1 20.054444644679787 3.124284385214236 6.2204667459561085 -1 0 1
120 1 19.448410340315966 5.32783533781497 8.1469674841434 1 0 1
1496 1 22.264022042380216 4.871517366965088 5.631807960756797 0 1 1
3347 1 26.184061427643606 4.995807592638595 9.979614219593143 0 -1 1
343 1 26.147262856343293 7.859653180301888 9.819526789240618 -1 1 1
1828 1 27.51021300168492 3.9474345188596107 7.571761720136374 -1 0 0
689 1 30.235803790380313 4.552050357200346 8.88722506666134 0 0 0
2358 1 33.248851424273866 4.340283588338691 9.208445309377042 0 0 -1
3799 1 39.463280063153036 1.9383619932998384 7.302372563525809 0 1 1
3584 1 41.57634742901506 4.28882232046749 9.287156533684545 0 0 1
4117 1 45.362982468480226 6.301945369517602 9.27927174050884 -1 0 0
1979 1 48.37373356434304 4.450464073498812 9.729720430194611 -2 0 1
2922 1 49.221395983736215 6.687359399072005 8.585828306293237 -1 0 1
376 1 1.6287644258042067 7.5983981604359085 8.420829943731713 -1 0 0
2550 1 3.4877960758746824 6.253743613512507 7.14843660778773 1 0 -1
1923 1 5.2456444673779385 8.346625723855913 6.524152828263571 1 0 0
2861 1 7.321440495615277 8.043626493459588 8.653778269405137 0 1 0
1964 1 9.444078037765005 7.77355280538775 7.185107647018917 0 0 1
2602 1 14.137071871411088 7.884446870520968 8.07931740370339 -1 1 -1
862 1 18.31656853546212 8.15884609371138 7.696113863472709 0 0 1
456 1 21.563960653179407 7.330848092358791 8.139518178085595 1 1 0
2043 1 23.814163320439746 8.521823299089453 6.382745962716454 -1 0 1
3944 1 29.32884301055793 8.098059883117578 6.120838937682358 0 0 1
1542 1 25.08423714550007 9.917145144534329 8.397670336533544 -1 -1 1
1690 1 30.90432209879149 7.331426374188351 8.472789584590194 2 0 1
2547 1 34.057501911213095 6.9357009584980345 8.956774718951188 1 1 0
3277 1 36.640469930409594 6.805599903123748 7.530688250242158 -1 0 0
3858 1 39.31668505600676 6.023994719463352 8.83599205417833 0 1 0
3808 1 37.67720772448139 9.416585299660284 7.216493088409446 0 0 2
1410 1 42.03054044663662 9.488306764825198 9.13874985201584 0 0 0
3278 1 44.079101765596675 8.058194564207641 7.604790417723317 0 1 1
3871 1 45.381903309096145 8.770851449899018 11.092063250154784 0 0 0
1310 1 48.052637721594095 8.776753441821619 9.998176420761817 0 -1 0
73 1 1.367862522945752 10.052805517620541 7.078995572745701 0 -1 0
3671 1 1.9119350143705915 12.146977293745014 9.376231606875836 1 1 1
467 1 3.83077316901535 10.790007633898764 6.483770914765482 0 0 0
2123 1 11.939402639850648 11.795046538237427 7.868057836934805 0 1 -1
3128 1 16.33794326242141 10.764456983805387 6.802991508264514 1 1 0
2007 1 18.06441169564816 11.223163229662097 9.035610990448085 0 0 1
1139 1 21.094089751049623 10.331044142265675 6.053510903451384 0 0 1
4048 1 20.458623181177593 9.329519846375119 9.653495026418966 -1 0 1
949 1 27.046919790603752 11.713075192654811 7.442495483215962 0 0 1
1060 1 30.98111168310175 11.63130479769968 8.273921464746582 1 1 1
3047 1 34.75505492586559 9.45285779959125 3.482729919842574 0 -1 0
3156 1 41.941573804416194 12.43097303441355 9.255600931136955 -1 0 1
778 1 44.576525934233715 10.941735635737714 7.141605832817528 -1 0 0
1995 1 49.02236580498986 10.989042522909525 8.067204567046192 1 0 1
341 1 2.6061330306295103 16.11822790168331 8.179724657190695 1 0 -1
476 1 5.018564659394487 12.525625464234883 8.70419014003946 0 0 1
74 1 5.230237783108231 15.525353831867614 9.211311054781032 0 0 -1
865 1 8.405376741724563 14.864976993015894 9.262105135914974 -1 -1 -1
2441 1 13.529671463054159 14.08625828809641 7.492048523188807 0 2 -1
2022 1 19.560112635735255 13.600981518854072 8.807944267540249 0 0 1
2694 1 20.829371743910027 13.049744457287566 6.168647632417919 0 0 0
1569 1 23.411880178116917 14.860855751728227 8.830345733548421 0 0 0
2067 1 26.126919254729827 13.708849538544166 9.264509833010237 0 0 1
2981 1 29.40510225876673 13.663775887664613 4.584629547086036 0 0 1
756 1 31.470601784722433 14.480198291479734 8.771911196523948 0 -1 0
1187 1 36.160536030326355 14.546430881122316 7.446516894943881 0 0 0
486 1 35.708535504951726 11.985688153314545 8.336157529499053 -1 -1 0
2914 1 38.627948886284244 15.156585907704848 6.0930925256229616 0 0 0
2595 1 36.59209531099661 11.205750034545577 5.697570425811051 -1 2 0
2864 1 41.346166994720434 13.939181347120037 7.140654059052774 -1 0 0
2654 1 45.96431709575985 14.761873508934082 6.609237026844652 -1 0 1
13 1 44.68403293138688 11.63100275883749 10.040229061143805 -1 0 -1
356 1 49.413994242332976 13.173657185486158 9.688093889339752 -1 1 0
404 1 48.735020386321 15.212835251159781 7.948930349002403 0 0 0
1792 1 49.50219839036065 17.727311208378126 8.995725513404269 -1 0 1
355 1 3.451775144995508 18.64433793735171 8.100674763977938 1 0 1
2035 1 6.327898209406838 17.80452877569442 7.619996851063973 1 -1 0
985 1 10.622159185301706 16.56932679301104 5.798337260380495 1 0 1
4031 1 10.574653224127474 16.460262534022107 9.995705231542647 0 0 1
2084 1 12.503072982669046 16.74487092453677 7.91164763740459 0 -1 0
446 1 14.947054287798405 17.804414825313003 9.190612251204358 0 -1 -1
1978 1 17.41647192726861 18.865495796718488 8.079425690157581 0 -1 0
2805 1 18.519425744639864 16.05337581933785 7.187192272517867 0 0 0
3579 1 23.521637219885356 17.567081116942532 9.551244404849797 0 0 0
759 1 26.757276211632384 17.323041793654582 5.849656452288233 1 0 0
2985 1 29.52979405842677 17.78289852069451 7.414197188340329 -1 0 0
2053 1 30.980064064726506 15.645469310411267 6.156960784848246 0 0 1
3981 1 33.87968674400098 15.686819056258786 5.865603916078685 0 1 1
3479 1 39.45703068271931 16.048631143896902 8.564172717064608 0 0 0
1116 1 43.29003821263403 15.796586632154177 7.5061595032250095 0 0 0
1140 1 46.29330457821641 20.241340072799755 7.307054520802481 -1 0 0
3583 1 49.821033114984445 21.46940053026898 8.471438273382793 0 1 0
3800 1 2.0584291532197345 20.357168344787684 9.949375967887455 0 0 0
2945 1 7.738473557317504 22.287327506708998 7.206941521743136 1 1 1
912 1 8.24329579115416 19.793393792852925 8.440731427895633 0 1 0
4016 1 11.244746408353537 21.39985608762865 9.528970810408163 0 1 1
1667 1 11.731190675114991 21.359961453259377 6.753183986179448 0 -1 0
2093 1 18.59256706396247 21.449488569867395 8.234627041726103 0 0 0
3491 1 21.39348273463175 21.587861850453645 8.730159544883682 0 0 0
126 1 24.229129274877803 21.854811365203414 6.879479021398032 1 0 -1
3694 1 22.448116788759677 19.13070004079709 7.625770582326749 -1 0 1
3020 1 26.76840741389969 21.164506379843136 8.285188151693811 1 0 1
1882 1 26.124611836120987 18.24788536373481 8.717249533034543 -1 -1 0
2335 1 33.47830709747231 18.26078357185025 10.937481821706958 0 1 1
2370 1 36.11602114855532 19.51230586025221 8.279997816947487 0 0 0
754 1 38.554096703110645 18.56851881979974 8.003387968227734 -1 0 0
219 1 39.756199762969615 20.193320923501776 9.802087022184708 -1 0 0
3481 1 42.596574546661614 20.682429156712068 6.972604964377247 0 -1 0
1158 1 42.27989139267302 19.416012983829418 9.298042281939654 0 0 0
3504 1 46.54546733494658 20.057553127258725 10.000986620248941 0 0 1
3695 1 0.7292488572426912 23.919463153384072 8.021963087849045 0 0 1
2176 1 35.26279328496341 1.828077532786485 7.824114482729204 0 0 0
378 1 38.64707695610525 0.8374046343871249 15.562971809034059 0 0 0
3034 1 7.308371964897713 24.126431585830993 9.16580349078735 0 0 1
3243 1 36.250105099824225 19.893490863457526 14.183367594271953 0 0 0
2057 1 14.908942467786236 23.07291191068199 9.391642842257328 0 1 0
2047 1 26.72669698507499 1.8912874692151123 13.392739416939442 -1 0 1
3732 1 17.550930930092477 23.54198971760604 9.547784934441083 -1 -1 0
1288 1 21.73394812388462 24.164841500124407 7.758832897783007 0 0 0
3283 1 31.436398980460922 20.003555095289855 7.977597239398662 0 0 1
2968 1 10.049432949925695 21.98357043211554 15.881594136368493 0 0 0
1394 1 13.273007990733475 23.88587278070539 15.34575461589355 1 0 0
2928 1 8.301607543834537 11.924310335601623 0.07163154436430363 0 0 0
342 1 35.039494523490205 20.570338626160073 5.749033108294948 0 0 -1
3861 1 39.113176536392885 22.69255827462571 8.70824993244556 0 1 1
574 1 35.93021779289488 23.6975884501306 5.983088260361875 -1 0 0
1980 1 44.9030085004224 22.493929583692385 7.200411429938109 -1 -1 1
2159 1 43.60089438946251 24.187319365399624 9.026820685297011 -1 0 0
2264 1 47.94997249940309 -0.07675928602575452 12.146969551492514 -1 1 0
3093 1 16.149848016430166 20.16627782864497 16.484517318370383 1 0 0
3509 1 2.205795384591279 2.5449598961196704 12.24002571079346 1 1 0
3563 1 35.74351918845531 17.14446224228251 14.253928493349393 -1 0 1
3371 1 15.037252689657008 19.4965365897392 0.08766370181476033 1 0 1
718 1 16.48137095720067 1.5373550326903138 13.79015343502699 1 0 0
572 1 16.91362849968932 2.9485302648930842 11.404059198233586 1 0 0
86 1 21.40561423464783 1.5890634992178005 10.382167094707441 0 1 1
3611 1 24.351573087323846 3.06657556653681 13.510660939766696 1 0 1
617 1 29.54259186862758 1.7186256920453986 9.843501357386291 0 0 0