
# Create simulation box of size 50 x 50 x 50 Angstrom
#
lattice	            sc 1
Lattice spacing in x,y,z = 1.0000000 1.0000000 1.0000000
region 	            all block 0 50 0 50 0 50 units box
create_box          1 all
Created orthogonal box = (0.0000000 0.0000000 0.0000000) to (50.000000 50.000000 50.000000)
  1 by 2 by 3 MPI processor grid

# fill box with 4175 randomly distributed atoms
#
create_atoms        1 random 4175 63782 all
Created 4175 atoms
  create_atoms CPU = 0.001 seconds
mass                1 18.015

# Define potential
#
pair_style          sw
pair_coeff          * * ML_mW.sw mW
Reading sw potential file ML_mW.sw with DATE: 2019-02-27

# Run minimization
#
minimize            1.0e-8 1.0e-8 10000 1000
WARNING: Using 'neigh_modify every 1 delay 0 check yes' setting during minimization (../min.cpp:187)
Neighbor list info ...
  update every 1 steps, delay 0 steps, check yes
  max neighbors/atom: 2000, page size: 100000
  master list distance cutoff = 6.0032907
  ghost atom cutoff = 6.0032907
  binsize = 3.0016454, bins = 17 17 17
  1 neighbor lists, perpetual/occasional/extra = 1 0 0
  (1) pair sw, perpetual
      attributes: full, newton on
      pair build: full/bin/atomonly
      stencil: full/bin/3d
      bin: standard
Per MPI rank memory allocation (min/avg/max) = 4.255 | 4.258 | 4.261 Mbytes
Step Temp E_pair E_mol TotEng Press 
       0            0    7792709.3            0    7792709.3    5898794.3 
     630            0   -45180.336            0   -45180.336   -154.07449 
Loop time of 1.1247 on 6 procs for 630 steps with 4175 atoms

98.8% CPU use with 6 MPI tasks x no OpenMP threads

Minimization stats:
  Stopping criterion = max force evaluations
  Energy initial, next-to-last, final = 
      7792709.32924461  -45180.0188663597   -45180.336116598
  Force two-norm initial, final = 2.0191930e+08 4.9721331
  Force max component initial, final = 1.0948746e+08 0.73126211
  Final line search alpha, max atom move = 0.053306038 0.038980685
  Iterations, force evaluations = 630 1000

MPI task timing breakdown:
Section |  min time  |  avg time  |  max time  |%varavg| %total
---------------------------------------------------------------
Pair    | 0.88196    | 0.97466    | 1.0461     |   5.4 | 86.66
Neigh   | 0.023884   | 0.024374   | 0.024696   |   0.2 |  2.17
Comm    | 0.034366   | 0.10586    | 0.19938    |  16.6 |  9.41
Output  | 0          | 0          | 0          |   0.0 |  0.00
Modify  | 0          | 0          | 0          |   0.0 |  0.00
Other   |            | 0.0198     |            |       |  1.76

Nlocal:        695.833 ave         704 max         685 min
Histogram: 1 1 0 0 1 0 0 1 0 2
Nghost:        1494.17 ave        1515 max        1468 min
Histogram: 1 1 0 0 0 0 1 1 1 1
Neighs:        0.00000 ave           0 max           0 min
Histogram: 6 0 0 0 0 0 0 0 0 0
FullNghs:      19997.0 ave       20462 max       19320 min
Histogram: 1 1 0 0 0 0 0 2 0 2

Total # of neighbors = 119982
Ave neighs/atom = 28.738204
Neighbor list builds = 26
Dangerous builds = 0

# Add velocity/set timestep
#
velocity            all create ${TEMP} 120598 rot yes dist gaussian
velocity            all create 220 120598 rot yes dist gaussian
timestep            5.0

# Define output
#
compute	            1 all msd
thermo	            100
thermo_style        custom step temp press vol etotal ke pe c_1[4] density

# Neighbor lists
#
neigh_modify        delay 0 every 1 check yes

# Set fixes
#
fix                 1 all momentum 10 linear 1 1 1 rescale
fix                 2 all nve
fix                 3 all temp/csvr ${TEMP} ${TEMP} 500.0 928347
fix                 3 all temp/csvr 220 ${TEMP} 500.0 928347
fix                 3 all temp/csvr 220 220 500.0 928347
fix                 4 all press/berendsen iso ${PRES} ${PRES} 1000.0 modulus 20000
fix                 4 all press/berendsen iso 500 ${PRES} 1000.0 modulus 20000
fix                 4 all press/berendsen iso 500 500 1000.0 modulus 20000

# Run 0.5 ns equilibration
#
dump                1 all custom 1000 eq.${NAME}.dump id type x y z vx vy vz
dump                1 all custom 1000 eq.liquid_density_MLmW.dump id type x y z vx vy vz
run                 100000
Per MPI rank memory allocation (min/avg/max) = 3.506 | 3.508 | 3.511 Mbytes
Step Temp Press Volume TotEng KinEng PotEng c_1[4] Density 
     630          220    846.92133       125000   -42443.118    2737.2183   -45180.336 2.7295415e-33   0.99914793 
     700    140.20114    354.87003    125037.13    -41603.55    1744.3687   -43347.919    0.2591085    0.9988512 
     800    174.72849    167.72006     124754.5   -40846.224    2173.9546   -43020.179   0.62567513    1.0011141 
     900    191.83847    600.17524     124419.1    -40424.49    2386.8353   -42811.325    1.0448195    1.0038128 
    1000    206.26461    454.68743    124332.45   -40150.301    2566.3239   -42716.625    1.4697487    1.0045124 
    1100    209.88725    401.01667    124122.43   -39964.962    2611.3964   -42576.359    1.9210897    1.0062121 
    1200    207.74919    582.94184    124003.42   -39994.466    2584.7949   -42579.261     2.428006    1.0071778 
    1300    210.72545    406.56068     124210.2   -39942.992    2621.8252   -42564.817    2.7968412    1.0055011 
    1400    212.84326    590.08767    124330.22   -39953.322    2648.1748   -42601.497     3.189198    1.0045304 
    1500    215.82196    409.40132    124418.25   -39919.879    2685.2354   -42605.114    3.5500234    1.0038197 
    1600    224.35804    465.84636    124290.21   -39831.576    2791.4406   -42623.017    3.9307558    1.0048538 
    1700    219.96292    458.12692    124532.34   -39861.294    2736.7569   -42598.051    4.3413458    1.0029001 
    1800    215.46674    433.46206    124484.67     -39949.2    2680.8159   -42630.016    4.7987753    1.0032841 
    1900    223.27218    725.35815    124481.53   -39938.205    2777.9304   -42716.135    5.1423909    1.0033094 
    2000     221.9322    519.15018    124616.55   -39896.666    2761.2585   -42657.925    5.4743699    1.0022223 
    2100    221.78842    403.03546    124496.09   -39866.474    2759.4696   -42625.943    5.8356352     1.003192 
    2200    218.75409    608.40909    124557.85   -39895.703    2721.7168   -42617.419    6.2104701    1.0026947 
    2300    224.88255    494.43313    124420.57   -39879.845    2797.9664   -42677.811    6.4956988     1.003801 
    2400    221.28174     475.2869    124399.66   -39899.235    2753.1655   -42652.401    6.8123114    1.0039697 
    2500    224.74388    473.05413    124639.03   -39850.199    2796.2412    -42646.44    7.1866173    1.0020416 
    2600    225.02409    541.51938    124736.51    -39803.36    2799.7275   -42603.087      7.54303    1.0012585 
    2700    222.54582    580.32556    124774.03   -39830.987    2768.8932    -42599.88    7.8766116    1.0009575 
    2800    226.11882     336.6466    124913.29   -39842.973     2813.348   -42656.321    8.1947133   0.99984152 
    2900    222.72675    572.43626    124792.95   -39920.113    2771.1441   -42691.257    8.5598462    1.0008056 
    3000    223.71464    607.25489    124692.68    -39966.12    2783.4355   -42749.556    9.0670962    1.0016105 
    3100    220.93548    519.77923    124704.93   -39948.902    2748.8575   -42697.759    9.4701647     1.001512 
    3200    216.96653    557.50593    124553.88   -39986.108    2699.4762   -42685.584    9.7368702    1.0027266 
    3300    221.73831    318.36385     124432.8   -39967.579    2758.8461   -42726.426    9.9062886    1.0037023 
    3400    221.07366    525.01296    124539.17   -39995.934    2750.5766    -42746.51    10.292846    1.0028451 
    3500    218.28144    522.39892    124520.34   -40015.228    2715.8361   -42731.064    10.622198    1.0029967 
    3600    220.76772    415.45235       124648   -40060.213    2746.7701   -42806.984    11.056079    1.0019695 
    3700    216.81062    625.36356    124909.45   -40126.514    2697.5363   -42824.051    11.548454    0.9998722 
    3800    217.07877    378.15594    124949.17   -40081.513    2700.8726   -42782.386    11.891086   0.99955437 
    3900    216.28279    659.46289    124915.06   -40112.509    2690.9691   -42803.478    12.177042    0.9998273 
    4000    219.42599     553.8991    124882.62    -40114.03    2730.0765   -42844.107    12.379394    1.0000871 
    4100     219.2227    526.79918    124881.27   -40103.756    2727.5472   -42831.303    12.526225    1.0000979 
    4200    220.20351    581.91473    124985.61   -40107.501    2739.7503   -42847.251    12.810419     0.999263 
    4300    219.71214    467.07939    124788.54   -40095.132    2733.6367   -42828.769    13.220391     1.000841 
    4400      222.521    445.72362     124844.3   -40089.879    2768.5843   -42858.464    13.475661     1.000394 
    4500    217.91417    615.35787    125115.89    -40072.12    2711.2666   -42783.386    13.880339   0.99822244 
    4600    216.12582    311.83225    124918.97   -40109.786    2689.0161   -42798.802    14.160358   0.99979604 
    4700    217.12641    515.56752    124911.13   -40009.841    2701.4654   -42711.306     14.46229   0.99985881 
    4800    216.24016    418.77281    124888.85   -40070.704    2690.4387   -42761.143    14.790386    1.0000371 
    4900    224.88759    707.15146    125001.96   -39959.494    2798.0291   -42757.524    15.077373   0.99913228 
    5000    225.69123    593.82604     125267.8   -39921.527    2808.0279   -42729.555    15.330893   0.99701195 
    5100    218.62868    468.14904    125403.94   -40003.128    2720.1564   -42723.285    15.660025   0.99592954 
    5200    221.20672    464.64985    125218.55   -40064.183    2752.2321   -42816.416    15.993975   0.99740404 
    5300    225.64164    499.36849    125064.44   -40040.853     2807.411   -42848.264    16.330429   0.99863314 
    5400    217.28348     460.7909    125030.71     -40081.7    2703.4196    -42785.12    16.704934   0.99890255 
    5500    219.79051    379.21638    124784.54   -40077.153    2734.6119   -42811.765    17.068876    1.0008731 
    5600    219.68457    473.21331    124810.36    -40082.47    2733.2937   -42815.764    17.295669    1.0006661 
    5700    222.13867    717.53591    124976.11   -40070.996    2763.8274   -42834.823    17.404195   0.99933894 
    5800    219.96904    488.43646    125269.45   -40116.222    2736.8331   -42853.056    17.678084   0.99699883 
    5900    217.57264    391.37283    125126.91   -40151.429    2707.0173   -42858.446    18.057358   0.99813455 
    6000     216.0058    680.93873    125169.54   -40134.336    2687.5229   -42821.859    18.422621   0.99779458 
    6100    219.00229     435.1664    125051.17   -40058.131    2724.8049   -42782.936    18.681869   0.99873911 
    6200     219.0342    616.09821    124964.93     -40115.9    2725.2019   -42841.102     19.11402   0.99942829 
    6300    217.93602    575.14205    125016.51   -40066.062    2711.5384     -42777.6    19.473133   0.99901596 
    6400    224.38408    428.69463    124835.61    -40042.68    2791.7646   -42834.445    19.631431    1.0004637 
    6500      219.913    621.58541    125033.48   -39989.329    2736.1358   -42725.465    19.757689   0.99888042 
    6600    215.18787    543.96189    125117.91   -40072.322    2677.3462   -42749.668    20.084752   0.99820637 
    6700    215.79688    451.57042    125282.56   -40130.233    2684.9235   -42815.157     20.41492   0.99689444 
    6800    218.10421    485.23766    125429.75   -40052.521     2713.631   -42766.152    20.776557   0.99572467 
    6900    218.76595    519.72729    125550.23   -39984.958    2721.8643   -42706.822    21.322848   0.99476911 
    7000    224.30777    520.88088    125370.28   -39989.182    2790.8151   -42779.997    21.961395   0.99619697 
    7100     219.5592    608.34415    125613.48   -40021.565    2731.7339   -42753.299    22.229154    0.9942682 
    7200    219.26973    414.27945    125630.76     -40089.6    2728.1323   -42817.732    22.334871    0.9941315 
    7300    220.34398    397.64717    125374.09   -40162.506    2741.4981   -42904.004    22.618359    0.9961667 
    7400    214.37072     388.8238    125480.22   -40197.383    2667.1793   -42864.562    23.055682   0.99532411 
    7500    217.15277     582.4204    125564.96   -40176.729    2701.7933   -42878.522    23.351624    0.9946524 
    7600    215.18766    434.95841    125603.91   -40258.038    2677.3436   -42935.381    23.579194   0.99434398 
    7700     217.2335     352.1646    125531.33   -40157.251    2702.7978   -42860.049    24.109577    0.9949189 
    7800    220.00636    559.66111    125602.41   -40133.061    2737.2974   -42870.359    24.370443   0.99435583 
    7900    214.72027    394.93635    125299.09   -40187.526    2671.5283   -42859.054    24.580139   0.99676296 
    8000    220.63421    531.18243    125375.43   -40169.524     2745.109   -42914.633    24.775188   0.99615607 
    8100    216.52481    593.07248    125400.84   -40241.739    2693.9803   -42935.719     24.86089   0.99595418 
    8200    218.76385    535.90166    125440.76   -40246.776    2721.8382   -42968.615     25.11241    0.9956372 
    8300    214.70337    260.32703    125442.37   -40238.497    2671.3181   -42909.815    25.464373   0.99562444 
    8400    218.89865    490.10766     125404.8   -40201.406    2723.5154   -42924.921    25.833845   0.99592277 
    8500    221.94878    636.55017    125417.94   -40141.397    2761.4648   -42902.862    26.420163   0.99581841 
    8600    218.23035     388.5241    125328.62   -40151.396    2715.2005   -42866.596    26.777713   0.99652807 
    8700    221.78489    641.09938    125205.41   -40126.313    2759.4257   -42885.739    27.223089   0.99750873 
    8800    215.36092    516.09663    124869.28    -40163.47    2679.4992    -42842.97    27.652626    1.0001939 
    8900    216.06721    631.84414    125001.34   -40236.638    2688.2869   -42924.925    27.988576   0.99913725 
    9000    215.08446    570.28093    124977.19    -40175.44    2676.0596     -42851.5    28.090921   0.99933028 
    9100    216.62562    494.80079    125051.68   -40233.729    2695.2345   -42928.964    28.309998   0.99873502 
    9200     218.8608     435.4869    125209.95   -40136.758    2723.0445   -42859.803    28.500166   0.99747261 
    9300    216.47694    574.83895    125233.33   -40184.371    2693.3847   -42877.756    28.826576   0.99728638 
    9400    221.80577    623.33212    125357.98   -40137.814    2759.6854     -42897.5    29.166019    0.9962947 
    9500    221.79881    716.49126    125305.93   -40175.692    2759.5988   -42935.291    29.544786   0.99670851 
    9600    221.04709    332.26107    125461.68    -40133.94    2750.2461   -42884.186    29.856557   0.99547122 
    9700    224.96663    544.01206    125436.98   -40069.798    2799.0126    -42868.81    30.140999   0.99566727 
    9800    218.42121    504.11609    125412.53   -40148.887    2717.5752   -42866.462    30.499879   0.99586131 
    9900    215.44263    519.79061    125480.77   -40203.444    2680.5159    -42883.96     30.79481    0.9953198 
   10000    216.21344    371.18038    125439.85   -40199.605    2690.1062   -42889.712    30.992993   0.99564446 
   10100    217.30006    608.38678    125499.46   -40155.637    2703.6258   -42859.263    31.227979   0.99517156 
   10200    213.71215    363.15469     125474.5    -40218.84    2658.9854   -42877.826    31.534864   0.99536952 
   10300    219.62042     525.7381    125543.74   -40201.969    2732.4955   -42934.465    31.627095   0.99482052 
   10400     223.9866    673.49829    125483.02   -40152.578    2786.8191   -42939.397     31.96751   0.99530191 
   10500      221.293    529.00087    125508.38   -40144.378    2753.3056   -42897.684    32.262144   0.99510079 
   10600    222.53975     384.6318    125512.13   -40067.791    2768.8176   -42836.609    32.647915   0.99507106 
   10700    219.67275    611.42535    125304.98   -40054.103    2733.1467    -42787.25    33.001866   0.99671613 
   10800    220.40403     542.4619    125406.28   -40039.495    2742.2452    -42781.74    33.310412   0.99591102 
   10900    223.25869    408.88714    125266.74   -40077.409    2777.7626   -42855.172     33.77869   0.99702036 
   11000    222.76826    519.82457    125360.92   -40062.653    2771.6607   -42834.313    34.205306    0.9962713 
   11100    221.47069    426.69078    125502.25   -40092.694    2755.5164    -42848.21    34.457431    0.9951494 
   11200    223.28874    785.86365    125594.12    -40086.18    2778.1365   -42864.317     34.76336   0.99442146 
   11300    221.54645    469.40892    125784.16   -40081.443    2756.4591   -42837.902    34.929439   0.99291905 
   11400    222.17198    563.73108     125460.2   -40086.315    2764.2418   -42850.557    35.183288     0.995483 
   11500    222.18844    503.47844     125683.2   -40108.541    2764.4466   -42872.988    35.570447   0.99371667 
   11600    217.19757      406.599    125688.35   -40113.865    2702.3507   -42816.215    35.594237   0.99367599 
   11700    221.41184    761.04181    125745.54   -40026.086    2754.7843    -42780.87    35.958305   0.99322404 
   11800     218.8524     439.0171    125458.59   -40103.925    2722.9399   -42826.865    36.330987   0.99549574 
   11900    220.96503    492.77188     125419.7   -40138.526     2749.225   -42887.751    36.642469   0.99580439 
   12000     220.0974    543.62315    125396.62   -40151.179    2738.4301   -42889.609    37.050859   0.99598771 
   12100    226.95138    695.22675    125480.36   -40109.556    2823.7066   -42933.262    37.514207   0.99532304 
   12200    219.31679    607.47218    125574.96   -40100.013    2728.7178   -42828.731    37.828997    0.9945732 
   12300    220.57059    356.52342    125376.95   -40112.864    2744.3175   -42857.182    38.038946   0.99614399 
   12400     215.8531    460.17767    125361.49   -40089.547    2685.6229    -42775.17    38.439459   0.99626681 
   12500    222.89035    495.84421    125527.27   -40172.889    2773.1797   -42946.069    38.650772    0.9949511 
   12600    218.08996    480.92553    125439.94   -40079.379    2713.4537   -42792.833    39.040836   0.99564377 
   12700    221.28366    402.78322    125465.26    -40043.32    2753.1894    -42796.51    39.525402    0.9954428 
   12800    224.01275    456.78355     125459.3   -40011.845    2787.1445    -42798.99    39.869321   0.99549009 
   12900    221.87321    540.27754    125501.34   -40063.573    2760.5246   -42824.098     40.28907   0.99515664 
   13000    221.22497    465.68048    125773.11   -40007.294    2752.4592   -42759.754    40.771395   0.99300632 
   13100     227.0308    524.93139    125708.42   -40023.657    2824.6947   -42848.352    41.186983   0.99351729 
   13200    223.56253    492.96366    125801.19   -39949.266    2781.5429   -42730.809    41.559406   0.99278464 
   13300    222.09826    284.98517     125513.5     -39991.6    2763.3246   -42754.924    41.741761   0.99506019 
   13400    221.76176    338.07382    125407.29       -40072     2759.138   -42831.138    42.003114   0.99590298 
   13500    219.30895    435.36289    125191.93   -40104.631    2728.6203   -42833.252    42.058747   0.99761616 
   13600    216.66937    236.22994    125208.41   -40115.839    2695.7789   -42811.618    42.407386   0.99748485 
   13700    217.79969    403.84703    125111.75    -40101.86    2709.8422   -42811.702    42.858016   0.99825549 
   13800    223.76462    470.65342    124946.16   -40008.302    2784.0573   -42792.359    43.517125   0.99957848 
   13900    222.81138    658.15993    125095.39   -40041.123    2772.1971   -42813.321    43.812632   0.99838601 
   14000    221.08154    390.53849    125210.33   -40033.804    2750.6747   -42784.478     44.07762   0.99746954 
   14100    220.11662     284.9406    125144.43   -40051.805    2738.6692   -42790.474    44.297519   0.99799484 
   14200    221.17738    447.13494    125304.28   -40101.805    2751.8671   -42853.672    44.474003   0.99672167 
   14300    218.79476    442.48597    125361.92   -40154.709    2722.2228   -42876.932    44.471732   0.99626337 
   14400    218.87707    314.53273    125252.71   -40142.876    2723.2468   -42866.122    44.639612   0.99713202 
   14500     218.8198    530.94506    125278.47   -40096.089    2722.5343   -42818.624    44.940701   0.99692698 
   14600    224.94001    250.36375    125292.17   -40122.776    2798.6814   -42921.457    45.140789   0.99681805 
   14700    217.87046     685.9573    125268.92   -40154.272    2710.7227   -42864.994    45.482249   0.99700301 
   14800    215.47353    272.97905    125184.16   -40190.579    2680.9004   -42871.479    45.791859   0.99767807 
   14900    211.76213    433.19255    125071.49   -40254.576    2634.7235     -42889.3    45.946298   0.99857686 
   15000    213.46971     616.2275    125028.06   -40259.528    2655.9691   -42915.497    46.130168   0.99892372 
   15100    212.76201    747.47426    125300.55   -40280.981    2647.1639   -42928.145    46.740739   0.99675136 
   15200    217.71669    535.79071    125425.77    -40204.06    2708.8095   -42912.869    46.955306    0.9957562 
   15300    218.02325    795.94885    125707.56     -40207.8    2712.6237   -42920.424    47.173633    0.9935241 
   15400    213.69019    642.80433    125761.94   -40198.385    2658.7122   -42857.097    47.716462    0.9930945 
   15500    216.79009    347.43784    125907.38   -40177.026    2697.2809   -42874.307    47.967195   0.99194738 
   15600    222.34587    576.20472    125951.88   -40108.953    2766.4053   -42875.358    48.242037   0.99159691 
   15700    216.44986    363.44843    125823.91   -40180.318    2693.0478   -42873.365    48.810369   0.99260536 
   15800    220.33937    564.21905    125858.34   -40178.192    2741.4406   -42919.633    49.260387   0.99233387 
   15900    222.74465    438.51519    125906.15   -40225.253    2771.3669    -42996.62      49.7208   0.99195707 
   16000    219.33118     440.8523    126030.19    -40155.92    2728.8969   -42884.817    50.030807   0.99098077 
   16100    220.15204    509.20491    126083.99   -40102.273    2739.1099   -42841.383    50.307775    0.9905579 
   16200    221.47892    623.77624     126145.6   -40169.264    2755.6188   -42924.883    50.290843   0.99007407 
   16300     218.2563    357.60638    126238.26   -40204.263    2715.5233   -42919.786    50.357231   0.98934738 
   16400    223.67559    575.15231    126279.79   -40127.662    2782.9496   -42910.612    50.096125   0.98902203 
   16500    222.58845    463.93284     125986.1   -40126.449    2769.4235   -42895.872    50.226446   0.99132757 
   16600    221.88231    369.12898     125984.5   -40108.223    2760.6378    -42868.86    50.150331   0.99134012 
   16700    223.64882    415.82956    125993.96   -40135.376    2782.6165   -42917.993    50.441273   0.99126572 
   16800    222.12318     365.9895    125826.42   -40128.798    2763.6346   -42892.433    50.815483   0.99258557 
   16900     221.9667    445.02609    125774.43   -40100.591    2761.6877   -42862.278    51.170139    0.9929959 
   17000    222.67509    615.08543    126027.01    -40105.29    2770.5015   -42875.791    51.604495   0.99100576 
   17100    220.03289    672.43711    125902.09   -40028.335    2737.6275   -42765.963    51.812008   0.99198903 
   17200    221.99332    491.32539    125909.97   -40046.256     2762.019   -42808.275    52.019005   0.99192691 
   17300    221.85057    494.83363    126029.43   -40110.675    2760.2428   -42870.918    52.487371   0.99098673 
   17400    219.91507    516.59674    126289.96   -40128.407    2736.1616   -42864.568    52.962094   0.98894235 
   17500    221.47491    489.66265    126039.48   -40119.529     2755.569   -42875.098    52.969306   0.99090769 
   17600    221.76336    349.99905    126217.97   -40093.623    2759.1578    -42852.78    53.313167   0.98950644 
   17700    221.86112    548.89818    126305.84   -40125.964    2760.3741   -42886.339    53.492681   0.98881805 
   17800    217.68427    425.73938    126312.12   -40142.849    2708.4062   -42851.255    53.706655   0.98876888 
   17900    219.25069    440.04926    126399.17   -40120.396    2727.8954   -42848.291    54.239088   0.98808792 
   18000    225.14273    492.19204    126365.21   -40079.742    2801.2036   -42880.946    54.414428   0.98835349 
   18100    218.96788    442.28802    126055.26   -40196.605    2724.3767   -42920.982    54.824972   0.99078368 
   18200    221.38831    427.85982     125835.9   -40201.021    2754.4915   -42955.512    54.981111   0.99251084 
   18300    221.63233    566.91432    125715.86   -40123.174    2757.5275   -42880.701    54.928537   0.99345849 
   18400     219.3188    534.45002    125569.37   -40183.078    2728.7429   -42911.821    54.954282   0.99461749 
   18500    223.27453    541.35806    125657.68   -40155.541    2777.9597   -42933.501    55.195643   0.99391847 
   18600    220.42697     408.0838    125932.57   -40217.289    2742.5306    -42959.82    55.504013   0.99174893 
   18700    219.91214    445.04044    125916.09   -40169.014     2736.125   -42905.139    55.795834   0.99187869 
   18800    220.53238    336.13283    125723.36    -40149.17     2743.842   -42893.012    56.355978   0.99339928 
   18900    224.22848    727.05722    125695.49   -40185.008    2789.8286   -42974.837    56.681688   0.99361952 
   19000    218.78218    773.87049    125854.26   -40150.638    2722.0663   -42872.704    56.930213     0.992366 
   19100    219.59015    603.38046    125767.35   -40187.493    2732.1189   -42919.611    57.553112   0.99305176 
   19200    222.81877    525.66291    125732.89   -40164.593    2772.2891   -42936.882    58.028122   0.99332398 
   19300    223.52431    413.49133    125779.59   -40110.992    2781.0674   -42892.059    57.985331   0.99295517 
   19400    219.47074    669.22892    125943.67   -40131.861    2730.6333   -42862.494    57.903708   0.99166151 
   19500    224.24645    456.71297    125974.68   -40125.127    2790.0522   -42915.179    58.277289   0.99141745 
   19600    223.46706    418.55749     125815.4   -40156.508    2780.3551   -42936.863    58.596668   0.99267254 
   19700    221.16269    466.16208    125591.78   -40147.702    2751.6844   -42899.386    58.719381   0.99444002 
   19800    223.32495    680.60821     125574.6   -40185.399    2778.5869   -42963.986    59.075708   0.99457605 
   19900    222.49596    537.88926    125938.09   -40191.318    2768.2728   -42959.591    59.548135   0.99170544 
   20000    219.96381    361.34316    126071.07   -40230.943     2736.768   -42967.711    59.917856   0.99065937 
   20100    217.38865    514.90347    126025.85   -40193.716    2704.7281   -42898.445    59.686855   0.99101488 
   20200      218.873    629.55336    125893.85   -40244.013    2723.1963   -42967.209    60.020129   0.99205396 
   20300    220.59518    407.68469    126035.66   -40259.608    2744.6234   -43004.231    60.327217   0.99093774 
   20400    218.53526    531.54751    125822.62   -40270.449    2718.9941   -42989.443    60.582277    0.9926156 
   20500    219.94781    409.77548    125837.79   -40263.889    2736.5689   -43000.458    60.662207   0.99249589 
   20600    215.15862     594.1986     125730.5   -40295.069    2676.9823   -42972.051    61.010753   0.99334283 
   20700    223.99587    558.32631     125849.2   -40228.729    2786.9345   -43015.664    61.457982   0.99240595 
   20800    220.14504    540.28663    126021.16   -40240.221    2739.0229   -42979.244    61.573742   0.99105179 
   20900    219.78794     638.8174    126078.64   -40278.865    2734.5798   -43013.445    61.751924   0.99059991 
   21000    217.51363    449.11203    126001.52   -40363.869     2706.283   -43070.152    62.025473    0.9912062 
   21100    219.16132     451.5704    126030.31   -40380.059    2726.7834   -43106.843    62.404764   0.99097977 
   21200    211.83109    544.54597    126144.43   -40352.616    2635.5815   -42988.198    62.429172   0.99008328 
   21300    214.94661     653.3602    126036.11   -40364.623    2674.3445   -43038.967     62.42174   0.99093418 
   21400    216.63755    573.64687    126225.11   -40328.364     2695.383   -43023.747    62.676409   0.98945045 
   21500    217.95144    475.68998    125975.27   -40303.826    2711.7303   -43015.556    62.908489   0.99141274 
   21600    219.51038    384.10599    126025.29   -40260.649    2731.1264   -42991.775    63.139375   0.99101928 
   21700     223.0854    525.05649    125939.73   -40242.286    2775.6065   -43017.893      63.2121   0.99169257 
   21800    219.22929    547.69591     125990.2   -40216.548    2727.6292   -42944.177    63.389739   0.99129532 
   21900    218.69071     532.0014     126116.4   -40231.775    2720.9283   -42952.703    63.561841    0.9903033 
   22000     218.4375    497.36535    126028.86   -40258.506    2717.7778   -42976.284    63.861882   0.99099124 
   22100      221.108    510.54214    126259.31   -40182.194    2751.0039   -42933.198    64.415788    0.9891824 
   22200    217.02553    499.87397    126253.43   -40212.157    2700.2102   -42912.368    64.882236   0.98922853 
   22300    222.37485    348.76037     126184.3    -40199.43    2766.7659   -42966.196    65.148027   0.98977042 
   22400    222.73006    534.09744    125988.23   -40157.148    2771.1854   -42928.333    65.302181   0.99131079 
   22500    222.25872    463.01388    126004.31   -40162.178     2765.321   -42927.499    65.861756   0.99118425 
   22600    221.78495    583.36102    126073.77    -40140.39    2759.4264   -42899.817    66.232246    0.9906382 
   22700    216.93104    425.49428     126143.4   -40140.611    2699.0345   -42839.645    66.800962   0.99009133 
   22800     219.7955    634.95208    126083.14   -40108.961    2734.6739   -42843.635     67.00949   0.99056459 
   22900    222.60688    413.80631    126096.29   -40148.916    2769.6528   -42918.569    67.342284   0.99046123 
   23000    220.71128     266.0046    126042.01   -40121.426     2746.068   -42867.494    67.319535   0.99088778 
   23100    220.58555    471.53155     126012.9   -40227.553    2744.5036   -42972.056    67.526517   0.99111671 
   23200    216.58142    617.97697    125988.26   -40164.999    2694.6846   -42859.683    67.936709   0.99131053 
   23300    218.33194     494.3508    125875.55   -40208.567    2716.4644   -42925.031    68.287255   0.99219816 
   23400    224.92405    603.59878    126040.83   -40134.069    2798.4827   -42932.552    68.392387   0.99089708 
   23500    218.81083    523.65252    126010.33    -40180.54    2722.4227   -42902.962    68.781207   0.99113695 
   23600     223.2736    481.33214    126014.93   -40181.756    2777.9481   -42959.704    69.221493   0.99110073 
   23700    221.11662    403.48957    125842.64   -40208.343    2751.1111   -42959.454    69.465825   0.99245762 
   23800    218.33385    242.79778    125866.28   -40260.194    2716.4882   -42976.683    69.917613   0.99227126 
   23900    215.67718    550.20934     125791.6   -40274.306    2683.4342    -42957.74    70.090426   0.99286035 
   24000    221.42442    550.73349     125993.2   -40195.259    2754.9408     -42950.2     70.55018   0.99127168 
   24100     221.3642    389.91629    125997.56   -40182.978    2754.1915    -42937.17    70.662991   0.99123734 
   24200     217.4801    374.62637     126026.8   -40234.604    2705.8659   -42940.469    70.922725   0.99100739 
   24300    219.90204    348.59516    125905.37    -40209.41    2735.9994   -42945.409    71.065948   0.99196319 
   24400    212.68452    352.58384    125755.28   -40247.232    2646.1997   -42893.432    71.318957   0.99314713 
   24500    218.87526     500.0941    125701.04   -40206.129    2723.2244   -42929.354    71.600724   0.99357563 
   24600    216.20337    483.60314     125494.7   -40192.174     2689.981   -42882.155    71.747408    0.9952093 
   24700    216.45804    430.43655    125545.48   -40209.382    2693.1496   -42902.531    71.971116   0.99480672 
   24800    215.05089    591.26436    125526.13   -40204.053    2675.6419   -42879.695    72.371483   0.99496013 
   24900    216.82899    441.73013    125681.33    -40142.21    2697.7649   -42839.975    72.389308   0.99373146 
   25000    223.42906    385.53437    125566.39   -40131.188    2779.8823    -42911.07    72.408264   0.99464105 
   25100     219.5853    388.90351    125795.61   -40124.954    2732.0586   -42857.012    72.778704   0.99282869 
   25200    221.74549    697.47444    125738.29   -40165.892    2758.9354   -42924.827    73.274363   0.99328127 
   25300    222.08886    645.18139    125740.55   -40189.315    2763.2077   -42952.523    73.799433   0.99326347 
   25400    218.58633    615.26991    125907.45   -40189.059    2719.6295   -42908.689    74.376263   0.99194677 
   25500    221.39894    475.96304    125871.88   -40152.097    2754.6238   -42906.721    74.754985    0.9922271 
   25600    218.59699    593.78728    125959.23    -40216.48    2719.7621   -42936.242     74.92375   0.99153902 
   25700    215.73906    367.75238    125984.93   -40231.198    2684.2041   -42915.402    75.098116   0.99133676 
   25800      219.915     467.1617    125809.62   -40204.053    2736.1607   -42940.214    74.962101   0.99271815 
   25900    218.47888    589.94777    125921.62   -40154.285    2718.2927   -42872.577    75.032332   0.99183517 
   26000    219.41684    507.71943    125626.46   -40069.156    2729.9626   -42799.119    75.217535   0.99416551 
   26100    222.53662    403.56773    125583.05   -40149.135    2768.7786   -42917.914    75.283953   0.99450917 
   26200    218.23042    478.45631    125610.49   -40138.888    2715.2013   -42854.089    75.635433   0.99429192 
   26300     221.1599    549.65764    125654.59   -40113.641    2751.6496   -42865.291    75.788824   0.99394294 
   26400    221.51889    569.34862     125867.8   -40105.643    2756.1161   -42861.759     75.98207   0.99225925 
   26500    219.29884    435.92204    125974.72    -40160.65    2728.4945   -42889.145    76.301073   0.99141709 
   26600    219.65252    661.88044    125917.32   -40211.404     2732.895   -42944.299     76.80065   0.99186903 
   26700     217.2891    510.10381    125902.29   -40243.047    2703.4895   -42946.536    77.353561   0.99198743 
   26800    219.38546    368.95525    126158.69   -40183.127    2729.5722   -42912.699    77.697777   0.98997136 
   26900    218.92973    496.38687    126033.78   -40185.775    2723.9021   -42909.677    77.917389   0.99095252 
   27000    222.30426     514.2338    126169.16   -40240.864    2765.8876   -43006.752    77.782364   0.98988925 
   27100    221.23613    447.32458    125999.81   -40256.714     2752.598   -43009.312    78.325554   0.99121964 
   27200    217.86962    488.62986     125933.9   -40269.201    2710.7123   -42979.913    78.617698   0.99173848 
   27300     216.6796    504.09581    126093.79   -40305.344    2695.9061    -43001.25    78.779518   0.99048087 
   27400    218.19957    411.86945    126144.25   -40258.992    2714.8174   -42973.809    78.902441    0.9900847 
   27500    225.01773    467.12111    126063.99   -40208.345    2799.6484   -43007.993    79.204859   0.99071501 
   27600    222.39682    513.88067    126043.98   -40235.064    2767.0393   -43002.104    79.504662   0.99087234 
   27700    220.29781    610.18558    126109.42   -40229.323    2740.9235   -42970.247     79.64548   0.99035811 
   27800    221.76557    404.59241    125949.01   -40157.413    2759.1852   -42916.598    79.730358   0.99161946 
   27900    220.11449    348.51726    125982.23   -40166.507    2738.6427   -42905.149    79.862017   0.99135798 
   28000    219.98756    683.93734    125979.74   -40196.884    2737.0635   -42933.948    80.003088   0.99137755 
   28100    218.74638    474.73447     125870.3   -40165.984    2721.6208   -42887.604    80.161623    0.9922396 
   28200    222.85026     394.9305     125712.6   -40210.515    2772.6809   -42983.196    80.605704   0.99348428 
   28300    216.38184    441.69316    125625.81   -40203.691    2692.2014   -42895.892    80.749542   0.99417061 
   28400    218.05521    323.12411    125683.82   -40240.063    2713.0213   -42953.084    81.042316    0.9937118 
   28500    216.11651    557.33856    125592.09   -40251.937    2688.9002   -42940.838    81.276268   0.99443758 
   28600    218.77941    628.34813    125756.24   -40211.582    2722.0318   -42933.614    81.816388   0.99313955 
   28700    218.51401    325.71974    125770.88   -40218.285    2718.7297   -42937.015    82.326877   0.99302388 
   28800    222.35848    452.55078    125889.75   -40181.215    2766.5623   -42947.777    82.563241   0.99208624 
   28900    221.57735    532.00752    125968.77   -40137.007    2756.8435    -42893.85    82.664632   0.99146393 
   29000    218.61159    655.99667    125961.33   -40200.567    2719.9438   -42920.511    83.132121    0.9915225 
   29100    219.92223     401.0711    125916.11   -40142.512    2736.2507   -42878.762    83.294839   0.99187856 
   29200    220.20272    549.73411    126006.37   -40104.067    2739.7405   -42843.807    83.692827   0.99116804 
   29300    220.74623     558.2388    126084.18   -40170.573    2746.5027   -42917.075    83.862319    0.9905564 
   29400     217.9014    534.04196    126105.07   -40218.225    2711.1077   -42929.333    83.934537   0.99039231 
   29500    217.75428    535.31926    126200.75   -40250.566    2709.2772   -42959.843    84.323636   0.98964146 
   29600    221.22566    520.30322    126136.44   -40178.359    2752.4677   -42930.826    84.740441   0.99014601 
   29700    219.55216     351.6135    125967.38   -40231.938    2731.6462   -42963.584    85.014572   0.99147487 
   29800    222.68655    544.00931    126173.71   -40224.136    2770.6441    -42994.78    85.365801   0.98985356 
   29900    221.29064    549.32542    126317.76   -40262.292    2753.2763   -43015.568    85.917786   0.98872471 
   30000    220.48391    519.01191    126462.05   -40242.994    2743.2391   -42986.233    86.349056   0.98759659 
   30100    216.97386    528.08162    126579.34   -40244.368    2699.5674   -42943.935    86.714557   0.98668145 
   30200    217.82617     595.7915    126533.05   -40256.036    2710.1717   -42966.208    86.815048   0.98704246 
   30300     219.3313    750.55457    126742.21   -40241.783    2728.8984   -42970.682    87.181485   0.98541357 
   30400    219.00323    188.03482    126786.67   -40225.279    2724.8166   -42950.095    87.266652   0.98506803 
   30500    222.77779    332.19418     126469.3   -40247.662    2771.7792   -43019.441    87.151428   0.98753996 
   30600    218.65019     305.7534    126447.24   -40240.633     2720.424   -42961.057    87.315826   0.98771224 
   30700    221.41988    533.05536    126432.22   -40259.713    2754.8842   -43014.597    87.312674   0.98782959 
   30800    221.84927    562.50757    126437.31   -40204.934    2760.2267   -42965.161    87.976098   0.98778984 
   30900    219.90101    594.02207    126650.24    -40320.61    2735.9866   -43056.597      88.4534   0.98612917 
   31000    211.87069    381.04163    126756.29   -40353.745    2636.0741    -42989.82    88.905288   0.98530407 
   31100    219.46989    391.19931    126841.76   -40355.763    2730.6227   -43086.386    89.252939   0.98464017 
   31200    215.59697    605.45924    126771.46   -40366.484    2682.4362    -43048.92     89.59621   0.98518622 
   31300    218.87002    306.96655    126829.54    -40327.63    2723.1591   -43050.789    89.629661   0.98473501 
   31400    215.77042    302.83552    126690.77    -40275.85    2684.5942   -42960.444    89.619734   0.98581367 
   31500    218.59022    546.97934    126782.93   -40313.445    2719.6779   -43033.123    90.013874   0.98509704 
   31600    219.48392    579.06522    126651.24   -40231.344    2730.7972   -42962.141    89.938652   0.98612138 
   31700    219.54975    443.10746    126542.52   -40256.143    2731.6163   -42987.759    90.176474   0.98696857 
   31800    225.35869    541.18921    126485.84   -40209.075    2803.8906   -43012.965    90.514979   0.98741083 
   31900    221.86148    532.46727    126390.64   -40213.083    2760.3786   -42973.462    90.763705   0.98815463 
   32000    220.36727    410.05797    126253.74   -40219.071    2741.7878   -42960.858    91.223708   0.98922606 
   32100    222.18032     512.1344    126264.96   -40216.534    2764.3456   -42980.879    91.309175   0.98913814 
   32200    223.46095    388.07722    126329.08   -40206.557    2780.2791   -42986.836    91.417357    0.9886361 
   32300     220.9391    459.67683    126252.34    -40175.28    2748.9025   -42924.182    91.894537   0.98923707 
   32400    220.51646    510.87576    126411.57   -40234.638     2743.644   -42978.282    92.065178   0.98799095 
   32500    222.06121    560.14268    126482.67   -40250.399    2762.8636   -43013.263    91.936335   0.98743558 
   32600    219.92772     484.8543    126583.07   -40189.746     2736.319   -42926.065    92.303284   0.98665242 
   32700    220.62957    437.24996    126432.68   -40247.898    2745.0512    -42992.95    92.120186   0.98782602 
   32800    216.39281     602.7521     126576.6   -40284.541    2692.3379   -42976.879    92.481389   0.98670287 
   32900    215.02797    530.35691    126702.06   -40264.016    2675.3567   -42939.373    92.734262   0.98572581 
   33000    219.99794    455.97355    126502.32   -40327.631    2737.1926   -43064.823    93.098708   0.98728223 
   33100    222.51729    392.00588    126564.98   -40265.043    2768.5381   -43033.581    93.144338   0.98679346 
   33200    218.00466    515.24799    126391.89    -40306.45    2712.3924   -43018.842    93.695114   0.98814486 
   33300    219.98311    503.61092    126564.17   -40237.465    2737.0082   -42974.473    94.046348   0.98679971 
   33400    218.77237    412.69245    126542.23    -40317.97    2721.9442   -43039.914    94.027644   0.98697087 
   33500    217.19305    739.04529    126607.81   -40291.531    2702.2945   -42993.826    94.108434    0.9864596 
   33600    215.32811    582.00246       126695   -40257.961    2679.0911   -42937.052    94.484087   0.98578076 
   33700     217.2497    416.96886     126693.8   -40246.834    2702.9993   -42949.833     94.43371    0.9857901 
   33800    219.04463    515.48628    126594.05   -40242.624    2725.3316   -42967.956     94.63217   0.98656683 
   33900    220.32275    447.20125    126447.75   -40251.953    2741.2338   -42993.187    94.969372   0.98770828 
   34000    219.26724    385.82875    126361.28    -40207.62    2728.1014   -42935.721    95.258338    0.9883842 
   34100    220.84965    497.17437    126356.89   -40224.143    2747.7896   -42971.932    95.455498   0.98841854 
   34200    216.09803    480.14832    126421.44   -40213.253    2688.6703   -42901.924    95.620325   0.98791388 
   34300    214.15782    625.21385    126385.27   -40269.462    2664.5305   -42933.992    96.187495   0.98819659 
   34400    221.27073     515.8972    126442.09   -40192.646    2753.0286   -42945.674    96.174657   0.98775253 
   34500    216.42226    561.31242    126542.44   -40238.184    2692.7044   -42930.888    96.498064   0.98696924 
   34600    220.83483    638.16745    126396.54   -40219.533    2747.6052   -42967.138    96.643837   0.98810844 
   34700    218.34514    560.96291    126458.13   -40306.349    2716.6286   -43022.977    96.775366    0.9876272 
   34800    221.42657    542.92017    126400.06   -40286.441    2754.9675   -43041.408    96.821388   0.98808094 
   34900    217.38023    359.98451    126475.11   -40300.487    2704.6234   -43005.111    97.205959   0.98749459 
   35000    215.76363    561.93692    126290.88    -40372.58    2684.5098    -43057.09    97.472855   0.98893518 
   35100    216.35367     659.9586    126283.57   -40312.063     2691.851   -43003.914     98.00879   0.98899241 
   35200    215.89081    599.41609     126185.6   -40309.566    2686.0921   -42995.658    98.107729   0.98976026 
   35300    220.14986    669.33098    126133.42   -40302.091    2739.0828   -43041.174     98.40997   0.99016974 
   35400    216.67272    582.80758    126249.34   -40315.645    2695.8205   -43011.466    98.851012   0.98926053 
   35500    220.63154     458.1784    126364.75   -40210.561    2745.0758   -42955.637    99.095939   0.98835703 
   35600    216.90588    345.72716    126271.13   -40261.906    2698.7215   -42960.628    99.239247   0.98908985 
   35700     223.2076    697.28505    126332.33   -40210.138    2777.1269   -42987.265    99.301747   0.98861069 
   35800     218.8472    314.53513    126259.35   -40239.385    2722.8752    -42962.26    99.354586   0.98918209 
   35900     221.8315    725.98407    126255.36   -40181.719    2760.0056   -42941.725    99.726084   0.98921341 
   36000    223.15142    540.69053    126233.03     -40140.1    2776.4279   -42916.528    100.30431   0.98938834 
   36100    224.84845    512.55268     126204.8   -40160.691    2797.5422   -42958.233    100.56423   0.98960966 
   36200    221.97283    369.64943     126103.1   -40201.395     2761.764   -42963.159    100.36928   0.99040781 
   36300    215.71068    225.77178    126096.92   -40254.513    2683.8509   -42938.364    100.81041   0.99045631 
   36400    218.65679    435.75146    126064.05   -40195.414    2720.5062    -42915.92    101.39444    0.9907146 
   36500    221.95526    405.05023     125874.5   -40175.506    2761.5454   -42937.052    101.19747   0.99220648 
   36600    217.36275    470.61335    125903.93   -40288.221    2704.4058   -42992.627    101.28258   0.99197449 
   36700    220.32478    631.25946    126074.14   -40234.234    2741.2592   -42975.493    101.56073   0.99063529 
   36800      220.252    463.74509    125926.28   -40239.787    2740.3536   -42980.141     101.4915    0.9917985 
   36900    219.08801     341.6753    126039.91   -40275.094    2725.8714   -43000.966    101.74112   0.99090429 
   37000    220.93271    527.08122    126130.88   -40230.672    2748.8229   -42979.495    101.74564   0.99018965 
   37100     226.2083    401.94334    126007.83   -40228.508    2814.4614   -43042.969    101.70366   0.99115663 
   37200    218.68876    464.54925    125972.33   -40288.967     2720.904   -43009.871    102.03191   0.99143587 
   37300    217.61187    604.78227    126139.53   -40306.333    2707.5054   -43013.838    102.29249   0.99012174 
   37400    218.03809    391.70279    125992.15   -40341.009    2712.8084   -43053.817    102.52334   0.99127997 
   37500    216.80451    656.57661    126098.52   -40333.472    2697.4603   -43030.932    102.86584   0.99044374 
   37600     219.2426    614.97587    126018.04   -40288.658    2727.7947   -43016.452    102.86318   0.99107631 
   37700    217.69727    546.12298    126284.93   -40298.669    2708.5679   -43007.237     102.9426   0.98898174 
   37800    215.50318    422.36202    126199.41   -40392.406    2681.2692   -43073.675    102.63036   0.98965191 
   37900    215.72184    533.71046    126194.89   -40341.369    2683.9898   -43025.359     102.7831   0.98968741 
   38000     216.1754    499.59726    126146.87   -40305.721     2689.633   -42995.354    102.92463   0.99006409 
   38100    220.43221    474.30449    126156.66   -40266.897    2742.5958   -43009.492    103.00148   0.98998728 
   38200    219.33134    432.47929    126230.52   -40273.033    2728.8988   -43001.932    103.68267   0.98940805 
   38300    222.80643    475.99864    126354.12   -40206.461    2772.1356   -42978.597    104.23492   0.98844021 
   38400    218.46497    474.63271    126307.27   -40270.576    2718.1195   -42988.695    104.71612   0.98880681 
   38500    218.18461    583.55966    126106.67   -40286.411    2714.6313   -43001.042    105.22933    0.9903797 
   38600    218.94159    609.73864    126108.63   -40246.366    2724.0496   -42970.416    104.98083   0.99036434 
   38700    221.80398    692.47968    126209.88   -40258.906    2759.6631   -43018.569    105.11518   0.98956982 
   38800    222.18804    565.25229     126362.8   -40280.531    2764.4417   -43044.972    105.43797   0.98837227 
   38900    221.26371    464.46851    126323.57   -40243.732    2752.9412   -42996.673    105.84675   0.98867927 
   39000    220.19118    530.44022     126341.5   -40296.865    2739.5969   -43036.462    106.16262   0.98853891 
   39100    221.27859    425.54691    126661.68   -40253.941    2753.1264   -43007.067    106.91849   0.98604007 
   39200    219.31421    262.54366    126332.92   -40274.791    2728.6858   -43003.477    107.21849   0.98860604 
   39300    222.47784    564.16934    126406.26   -40259.527    2768.0473   -43027.574    107.41872   0.98803247 
   39400    221.65881    537.68275    126280.99   -40211.461     2757.857   -42969.318    107.70773   0.98901261 
   39500    222.63496    600.81944    126191.15   -40180.588    2770.0021    -42950.59    107.94234   0.98971671 
   39600    218.52861    520.78218    126119.07   -40220.514    2718.9114   -42939.425    107.90028   0.99028239 
   39700    218.56929    503.83999    125844.28   -40164.731    2719.4176   -42884.148    107.81817   0.99244468 
   39800    216.57829    670.82283    125852.47   -40208.176    2694.6456   -42902.821    107.87556   0.99238012 
   39900    218.73635    378.53587    125896.05   -40250.905     2721.496   -42972.401    107.73282   0.99203662 
   40000    215.28185    451.92904    125785.82   -40274.482    2678.5155   -42952.997    108.10125   0.99290597 
   40100    220.74599    470.09282    126023.48   -40181.995    2746.4998   -42928.495    108.61187   0.99103347 
   40200    219.79379    454.78531    125968.53    -40202.28    2734.6526   -42936.933    108.90196   0.99146578 
   40300    219.87959     631.0682    126093.91   -40175.966    2735.7201   -42911.686    109.23009   0.99047998 
   40400    223.71091    650.46564    126205.85   -40089.817     2783.389   -42873.206    109.54807   0.98960147 
   40500    223.86803    394.01568    126211.38   -40099.572    2785.3438   -42884.916    109.90611   0.98955809 
   40600    220.08781    641.08585    126258.91   -40143.608    2738.3108   -42881.918    110.35309   0.98918555 
   40700    218.94202    568.78732     126412.5   -40206.276    2724.0549   -42930.331    110.83137   0.98798371 
   40800    213.97622    428.09105    126698.53   -40256.268    2662.2709   -42918.539    111.33928   0.98575324 
   40900    218.32154    562.36206    126737.63   -40290.101     2716.335   -43006.436    111.49705   0.98544919 
   41000    220.80756     396.8227    126583.68   -40210.858    2747.2659   -42958.124    111.52568   0.98664765 
   41100    222.45631    620.58195    126231.11   -40195.915    2767.7794   -42963.694    111.37519   0.98940344 
   41200    222.37486    432.67676    126131.53   -40213.397     2766.766   -42980.163    111.80737   0.99018452 
   41300    212.48256    499.18333     126132.3   -40359.624     2643.687   -43003.311    112.29948   0.99017853 
   41400    220.08444    389.07647    126035.03   -40306.698    2738.2688   -43044.967    112.39005   0.99094268 
   41500    214.66272     591.1962    126033.87    -40296.68    2670.8123   -42967.492    112.57016    0.9909518 
   41600    215.97612    353.56461    126061.05    -40244.49    2687.1536   -42931.644     112.6395   0.99073813 
   41700    218.13326    284.81683    126200.09   -40207.125    2713.9925   -42921.118    113.02376    0.9896466 
   41800    217.52256    553.57925    126270.18   -40218.188    2706.3942   -42924.582    113.12309   0.98909728 
   41900    219.01941    554.87132    126167.42   -40201.404    2725.0178   -42926.422    112.93265   0.98990284 
   42000    221.69221    355.01155    126123.17    -40200.66    2758.2725   -42958.932    113.25699   0.99025021 
   42100    216.32295    415.82563    126087.92   -40196.886    2691.4688   -42888.354    113.68464   0.99052702 
   42200    220.25695    522.65786    126069.14   -40159.087    2740.4152   -42899.502    114.09467   0.99067456 
   42300    220.74001    559.11206     125973.8   -40146.964    2746.4254   -42893.389    115.13446    0.9914243 
   42400    220.77799    521.36589    126061.24   -40194.092    2746.8979    -42940.99    115.65228   0.99073663 
   42500    220.14909    591.22765    126166.79   -40213.033    2739.0732   -42952.107     116.0878   0.98990784 
   42600    223.45492    475.70118    126169.67   -40236.496     2780.204     -43016.7    116.19215   0.98988519 
   42700     219.5905    673.61554    126314.71   -40247.647    2732.1233    -42979.77      116.571   0.98874859 
   42800    220.32078    286.97329    126440.44   -40186.198    2741.2093   -42927.408    116.45665   0.98776537 
   42900    219.96265    392.37498    126238.46   -40259.975    2736.7536   -42996.729    117.04872    0.9893458 
   43000    221.52651    532.66517    126098.96   -40290.141    2756.2109   -43046.352    117.27599   0.99044033 
   43100    219.42811    657.49352     126180.9   -40268.204    2730.1029   -42998.307    116.93363   0.98979708 
   43200    220.53589    351.99575    126324.61   -40227.386    2743.8858   -42971.272    116.81882   0.98867109 
   43300    221.37258    714.23927    126298.97   -40231.368    2754.2957   -42985.663    117.04674   0.98887183 
   43400     224.2723    468.61196    126434.14   -40199.128    2790.3737   -42989.501    117.65199   0.98781465 
   43500    220.21037    590.00092    126593.01   -40213.824    2739.8356   -42953.659    118.33893   0.98657495 
   43600    225.56044    437.41435     126605.8   -40118.808    2806.4006   -42925.209    118.78021    0.9864753 
   43700    224.78468    411.66445    126566.34   -40145.749    2796.7488   -42942.498    119.27087   0.98678284 
   43800    220.14458    410.68606    126549.74   -40140.587    2739.0171   -42879.604    119.30635   0.98691226 
   43900    218.56453    405.05141     126569.5   -40180.867    2719.3583   -42900.225    119.54129   0.98675819 
   44000    219.04546    328.05143    126425.27   -40206.135     2725.342   -42931.477    119.21308   0.98788396 
   44100    220.11694    255.64177     126445.3    -40205.85    2738.6732   -42944.523    119.72613   0.98772747 
   44200     221.0519     495.1395    126495.74   -40241.301    2750.3058   -42991.607    120.26912   0.98733358 
   44300    219.22155     451.7058    126399.44   -40251.049    2727.5328   -42978.582    120.63395   0.98808581 
   44400    220.37586    513.41271    126368.82   -40220.303    2741.8946   -42962.198    121.08764   0.98832525 
   44500    218.77897    467.95285    126416.88   -40255.335    2722.0263   -42977.361    121.66704   0.98794949 
   44600    218.95602     252.1607     126360.2    -40306.14    2724.2291   -43030.369    122.15981   0.98839264 
   44700    219.47237      391.697    126311.75   -40272.095    2730.6536   -43002.749    122.61218   0.98877176 
   44800    220.29123    674.18387    126354.72   -40241.211    2740.8417   -42982.053     122.5828   0.98843553 
   44900    219.64291    471.60223    126298.05   -40198.219    2732.7754   -42930.995    122.79591   0.98887903 
   45000    219.69229    605.70669    126474.03   -40190.295    2733.3897   -42923.684    123.23547   0.98750308 
   45100    221.50548     555.8429    126459.81   -40133.354    2755.9493   -42889.304    123.43363   0.98761407 
   45200    218.86862    672.98924    126395.69   -40187.486    2723.1418   -42910.628    123.42683   0.98811511 
   45300     220.5539    540.30367     126284.3    -40197.73    2744.1099   -42941.839    123.92412   0.98898671 
   45400    220.89282    462.29275    126284.02   -40167.495    2748.3267   -42915.822    123.59341   0.98898889 
   45500    223.23837    413.80205    126221.56   -40186.387    2777.5097   -42963.897    123.53102   0.98947825 
   45600    223.21094    418.50787    126311.62   -40183.237    2777.1685   -42960.406    123.97178   0.98877277 
   45700    217.79875    425.40846    126318.49   -40198.582    2709.8306   -42908.413    124.30832   0.98871899 
   45800    224.14312    422.52637     126243.5   -40144.267    2788.7666   -42933.033    124.65264   0.98930628 
   45900    221.67174    511.03964    125996.99   -40086.334    2758.0179   -42844.351    124.96488   0.99124185 
   46000     219.2516      480.288    126116.29   -40069.004    2727.9067   -42796.911    125.53721   0.99030423 
   46100    228.97552    439.56248    126101.67    -40025.63    2848.8908    -42874.52    126.05676   0.99041905 
   46200    223.48533    366.19069    126127.72   -40031.394    2780.5824   -42811.976    126.09527   0.99021447 
   46300    222.91607    667.76021     126108.5   -40057.273    2773.4997   -42830.772    126.22755   0.99036536 
   46400    226.51947    337.65414    126000.37   -40089.116    2818.3328   -42907.449    126.78652   0.99121525 
   46500     223.9504    673.02731    126077.94   -40113.593    2786.3688   -42899.962    127.27481   0.99060544 
   46600    223.66576    615.12219    126301.27   -40122.503    2782.8273   -42905.331     127.3091   0.98885381 
   46700    218.53978    329.82589    125980.12   -40207.673    2719.0504   -42926.723    127.39754   0.99137461 
   46800    216.90145    575.20339    125977.73    -40244.37    2698.6664   -42943.036    127.62588   0.99139344 
   46900     223.2322    564.83199    126282.75     -40167.6     2777.433   -42945.033    127.45902   0.98899882 
   47000    218.94967    573.51417    126296.25   -40134.794    2724.1502   -42858.944    127.74016   0.98889309 
   47100    223.18638    524.65301    126295.79   -40093.916    2776.8628   -42870.779    128.12977   0.98889672 
   47200    221.74566    398.59618    126406.51   -40143.847    2758.9376   -42902.785    128.10865    0.9880305 
   47300    219.36472    473.72118    126351.48   -40178.061    2729.3142   -42907.375    128.10935   0.98846082 
   47400    222.12331    446.66347    126445.17   -40162.844    2763.6363    -42926.48      128.229   0.98772843 
   47500    220.93013    486.87846    126184.85   -40121.917    2748.7908   -42870.708    127.88244   0.98976614 
   47600    224.97206    529.26703    126100.65   -40062.056    2799.0801   -42861.136    127.80212   0.99042706 
   47700    225.06476    247.52501    126272.16   -40107.902    2800.2335   -42908.135    128.34885   0.98908177 
   47800    221.47635    563.29018    126196.83   -40102.962    2755.5869   -42858.548    128.57945   0.98967218 
   47900    220.02157    364.31526    126133.89    -40177.43    2737.4866   -42914.917    129.20855   0.99016602 
   48000     215.7227    433.53136    126040.55   -40188.367    2684.0005   -42872.367    129.38764   0.99089928 
   48100    218.56026    639.39648    125887.72   -40143.591    2719.3051   -42862.896    129.58772   0.99210226 
   48200    220.29911    374.82191    125554.02   -40181.689    2740.9397   -42922.629    129.89277    0.9947391 
   48300    221.99109    433.77801    125607.74   -40158.176    2761.9912   -42920.167    130.25498   0.99431368 
   48400    226.47533    560.14111    125582.67   -40097.678    2817.7837   -42915.461    130.43908   0.99451212 
   48500    221.63861    670.04641    125704.79   -40157.027    2757.6056   -42914.633    130.81282   0.99354596 
   48600    218.92594    388.01815    125774.58   -40152.965     2723.855    -42876.82    130.79683   0.99299469 
   48700    219.84283    406.33037    125718.78   -40109.443    2735.2627   -42844.706     131.1469   0.99343544 
   48800    218.30516    557.41561    125850.56   -40147.348    2716.1312    -42863.48    131.20849   0.99239516 
   48900    221.47564    679.52185    125724.74   -40125.509     2755.578   -42881.087    130.66289   0.99338834 
   49000    221.43783    682.83622     125693.6   -40163.295    2755.1076   -42918.403    130.60034   0.99363443 
   49100    221.49388    559.85132    125770.12   -40173.672    2755.8049   -42929.477     131.2098    0.9930299 
   49200    224.08728    369.70995    125980.37   -40213.025    2788.0718   -43001.097    131.54828   0.99137261 
   49300    218.68068    346.61565    125752.38   -40160.495    2720.8035   -42881.298    131.39896   0.99316998 
   49400    219.77449    599.38179    125907.42   -40137.597    2734.4125    -42872.01    131.48359   0.99194702 
   49500    220.38128    363.69226    125961.65   -40163.556    2741.9621   -42905.518     131.4489   0.99151996 
   49600    221.17143    621.73057    125938.98   -40167.452    2751.7931   -42919.245    131.44505   0.99169845 
   49700    221.78192    374.20991    125801.78   -40199.004    2759.3887   -42958.393    132.01918   0.99277997 
   49800    218.03315    568.40662    125960.47    -40253.08    2712.7469   -42965.826    132.28542   0.99152925 
   49900    223.80653    403.65946    125932.65   -40151.131    2784.5787    -42935.71     132.4422    0.9917483 
   50000    221.84097    464.18262    125973.18   -40174.622    2760.1234   -42934.746    132.28255   0.99142925 
   50100     220.5705    549.09288    125820.22   -40192.205    2744.3164   -42936.521       132.11   0.99263453 
   50200    217.91515    392.54902    125732.21   -40235.689    2711.2787   -42946.968    132.25977   0.99332934 
   50300    220.81816    652.21823    125773.38   -40198.935    2747.3977   -42946.332    132.98883   0.99300414 
   50400    217.35955    500.63107    125799.77   -40232.485    2704.3661   -42936.851    133.72351    0.9927959 
   50500    220.18218    576.05223    125896.24   -40272.944     2739.485   -43012.429    133.70278   0.99203511 
   50600    215.92234    523.21964    125778.54   -40291.986    2686.4844   -42978.471    134.02945   0.99296343 
   50700    218.91541    644.08237    125795.02   -40292.064     2723.724   -43015.788     133.7945   0.99283336 
   50800    214.14198    506.27658    125869.83    -40279.04    2664.3334   -42943.373    133.99414   0.99224326 
   50900    220.57955    484.58594    125788.19   -40190.298     2744.429   -42934.727    134.17515   0.99288723 
   51000    217.73121    448.93314    125965.13   -40226.589    2708.9902    -42935.58     134.7171    0.9914926 
   51100     221.1125    630.60373    126029.56   -40260.124    2751.0598   -43011.184    135.08415   0.99098566 
   51200    215.30259    415.48183    125750.81   -40250.229    2678.7735   -42929.003    135.04858   0.99318239 
   51300    221.35011    370.66674    125618.71   -40289.868    2754.0162   -43043.885    134.86421   0.99422682 
   51400    217.29143     453.2995    125535.56   -40287.422    2703.5184   -42990.941    134.70957   0.99488537 
   51500    220.18602    373.82878    125640.07   -40293.385    2739.5327   -43032.918    134.77706   0.99405784 
   51600    217.79293    513.48463    125617.58   -40229.664    2709.7581   -42939.422    135.08766   0.99423579 
   51700     217.0458    711.25545     125616.3   -40208.175    2700.4624   -42908.638    135.34477   0.99424589 
   51800    220.44462    708.76015    125678.39    -40238.34    2742.7502    -42981.09    135.34008   0.99375469 
   51900     216.1155    541.53945    125750.81   -40267.324    2688.8876   -42956.212    135.47001    0.9931824 
   52000    214.80694    560.08799    125716.75   -40284.354    2672.6067    -42956.96    135.83352    0.9934515 
   52100    220.12924    416.21238    125780.67   -40236.802    2738.8262   -42975.629    136.19818   0.99294663 
   52200    218.41717    523.67936    125761.23   -40267.624    2717.5249   -42985.149    136.70811   0.99310013 
   52300    218.07438    328.32942       125741   -40238.476    2713.2598   -42951.735    137.06747   0.99325992 
   52400    214.73941    639.22218    125752.79   -40173.351    2671.7666   -42845.118    137.49206   0.99316675 
   52500    216.72022    434.52713    125577.15   -40161.356    2696.4116   -42857.767    137.27461   0.99455588 
   52600    218.59458    343.97387    125740.23   -40190.973    2719.7322   -42910.705    137.79702   0.99326599 
   52700    216.71253    694.17371    125703.05   -40213.512    2696.3159   -42909.828    137.99076   0.99355975 
   52800    218.23309    644.39693    125609.86   -40176.915    2715.2345    -42892.15      138.188    0.9942969 
   52900     216.7393    462.13918     125484.9   -40175.021    2696.6489    -42871.67    138.91247   0.99528699 
   53000    218.46886    555.49438    125416.08   -40136.976    2718.1679   -42855.143    139.22394   0.99583319 
   53100    217.67049    588.19796    125438.19   -40159.283    2708.2348   -42867.518     139.3401   0.99565761 
   53200    216.92361    440.27862    125492.91   -40140.409    2698.9421   -42839.351    139.14083   0.99522349 
   53300    219.21176      591.141    125390.87   -40135.116    2727.4111   -42862.527    139.27137   0.99603338 
   53400    215.45322     694.8691    125675.82   -40221.408    2680.6477   -42902.056    139.89473   0.99377502 
   53500    221.08905    444.53571    125535.07   -40235.074    2750.7681   -42985.842    140.17283   0.99488926 
   53600    216.56579    533.72014    125596.57   -40242.885    2694.4902   -42937.375    140.03419   0.99440208 
   53700    214.67596    579.54647    125762.14   -40276.447     2670.977   -42947.424    140.34914   0.99309296 
   53800    222.61159    273.56489     125619.9   -40164.005    2769.7113   -42933.716     140.3788   0.99421738 
   53900    213.54297    486.68768    125520.21   -40210.067    2656.8805   -42866.948    140.64725   0.99500701 
   54000    217.49391    514.19099    125560.77   -40149.123    2706.0378   -42855.161    141.45996   0.99468562 
   54100    217.03617    506.59802    125570.87   -40153.432    2700.3426   -42853.775    141.85299   0.99460563 
   54200    218.34111    559.73702    125751.68   -40135.833    2716.5785   -42852.411    142.21539    0.9931755 
   54300     221.0353    575.12224    125790.53   -40096.819    2750.0993   -42846.918    142.44025   0.99286882 
   54400    218.98127    323.47271    125695.57   -40151.582    2724.5433   -42876.125    142.06535   0.99361889 
   54500     221.9589    427.52743    125737.32   -40149.354    2761.5907   -42910.945    142.26418   0.99328899 
   54600    226.30881    507.97703    125857.47    -40067.55    2815.7119   -42883.262    142.73058    0.9923407 
   54700    224.05373    512.22175    125943.95   -40079.812    2787.6543   -42867.466    143.12048   0.99165929 
   54800    222.60476    432.12483    125653.34   -40153.555    2769.6264   -42923.181    142.83746   0.99395282 
   54900    218.58792    441.79206     125924.9   -40200.169    2719.6493   -42919.818     143.5992    0.9918093 
   55000    217.82704    350.29761    125824.51   -40252.427    2710.1826    -42962.61    144.10255   0.99260067 
   55100    216.81253    440.78577    125807.53   -40213.537    2697.5601   -42911.097    144.35015   0.99273464 
   55200    216.72626    502.03604    125755.95   -40219.971    2696.4867   -42916.458    144.92174   0.99314184 
   55300    222.25194     300.6026    125914.28   -40181.289    2765.2367   -42946.526    144.85227   0.99189298 
   55400    222.24727    417.80861    125830.87   -40164.488    2765.1786   -42929.667    145.07073   0.99255047 
   55500    225.06222     570.5615    125877.08   -40121.705    2800.2019   -42921.907    144.88538   0.99218615 
   55600    222.87912    619.58499    126032.36   -40174.344      2773.04   -42947.384    144.68195   0.99096367 
   55700    222.21819     517.3241    126097.12   -40192.614    2764.8167   -42957.431    145.15527   0.99045474 
   55800    221.26429    641.10548    126207.75    -40208.54    2752.9484   -42961.488    145.55705   0.98958652 
   55900    222.53327    495.72887    126258.26   -40189.676     2768.737   -42958.413    146.16964   0.98919068 
   56000    217.99291    459.81527    126334.22    -40181.99    2712.2462   -42894.236    146.69121   0.98859586 
   56100    222.02993    494.34944     126348.7    -40156.23    2762.4744   -42918.704    146.63005   0.98848263 
   56200    223.11042    475.07706    126517.39   -40154.784    2775.9177   -42930.702    146.84601   0.98716459 
   56300    221.27602     309.8498     126362.2   -40186.561    2753.0944   -42939.655    147.10141   0.98837699 
   56400    220.16691    564.98286    126333.47   -40182.022     2739.295   -42921.317     147.1115   0.98860179 
   56500    215.43733    642.21838    126275.14   -40259.395      2680.45   -42939.845    147.18257   0.98905843 
   56600    218.27967    516.66908    126350.61   -40264.423    2715.8141   -42980.238    147.41036   0.98846764 
   56700    218.11554    423.56998    126247.98   -40298.504     2713.772   -43012.276    147.56485   0.98927122 
   56800    219.50866    492.51513    126248.28   -40230.831     2731.105   -42961.936    147.65081   0.98926887 
   56900    223.54489    447.22129    126225.96   -40221.872    2781.3235   -43003.195    147.92547   0.98944376 
   57000    223.69849    555.35673    126490.91   -40158.557    2783.2345   -42941.792    148.68545   0.98737125 
   57100    217.15557    592.83767    126448.53   -40225.563    2701.8281   -42927.391    148.73991   0.98770218 
   57200    217.78675    442.82254    126251.78    -40267.65    2709.6813   -42977.332    149.02607   0.98924147 
   57300    218.06347     396.7022    125944.94   -40309.028    2713.1242   -43022.152    148.63169   0.99165153 
   57400    217.70801    572.77801    125980.54   -40322.171    2708.7015   -43030.872    148.97761   0.99137131 
   57500    215.29414    539.27267    126191.12   -40377.036    2678.6684   -43055.705    149.03601   0.98971699 
   57600     220.9646    363.50817    126234.02   -40336.926    2749.2197   -43086.146    149.01625   0.98938061 
   57700    215.17285    538.36854    126125.87   -40367.646    2677.1593   -43044.805    148.63773   0.99022897 
   57800    215.31889    413.88321    126088.43   -40385.194    2678.9764   -43064.171    148.69162   0.99052301 
   57900    216.49913    478.87678    126140.89   -40346.039    2693.6608     -43039.7    148.81784   0.99011106 
   58000    217.48623    667.90826    126170.04   -40338.618    2705.9422    -43044.56    149.22379   0.98988232 
   58100    217.65672    442.86129    126373.16   -40271.782    2708.0634   -42979.845    149.68362   0.98829129 
   58200    221.88864    596.17625    126445.16   -40211.323    2760.7165    -42972.04    150.05473    0.9877285 
   58300    222.47711    372.98832    126462.98   -40165.701    2768.0382   -42933.739     150.4154   0.98758936 
   58400    223.94386    571.05844    126217.59   -40167.623    2786.2874    -42953.91    150.40114   0.98950937 
   58500    219.51172    417.71499    126082.34    -40178.53    2731.1431   -42909.674    150.75398   0.99057089 
   58600    220.13517    630.70889    126043.75   -40131.383       2738.9   -42870.283    151.16924   0.99087417 
   58700    221.49546     378.8864    126141.38   -40122.938    2755.8247   -42878.763    151.49599   0.99010726 
   58800    222.08512    567.76418    126231.09   -40180.838    2763.1611   -42943.999    151.91134   0.98940358 
   58900    216.28303     485.0666    126353.65   -40208.122    2690.9721   -42899.094    152.09694   0.98844384 
   59000    218.75541    497.14001     126489.4    -40190.44    2721.7332   -42912.173    152.35182   0.98738307 
   59100     222.1474    667.38007    126372.97   -40194.758     2763.936   -42958.694    152.43056   0.98829278 
   59200    219.10645    473.84985    126388.96   -40220.372    2726.1008   -42946.472    153.06943   0.98816774 
   59300    218.76302    676.95089    126280.49   -40225.442    2721.8278    -42947.27    153.11645    0.9890165 
   59400    217.41443    545.12506    126207.95    -40276.98    2705.0489   -42982.029    153.54012   0.98958501 
   59500    215.66005    496.39404    126250.89    -40249.08     2683.221   -42932.301    153.57888   0.98924841 
   59600    218.88818    458.43347     126226.3   -40242.602    2723.3851   -42965.987    153.76918   0.98944113 
   59700    218.20243    430.66933    126403.91   -40282.794    2714.8531   -42997.647    154.18853   0.98805085 
   59800    220.45605    612.78225    126232.88   -40301.071    2742.8924   -43043.963    154.62556   0.98938958 
   59900    221.40102    533.81397    126501.09   -40295.116    2754.6496   -43049.766    154.64789   0.98729181 
   60000    215.65901    584.25652    126214.32   -40333.268     2683.208   -43016.476    154.50963   0.98953504 
   60100    221.26341     480.6762     126315.6   -40304.776    2752.9375   -43057.713    154.87848   0.98874159 
   60200    221.04934    427.80026     126162.8   -40282.525    2750.2741   -43032.799    154.65152    0.9899391 
   60300    218.72007    489.32878    125996.49   -40232.809    2721.2935   -42954.103    154.71533   0.99124579 
   60400    222.59847    463.51129    125985.37    -40170.47    2769.5481   -42940.018    154.93589   0.99133329 
   60500    220.18499     408.7021    125997.21    -40187.25    2739.5198    -42926.77    155.56866   0.99124014 
   60600    217.87198    595.50735    126037.47   -40218.861    2710.7416   -42929.603     155.5627   0.99092354 
   60700    214.62577    477.89074    125921.55   -40218.061    2670.3526   -42888.414    155.54177   0.99183573 
   60800    221.27286    487.13751    126013.14   -40161.399     2753.055   -42914.454    155.94801   0.99111479 
   60900    222.56923    487.67553     126047.5   -40160.811    2769.1843   -42929.995    156.16074   0.99084464 
   61000     219.9336    482.70036     126195.2   -40200.878    2736.3921    -42937.27    156.63893   0.98968493 
   61100    218.39438    637.26922    126380.07   -40237.129    2717.2413    -42954.37    156.96596   0.98823724 
   61200    217.28734    518.29805    126189.35   -40250.952    2703.4676    -42954.42    156.87802   0.98973085 
   61300    224.30517     702.1618    126186.13   -40251.129    2790.7827   -43041.912    157.49014    0.9897561 
   61400     216.4193    472.84047    125939.98   -40292.372    2692.6675   -42985.039    157.16694   0.99169055 
   61500    220.77221    644.40982    126003.54   -40290.068    2746.8261   -43036.894     157.6238    0.9911903 
   61600    220.82774    279.51058    125988.77   -40267.129    2747.5169   -43014.646    157.97906   0.99130657 
   61700    217.37835    381.62148     125944.1   -40336.741    2704.5999   -43041.341    157.87649   0.99165814 
   61800    211.10055    480.17527    126045.91   -40396.664    2626.4922   -43023.156    158.00796   0.99085717 
   61900    214.93516    430.79861     126161.9   -40311.847     2674.202   -42986.049    158.39924   0.98994615 
   62000    219.36853     330.2113    125923.55   -40259.933    2729.3615   -42989.295    158.95755   0.99181995 
   62100    219.86777    427.16291    125869.92   -40276.934    2735.5731   -43012.507    158.77928   0.99224257 
   62200    221.22526     448.2251    125759.09    -40225.03    2752.4628   -42977.493    158.77087   0.99311704 
   62300    215.72002    608.13622    125773.22   -40259.025    2683.9672   -42942.992    158.95577    0.9930054 
   62400    218.14866    477.97524    125669.64   -40197.335    2714.1841   -42911.519    158.96569   0.99382387 
   62500    216.64261    547.42173    125675.79   -40202.464    2695.4459    -42897.91    159.62717   0.99377529 
   62600    220.63538    574.49833    125773.92   -40190.662    2745.1236   -42935.785     160.0321   0.99299994 
   62700     219.7194    533.13845    125566.59   -40214.615     2733.727   -42948.342    159.93855   0.99463947 
   62800    219.93058    430.54234    125446.24   -40190.436    2736.3545   -42926.791    160.15383   0.99559376 
   62900    220.54515     492.1534    125563.18   -40140.929    2744.0009    -42884.93    160.40191   0.99466656 
   63000    224.16191    425.43351    125469.19   -40107.289    2789.0003    -42896.29    160.89177   0.99541161 
   63100    225.11926     389.1032    125565.04   -40104.585    2800.9116   -42905.496    161.28409   0.99465176 
   63200    220.54227    519.38357     125694.4   -40122.035    2743.9652       -42866    161.28419   0.99362817 
   63300     223.1493    614.11537    125857.07   -40155.637    2776.4016   -42932.038    161.55293    0.9923439 
   63400    222.23642    720.70855    125698.53    -40076.77    2765.0435   -42841.813    162.04299   0.99359545 
   63500    217.86161     517.0841    125712.29    -40169.05    2710.6126   -42879.662    162.26671   0.99348669 
   63600    219.83082    501.59807    125849.15   -40147.911    2735.1133   -42883.025     162.6546   0.99240633 
   63700    219.04247    450.19519     125710.1   -40152.198    2725.3048   -42877.503    162.90183   0.99350406 
   63800    212.92708    387.09587    125767.81   -40256.751    2649.2177   -42905.969    163.28188   0.99304816 
   63900    215.67518    412.43324    125884.65   -40247.658    2683.4092   -42931.067    163.93631   0.99212647 
   64000    219.22223    421.00816    125711.68   -40232.421    2727.5414   -42959.962    164.08448   0.99349154 
   64100    220.58048    528.56309     125774.4   -40150.704    2744.4405   -42895.144    164.25524   0.99299611 
   64200    220.46923    491.03861    125832.02   -40145.079    2743.0564   -42888.136     165.0756   0.99254138 
   64300    225.66942    565.45028    125909.24   -40057.585    2807.7566   -42865.342    165.42629   0.99193269 
   64400    222.86399    413.48725    126096.77   -40071.225    2772.8518   -42844.076    166.27604   0.99045748 
   64500    223.56572    460.77453    126146.84   -40086.366    2781.5826   -42867.948    166.81651   0.99006433 
   64600    224.06191      430.795    126210.28   -40160.461    2787.7561   -42948.217    166.84696   0.98956669 
   64700    221.89604     412.1786    125996.45   -40202.242    2760.8086    -42963.05    166.86562    0.9912461 
   64800    219.76071    298.94819    125950.75   -40223.138     2734.241   -42957.379    166.94364   0.99160575 
   64900    221.09611     413.1005    125945.87   -40198.441    2750.8559   -42949.296    167.13216   0.99164416 
   65000    224.27159    81.437197    125889.71   -40163.559     2790.365   -42953.924    167.03903   0.99208654 
   65100    220.93759     609.9737    125836.21   -40192.013    2748.8836   -42940.896    167.09506   0.99250833 
   65200    223.91027    422.67476    125990.54   -40187.312    2785.8694   -42973.182    167.54117   0.99129265 
   65300    223.67115    654.10439    126304.82   -40193.305    2782.8943     -42976.2    168.59467   0.98882599 
   65400    223.98654    614.96861    126497.91   -40155.961    2786.8184    -42942.78    168.65528   0.98731662 
   65500    222.64338    522.16495    126310.03   -40220.319    2770.1069   -42990.426    168.70694   0.98878526 
   65600    226.37658     562.3074    126410.09   -40267.383     2816.555   -43083.938     168.5436   0.98800257 
   65700    216.47991    461.15572    126223.97   -40325.037    2693.4216   -43018.458    168.83356   0.98945937 
   65800    218.19502    552.50568    126090.97   -40339.465    2714.7609   -43054.226    168.70147   0.99050309 
   65900    216.17988     607.3913    126127.28   -40291.814    2689.6887   -42981.502    168.97356    0.9902179 
   66000    219.12526    660.98618    126141.95   -40193.256    2726.3348   -42919.591    169.37615   0.99010278 
   66100    223.47794     648.0061    126069.23   -40130.469    2780.4904   -42910.959    169.42229   0.99067385 
   66200    222.90644    615.16178    126023.58   -40098.284    2773.3799   -42871.663    170.16205    0.9910327 
   66300    221.46198     492.6677    125967.37   -40135.514    2755.4081   -42890.922    170.37289   0.99147495 
   66400    219.45674    488.35623    125871.46   -40182.372    2730.4591   -42912.831    170.47417   0.99223043 
   66500    215.94006    450.07988     125767.9   -40199.388    2686.7049   -42886.093      170.794   0.99304745 
   66600    216.62515    546.97437    125663.61    -40205.05    2695.2287   -42900.278    171.20513   0.99387157 
   66700    217.91964    654.18073    125866.64   -40226.128    2711.3347   -42937.463    171.36768   0.99226838 
   66800    223.34626    365.00186    126089.84   -40174.677    2778.8521   -42953.529    171.70009   0.99051192 
[...]
   84600    214.81232    544.07252    126102.48   -40354.137    2672.6736   -43026.811    221.81408   0.99041265 
   84700    218.68035    637.33795    126263.82   -40362.889    2720.7993   -43083.688    222.39285   0.98914713 
   84800    216.19554    465.74022    126271.02   -40318.277    2689.8835    -43008.16    222.52821   0.98909068 
   84900    216.91155    470.56095    126289.74   -40289.748    2698.7921    -42988.54    222.69929   0.98894409 
   85000    222.18612     361.7925    126286.74   -40245.483    2764.4177     -43009.9    222.95494   0.98896761 
   85100    219.64229    651.40666    126147.79   -40251.327    2732.7677   -42984.094    222.54511    0.9900569 
   85200    219.87628    612.90942    126173.76   -40267.794     2735.679   -43003.472     223.1594    0.9898531 
   85300    222.21122    594.96417    126220.06   -40310.012      2764.73   -43074.742    223.01826   0.98949003 
   85400    220.20328    475.37223    126350.96   -40306.609    2739.7475   -43046.357    223.52275   0.98846493 
   85500    215.75859    340.70544    126196.47   -40265.197     2684.447   -42949.644      223.885   0.98967504 
   85600    220.03046     536.1368    126257.24   -40226.152    2737.5972    -42963.75    224.74732   0.98919862 
   85700    219.43859    610.88588    126185.32    -40266.19    2730.2332   -42996.423    224.95226   0.98976249 
   85800    221.25827     447.2907     126474.8   -40275.938    2752.8735   -43028.811    225.42949   0.98749703 
   85900    218.10222    550.66753    126514.33   -40167.774    2713.6062    -42881.38    226.00098   0.98718848 
   86000    217.96948    585.61905     126459.2   -40217.051    2711.9548   -42929.005     226.1393   0.98761887 
   86100    224.09844    470.03084    126481.96   -40221.129    2788.2107   -43009.339    226.30702   0.98744116 
   86200    221.55651    630.94451    126317.96   -40192.297    2756.5842   -42948.882    226.18354   0.98872315 
   86300    218.01063    554.18824    126403.71   -40231.925    2712.4667   -42944.392    226.60288    0.9880524 
   86400     218.9005    520.74533    126281.88    -40243.47    2723.5383   -42967.009    226.44052   0.98900565 
   86500    217.82861     547.2894    126258.27   -40235.407     2710.202   -42945.609    226.92408   0.98919058 
   86600    223.41117    446.59434    126183.95    -40175.72    2779.6596   -42955.379    227.39446    0.9897732 
   86700     222.9828    455.67956    126303.73   -40165.912    2774.3299   -42940.242    228.09399   0.98883455 
   86800    221.86425    474.86139    126388.73   -40240.827     2760.413    -43001.24     228.1753   0.98816954 
   86900    221.74505    570.33836    126411.25   -40205.969      2758.93   -42964.899    228.75195   0.98799346 
   87000    220.42328    401.43813     126389.9   -40206.435    2742.4846    -42948.92    228.76236   0.98816039 
   87100    215.33046    478.19696     126296.3   -40253.132    2679.1202   -42932.252    229.37127   0.98889269 
   87200    220.55064    589.03783     126403.4   -40241.211    2744.0693    -42985.28    229.53399   0.98805487 
   87300    218.51206    447.47428    126447.74   -40249.264    2718.7055    -42967.97    230.40825   0.98770837 
   87400    217.52332    550.67631    126457.17   -40268.201    2706.4036   -42974.605     230.4011   0.98763473 
   87500    215.79412    780.01106    126316.71   -40279.845    2684.8891   -42964.734    230.41574   0.98873297 
   87600    218.76702    483.26321    126367.54   -40292.238    2721.8776   -43014.115    230.73472   0.98833525 
   87700    217.42504    576.43248    126314.65   -40303.028    2705.1808   -43008.209    231.10843   0.98874903 
   87800    217.72946    508.56858    126599.61   -40285.559    2708.9684   -42994.527    232.04948   0.98652349 
   87900    224.40276    390.55706    126521.21   -40303.994    2791.9969   -43095.991    232.21967   0.98713482 
   88000    219.64472    507.23569    126302.84   -40325.506    2732.7979   -43058.304    232.06361   0.98884153 
   88100    219.43815    521.82173    126352.96   -40248.667    2730.2278   -42978.895    232.41814   0.98844929 
   88200    221.26981     664.6595    126351.08   -40230.202    2753.0171   -42983.219    232.98084   0.98846397 
   88300    223.56282    422.93676    126483.34   -40274.006    2781.5465   -43055.553    233.50973   0.98743034 
   88400    217.69478    589.61814    126463.76   -40374.718     2708.537   -43083.255    233.81421   0.98758327 
   88500    220.82117    665.15195    126334.45   -40273.469    2747.4352   -43020.904    233.43772   0.98859411 
   88600    220.46347     496.3393    126301.54   -40207.587    2742.9847   -42950.571    233.65314   0.98885167 
   88700    221.44895    549.30046    126427.37   -40182.417    2755.2459   -42937.663    233.89168   0.98786751 
   88800    228.53123    528.87532    126203.03   -40111.951    2843.3629   -42955.314    233.80929   0.98962357 
   88900    220.65697    455.58816    126262.79   -40143.521    2745.3922   -42888.913    234.34074   0.98915518 
   89000    223.17589    397.61226    126221.19   -40137.792    2776.7324   -42914.524    234.69107   0.98948118 
   89100    218.44578    346.14309    126086.85   -40241.216    2717.8808   -42959.097    235.21046   0.99053545 
   89200    219.90507    549.82698    125994.57   -40275.453    2736.0372    -43011.49    235.28211   0.99126091 
   89300    219.51793    667.55456    126105.45   -40288.049    2731.2204    -43019.27    235.60355   0.99038935 
   89400    213.95018    326.70633     125987.9   -40312.736     2661.947   -42974.683    235.16542   0.99131337 
   89500    215.32295    676.67702    126045.65   -40342.158    2679.0268   -43021.185    235.73576   0.99085919 
   89600    215.81721    508.63655    126067.87   -40392.621    2685.1764   -43077.797    235.89984   0.99068458 
   89700    212.05493    638.41811     126088.7   -40366.872    2638.3665   -43005.239    236.56104   0.99052088 
   89800    216.14027    540.04983    126104.24   -40331.966    2689.1958   -43021.162    236.83028   0.99039879 
   89900    216.07334    418.32418    126291.69    -40378.64    2688.3631   -43067.003    237.20605   0.98892885 
   90000    217.93408    526.66022    126220.14   -40299.079    2711.5143   -43010.593    237.23021   0.98948944 
   90100    218.59364    647.96087     126329.5   -40305.342    2719.7205   -43025.063    237.65237    0.9886328 
   90200    216.01181    538.03361     126113.1   -40341.043    2687.5976    -43028.64    237.87481   0.99032923 
   90300    215.65155    587.24769    126143.53    -40336.99    2683.1153   -43020.106    237.78627   0.99009037 
   90400    216.81812    471.24723    126350.85   -40322.684    2697.6296   -43020.313    238.38264   0.98846576 
   90500    218.33323    415.59425    126477.07   -40304.522    2716.4805   -43021.002    239.03784   0.98747929 
   90600     220.9619    544.92976     126418.1   -40221.079    2749.1862   -42970.266    238.99998   0.98793995 
   90700    220.97541    430.76837    126383.73   -40211.946    2749.3542     -42961.3    239.42067   0.98820861 
   90800    220.29875    383.69066    126126.56   -40236.691    2740.9352   -42977.626    239.42917   0.99022352 
   90900    218.35166    565.84005    126332.19   -40314.368    2716.7097   -43031.078    239.54647   0.98861174 
   91000     221.6732     337.4112    126178.06   -40336.526    2758.0361   -43094.562     239.9587   0.98981943 
   91100    219.64699    349.97106    126109.25   -40341.619    2732.8262   -43074.445    239.95985   0.99035949 
   91200    216.86504    554.45026    125956.26   -40290.837    2698.2134    -42989.05    240.20782    0.9915624 
   91300    221.30208    598.83111    126077.41   -40194.813    2753.4186   -42948.232    240.70644   0.99060955 
   91400    224.11659    430.27463    126271.21   -40182.169    2788.4364   -42970.606     241.6083   0.98908918 
   91500    223.69157    502.26909     126317.8   -40213.146    2783.1484   -42996.294    242.26136   0.98872442 
   91600    217.42976    462.77346    126285.16   -40253.485    2705.2396   -42958.724    242.49442   0.98897996 
   91700    218.56539    566.49917    126554.78   -40327.329    2719.3689   -43046.698    242.98214   0.98687293 
   91800    223.17487    663.41694    126678.43   -40297.121    2776.7197   -43073.841    243.13334   0.98590967 
   91900    221.09305    594.00363    126682.62   -40298.556    2750.8179   -43049.374    243.65447   0.98587706 
   92000    220.05353     590.0189    126877.06   -40299.138    2737.8842   -43037.023    243.71702    0.9843662 
   92100    217.04788    597.68089    127016.48   -40359.451    2700.4883    -43059.94    244.10609   0.98328568 
   92200     217.2928    544.33542    126990.76   -40301.452    2703.5355   -43004.987     244.4066   0.98348483 
   92300    223.06192    234.35708    126947.22   -40216.149    2775.3143   -42991.463    244.63311   0.98382216 
   92400    223.06609    634.92748    126638.17   -40210.516    2775.3662   -42985.882      244.563   0.98622311 
   92500    215.33544    632.96313    126452.82   -40252.532    2679.1822   -42931.714    244.64776   0.98766873 
   92600    221.70515    313.73353    126383.98   -40222.486    2758.4336    -42980.92     244.6487   0.98820668 
   92700    221.66281    484.45953    126285.74   -40208.145    2757.9067   -42966.052    244.90336   0.98897543 
   92800    218.35668    563.79953    126457.61   -40256.006    2716.7723   -42972.779    245.58118   0.98763126 
   92900     222.8749    616.74792    126445.11   -40216.199    2772.9875   -42989.187    245.76254   0.98772889 
   93000    220.25881    640.25194    126344.12   -40242.836    2740.4383   -42983.275    246.02103    0.9885184 
   93100    224.04292    381.31153    126326.38   -40185.639    2787.5199   -42973.159    246.42567   0.98865723 
   93200    220.71224    634.83118    126240.79   -40181.914    2746.0798   -42927.994    246.14199   0.98932757 
   93300    223.12371    427.47612    126221.68   -40200.003    2776.0831   -42976.086    246.24468   0.98947731 
   93400    215.93381    478.19519    126020.39   -40219.377    2686.6271   -42906.004    246.30767   0.99105784 
   93500    214.31066    417.09236    125934.76     -40234.3     2666.432   -42900.732    246.53171    0.9917317 
   93600    214.24799    437.61107    125865.98   -40289.126    2665.6523   -42954.778    246.46387   0.99227359 
   93700    220.50279    694.83436    126001.24   -40239.927    2743.4739   -42983.401    247.00481   0.99120841 
   93800    218.51989    361.19448    126026.37   -40217.295    2718.8029   -42936.098    247.45234   0.99101079 
   93900    218.18039      546.357    126072.52   -40198.489    2714.5788   -42913.068    247.29257   0.99064804 
   94000    215.89303    318.96661    126048.16   -40204.757    2686.1198   -42890.876    247.62224   0.99083946 
   94100    217.72358     364.7025    125847.46   -40195.964    2708.8953   -42904.859    247.55927   0.99241968 
   94200    218.92161    422.03435     125670.3   -40186.156     2723.801   -42909.957    247.90402   0.99381865 
   94300    221.08038     330.1392     125580.2   -40143.719    2750.6603   -42894.379    247.66965   0.99453172 
   94400    222.54771     404.2977    125573.27   -40141.671    2768.9166   -42910.587    247.75854   0.99458662 
   94500    223.27489    653.96456    125778.37   -40096.328    2777.9642   -42874.293    248.46348   0.99296478 
   94600    224.31894    283.75114    125699.46   -40145.279    2790.9541   -42936.233    248.35931   0.99358813 
   94700    217.13444    616.94489     125710.3   -40190.574    2701.5653   -42892.139    248.28835   0.99350245 
   94800    217.20994    559.04788    125590.65   -40167.387    2702.5045   -42869.892    248.99656   0.99444896 
   94900     221.5447    364.41035    125732.08   -40127.428    2756.4373   -42883.865    249.02611   0.99333035 
   95000    218.85333    636.36533     125887.7    -40101.76    2722.9515   -42824.712    250.10654   0.99210241 
   95100    221.71828    614.31778     125756.6   -40083.627    2758.5969   -42842.223     250.6845   0.99313664 
   95200    223.66942    560.69228    125808.88    -40096.15    2782.8729   -42879.023    251.29039   0.99272398 
   95300    222.56735     622.5918    125844.33   -39998.209    2769.1609    -42767.37     251.7736   0.99244435 
   95400    223.01311    259.87823    125907.46   -40068.434    2774.7071   -42843.142     251.8822   0.99194669 
   95500      222.437     481.6058    125840.03   -40068.594    2767.5392   -42836.133    251.89887   0.99247822 
   95600    221.67748    429.39567    125555.76   -40064.866    2758.0893   -42822.956    251.05935   0.99472526 
   95700    220.47013    678.17115    125589.04   -40122.039    2743.0676   -42865.106    250.98685    0.9944617 
   95800    221.80263    459.21345    125692.98   -40148.662    2759.6464   -42908.309    251.55055   0.99363932 
   95900    223.10465    494.21624    125528.82   -40105.288     2775.846   -42881.134    252.06665   0.99493877 
   96000    220.39111     307.1915    125624.46   -40190.628    2742.0844   -42932.712    252.38754    0.9941813 
   96100     225.1564    589.81133    125530.75   -40147.179    2801.3737   -42948.552    252.63852   0.99492352 
   96200    217.58182    663.68001    125740.78   -40200.224    2707.1315   -42907.355    252.97543   0.99326162 
   96300    220.66417     431.7382    125949.03   -40163.768    2745.4818    -42909.25    253.23385   0.99161935 
   96400    218.70156    418.08789    125838.69   -40144.999    2721.0632   -42866.062    253.70228    0.9924888 
   96500    221.17324    481.61763    125744.55   -40193.869    2751.8156   -42945.684     254.0478   0.99323184 
   96600    220.18813     394.0416     125582.1    -40182.32     2739.559   -42921.879    253.95191   0.99451669 
   96700    214.31316    442.15422    125397.04    -40252.77    2666.4631   -42919.233     254.4814   0.99598433 
   96800    213.65239    464.83786    125630.78   -40297.216    2658.2419   -42955.458    254.89702    0.9941313 
   96900    216.62775    467.09367       125571   -40236.364    2695.2611   -42931.625    254.62926   0.99460454 
   97000    216.74311    548.62477    125741.79   -40247.496    2696.6964   -42944.192    255.00353   0.99325362 
   97100    216.33114    582.22067    125498.14   -40242.454    2691.5707   -42934.024    255.56419     0.995182 
   97200    217.64738    313.37975    125732.28   -40254.395    2707.9472   -42962.342    255.89924   0.99332878 
   97300    212.95076    521.37775    125620.23   -40248.333    2649.5123   -42897.845    256.03995   0.99421476 
   97400    219.62025    513.80986    126087.65   -40257.294    2732.4934   -42989.787    257.34205   0.99052917 
   97500    216.32135    380.99875    126064.82   -40163.866    2691.4489   -42855.315    257.81105   0.99070851 
   97600     220.0942    548.54124    126178.58   -40233.224    2738.3903   -42971.615    257.86503    0.9898153 
   97700    223.54692    428.56052    126168.36    -40168.74    2781.3487   -42950.089    258.23258   0.98989548 
   97800    219.22381    421.94756    126117.83   -40151.759    2727.5609    -42879.32    257.87402   0.99029213 
   97900     224.6449    663.33338    126099.89   -40100.335    2795.0097   -42895.344    257.92107   0.99043299 
   98000    222.97255    485.94357    126011.95     -40115.1    2774.2025   -42889.302    257.99193   0.99112416 
   98100    221.64723    524.83305    126120.66    -40192.55    2757.7129   -42950.263    258.55332   0.99026985 
   98200    219.34265    462.09975    125957.35   -40176.505    2729.0396   -42905.544    258.73147   0.99155382 
   98300    220.95842    470.92236    125986.87   -40198.753    2749.1428   -42947.896    259.07488   0.99132147 
   98400    218.90537    559.54426     125909.4   -40204.685     2723.599   -42928.284    259.06342   0.99193143 
   98500     217.1117    441.18934    126036.69   -40204.233    2701.2823   -42905.515    259.50026    0.9909296 
   98600    222.59314    647.73278    126147.81   -40232.779    2769.4819   -43002.261    259.98522   0.99005672 
   98700    216.49888    553.19875    126296.88   -40295.878    2693.6577   -42989.536    260.58779   0.98888815 
   98800    218.60859    583.41199    126356.62   -40284.962    2719.9065   -43004.869     260.9418   0.98842068 
   98900    215.12112    313.90921     126412.5   -40301.171    2676.5157   -42977.686    261.35429   0.98798369 
   99000    212.85627    475.40748    126422.51   -40341.846    2648.3367   -42990.183    261.59471   0.98790547 
   99100    218.40953    416.94402    126403.48   -40270.775    2717.4297   -42988.205    261.40453   0.98805422 
   99200    216.40049    557.73015    126632.15   -40263.538    2692.4335   -42955.971    261.85487   0.98627003 
   99300    221.50519    343.55423    126444.88   -40232.482    2755.9457   -42988.428    261.65399   0.98773069 
   99400     221.9812    542.52924    126326.79   -40203.919    2761.8681   -42965.787    262.34081   0.98865406 
   99500     224.4499    598.53924    126532.89   -40096.321    2792.5835   -42888.905    262.92261   0.98704367 
   99600    225.51472    428.51919    126502.64   -40135.983    2805.8319   -42941.814    263.21106   0.98727976 
   99700    226.98589    560.24624    126434.89   -40174.198     2824.136   -42998.334     263.3203   0.98780879 
   99800    220.42344    397.24957    126399.74   -40197.947    2742.4867   -42940.434    263.34801   0.98808342 
   99900    224.43614    488.65989    126367.26   -40257.291    2792.4123   -43049.703    263.22662   0.98833741 
  100000    216.52583    527.66589    126492.39   -40271.326     2693.993   -42965.319    263.72949   0.98735969 
  100100    226.89576    386.42498    126310.81    -40205.01    2823.0146   -43028.025    263.82514   0.98877914 
  100200    223.08867    565.80886    126514.06   -40205.883    2775.6472    -42981.53    263.90875    0.9871906 
  100300    221.34949    293.78094    126397.37   -40194.911    2754.0085    -42948.92    264.11892   0.98810198 
  100400    223.44814     357.3722    126316.14   -40228.069    2780.1196   -43008.189     264.1337    0.9887374 
  100500    224.03444    438.70046    126349.67    -40153.53    2787.4144   -42940.945    264.28864   0.98847503 
  100600    221.64323    386.66303    126358.76   -40235.156    2757.6632   -42992.819    264.33359    0.9884039 
  100630    222.36136    739.32186    126375.37   -40213.372     2766.598    -42979.97    264.54545   0.98827399 
Loop time of 97.273 on 6 procs for 100000 steps with 4175 atoms

Performance: 444.111 ns/day, 0.054 hours/ns, 1028.035 timesteps/s
98.8% CPU use with 6 MPI tasks x no OpenMP threads

MPI task timing breakdown:
Section |  min time  |  avg time  |  max time  |%varavg| %total
---------------------------------------------------------------
Pair    | 79.401     | 80.837     | 83.011     |  14.5 | 83.10
Neigh   | 5.1271     | 5.1614     | 5.1736     |   0.7 |  5.31
Comm    | 6.4384     | 8.6271     | 10.111     |  44.7 |  8.87
Output  | 0.15924    | 0.16007    | 0.16353    |   0.4 |  0.16
Modify  | 1.7541     | 1.7847     | 1.8079     |   1.3 |  1.83
Other   |            | 0.7023     |            |       |  0.72

Nlocal:        695.833 ave         701 max         689 min
Histogram: 1 0 0 1 0 1 0 1 1 1
Nghost:        1491.67 ave        1502 max        1480 min
Histogram: 1 0 1 0 1 0 0 1 1 1
Neighs:        0.00000 ave           0 max           0 min
Histogram: 6 0 0 0 0 0 0 0 0 0
FullNghs:      19969.3 ave       20221 max       19676 min
Histogram: 1 0 0 1 1 1 0 0 1 1

Total # of neighbors = 119816
Ave neighs/atom = 28.698443
Neighbor list builds = 5590
Dangerous builds = 0

undump              1
unfix               2
unfix               3
unfix               4


################################################
#######         Run Simulation         #########
################################################

reset_timestep      0
log                 log.run_${NAME}
log                 log.run_liquid_density_MLmW
