
# Create simulation box of size 50 x 50 x 50 Angstrom
#
lattice	            sc 1
Lattice spacing in x,y,z = 1.0000000 1.0000000 1.0000000
region 	            all block 0 50 0 50 0 50 units box
create_box          1 all
Created orthogonal box = (0.0000000 0.0000000 0.0000000) to (50.000000 50.000000 50.000000)
  1 by 1 by 1 MPI processor grid

# fill box with 4175 randomly distributed atoms
#
create_atoms        1 random 4175 63782 all
Created 4175 atoms
  create_atoms CPU = 0.002 seconds
mass                1 18.015

# Define potential
#
pair_style          sw
pair_coeff          * * ML_mW.sw mW
Reading sw potential file ML_mW.sw with DATE: 2019-02-27

# Run minimization
#
minimize            1.0e-8 1.0e-8 10000 1000
WARNING: Using 'neigh_modify every 1 delay 0 check yes' setting during minimization (../min.cpp:187)
Neighbor list info ...
  update every 1 steps, delay 0 steps, check yes
  max neighbors/atom: 2000, page size: 100000
  master list distance cutoff = 6.0032907
  ghost atom cutoff = 6.0032907
  binsize = 3.0016454, bins = 17 17 17
  1 neighbor lists, perpetual/occasional/extra = 1 0 0
  (1) pair sw, perpetual
      attributes: full, newton on
      pair build: full/bin/atomonly
      stencil: full/bin/3d
      bin: standard
Per MPI rank memory allocation (min/avg/max) = 4.759 | 4.759 | 4.759 Mbytes
Step Temp E_pair E_mol TotEng Press 
       0            0    7792709.3            0    7792709.3    5898794.3 
     631            0   -45138.185            0   -45138.185   -130.57836 
Loop time of 7.19385 on 1 procs for 631 steps with 4175 atoms

100.0% CPU use with 1 MPI tasks x no OpenMP threads

Minimization stats:
  Stopping criterion = max force evaluations
  Energy initial, next-to-last, final = 
      7792709.32924456  -45137.9104522973  -45138.1854596308
  Force two-norm initial, final = 2.0191930e+08 4.4741522
  Force max component initial, final = 1.0948746e+08 1.0165594
  Final line search alpha, max atom move = 0.045182713 0.045930911
  Iterations, force evaluations = 631 1000

MPI task timing breakdown:
Section |  min time  |  avg time  |  max time  |%varavg| %total
---------------------------------------------------------------
Pair    | 6.9341     | 6.9341     | 6.9341     |   0.0 | 96.39
Neigh   | 0.16327    | 0.16327    | 0.16327    |   0.0 |  2.27
Comm    | 0.019757   | 0.019757   | 0.019757   |   0.0 |  0.27
Output  | 0          | 0          | 0          |   0.0 |  0.00
Modify  | 0          | 0          | 0          |   0.0 |  0.00
Other   |            | 0.07667    |            |       |  1.07

Nlocal:        4175.00 ave        4175 max        4175 min
Histogram: 1 0 0 0 0 0 0 0 0 0
Nghost:        3825.00 ave        3825 max        3825 min
Histogram: 1 0 0 0 0 0 0 0 0 0
Neighs:        0.00000 ave           0 max           0 min
Histogram: 1 0 0 0 0 0 0 0 0 0
FullNghs:     119936.0 ave      119936 max      119936 min
Histogram: 1 0 0 0 0 0 0 0 0 0

Total # of neighbors = 119936
Ave neighs/atom = 28.727186
Neighbor list builds = 26
Dangerous builds = 0

# Add velocity/set timestep
#
velocity            all create ${TEMP} 120598 rot yes dist gaussian
velocity            all create 205 120598 rot yes dist gaussian
timestep            5.0

# Define output
#
compute	            1 all msd
thermo	            100
thermo_style        custom step temp press vol etotal ke pe c_1[4] density

# Neighbor lists
#
neigh_modify        delay 0 every 1 check yes

# Set fixes
#
fix                 1 all momentum 10 linear 1 1 1 rescale
fix                 2 all nve
fix                 3 all temp/csvr ${TEMP} ${TEMP} 500.0 928347
fix                 3 all temp/csvr 205 ${TEMP} 500.0 928347
fix                 3 all temp/csvr 205 205 500.0 928347
fix                 4 all press/berendsen iso ${PRES} ${PRES} 1000.0 modulus 20000
fix                 4 all press/berendsen iso -1000 ${PRES} 1000.0 modulus 20000
fix                 4 all press/berendsen iso -1000 -1000 1000.0 modulus 20000

# Run 0.5 ns equilibration
#
dump                1 all custom 1000 eq.${NAME}.dump id type x y z vx vy vz
dump                1 all custom 1000 eq.liquid_density_MLmW.dump id type x y z vx vy vz
run                 100000
Per MPI rank memory allocation (min/avg/max) = 4.009 | 4.009 | 4.009 Mbytes
Step Temp Press Volume TotEng KinEng PotEng c_1[4] Density 
     631          205    802.16775       125000   -42587.596    2550.5897   -45138.185            0   0.99914793 
     700    132.35913   -819.36177    126381.44   -41798.574    1646.7993   -43445.373   0.23162455    0.9882265 
     800    161.25123   -873.04578    126532.51   -41082.956    2006.2719   -43089.228   0.56003658   0.98704669 
     900      178.883   -697.47091    127079.45   -40649.202    2225.6446   -42874.847   0.88159762   0.98279852 
    1000    192.06578    -872.4954       127569   -40404.706    2389.6635    -42794.37    1.2352634   0.97902695 
    1100    201.80139   -843.01387    127812.81   -40248.448     2510.793   -42759.241    1.5580757   0.97715939 
    1200    201.23456    -991.1905    128165.45   -40287.273    2503.7406   -42791.014    1.8622053   0.97447079 
    1300    202.42258   -736.47853    128605.16   -40280.664    2518.5217   -42799.186    2.2670206   0.97113904 
    1400    200.57342   -988.32567    128910.02   -40315.889    2495.5147   -42811.404    2.6253833   0.96884241 
    1500    207.29336   -1063.5937     129025.1   -40297.628    2579.1235   -42876.752    2.9696471   0.96797825 
    1600    212.54254   -868.70618    129483.89    -40251.38    2644.4332   -42895.813     3.233121   0.96454851 
    1700    206.40856   -1012.9556    129565.29     -40311.3    2568.1149   -42879.415    3.4767759   0.96394251 
    1800    205.28074   -980.76989    129481.62   -40414.691    2554.0827   -42968.774    3.7250254   0.96456543 
    1900    202.74473   -926.89023    129529.88   -40431.904    2522.5298   -42954.434    3.9275636   0.96420606 
    2000    208.36472   -1014.1535    129532.19   -40409.042    2592.4532   -43001.495    4.1713463   0.96418887 
    2100    209.23868   -1059.5341    129757.56   -40384.242     2603.327   -42987.569    4.3347942   0.96251421 
    2200    210.87717   -843.07942    129656.85   -40447.325     2623.713   -43071.038    4.5087985   0.96326184 
    2300    207.60793   -895.15913     129791.9   -40476.779    2583.0373   -43059.816    4.7247881    0.9622595 
    2400    210.02449   -1006.4176    130032.11   -40518.161    2613.1039   -43131.265    4.9233809   0.96048194 
    2500    211.49573   -1024.6391    130129.22    -40496.11     2631.409   -43127.519    5.0934429   0.95976517 
    2600    213.50244   -1075.9365    130484.58   -40477.197    2656.3762   -43133.573    5.3632129   0.95715137 
    2700    211.68434   -1022.2215    130510.86   -40519.894    2633.7556    -43153.65    5.5341209   0.95695863 
    2800    213.24803    -943.4786    130687.74   -40530.951     2653.211   -43184.162    5.6463797   0.95566343 
    2900    210.07664   -929.74689     130905.4   -40621.713    2613.7528   -43235.466    5.8410055   0.95407437 
    3000    205.26059     -996.095    130980.04   -40669.878    2553.8319    -43223.71    6.0727314   0.95353073 
    3100    208.45107   -1123.4843    131164.17   -40661.415    2593.5276   -43254.943    6.2365462   0.95219214 
    3200    202.77854   -889.96661    131086.65   -40726.875    2522.9506   -43249.826     6.303073   0.95275521 
    3300    205.66131   -1103.8709    131115.54   -40755.463    2558.8177    -43314.28    6.3536799   0.95254531 
    3400     209.2362   -1040.0236    131116.68   -40807.791    2603.2961   -43411.087    6.4869895   0.95253703 
    3500    205.92571   -1000.3359    131400.61   -40827.225    2562.1073   -43389.333    6.7018818   0.95047877 
    3600    201.22652   -1102.0542    131231.04   -40886.529    2503.6405    -43390.17    6.8782879   0.95170694 
    3700    204.17952   -964.07693    131246.54   -40957.489    2540.3814    -43497.87     6.978692   0.95159455 
    3800     203.0514   -1118.6303    131283.25   -40910.753    2526.3455   -43437.099     6.944245   0.95132849 
    3900    204.42664   -1008.4148    131535.79   -40933.968     2543.456   -43477.424    7.0998313   0.94950196 
    4000    201.38616   -846.02374    131646.87    -40939.34    2505.6267   -43444.967    7.1743548   0.94870078 
    4100    207.27843   -1063.0457    131676.76   -40936.105    2578.9378   -43515.043    7.4114234   0.94848547 
    4200    204.52344   -874.33882    131809.09   -40957.521    2544.6604   -43502.181    7.6373843   0.94753324 
    4300    204.31748   -976.48798     131936.5   -40964.478    2542.0979   -43506.576    7.7093289   0.94661819 
    4400    207.99612   -901.67376    132118.71   -40970.613    2587.8672    -43558.48    7.7313286   0.94531266 
    4500    204.74508   -953.23463    132217.66   -40981.833     2547.418   -43529.251    7.7452177   0.94460522 
    4600    205.05217   -1006.9186       132136   -41047.235    2551.2388   -43598.473    7.8832873   0.94518896 
    4700    206.02799   -993.39358     132161.9    -40974.44    2563.3799    -43537.82    8.0094615   0.94500375 
    4800    204.80856   -1073.4197    132114.49   -41042.894    2548.2079   -43591.102    8.1108505   0.94534286 
    4900    209.79572   -1068.4967    132042.86    -40959.92    2610.2577   -43570.177    8.1994054   0.94585572 
    5000    206.55096     -934.887    132198.92   -40924.274    2569.8867    -43494.16    8.2531524   0.94473909 
    5100    205.25301   -1054.9638    132337.09   -40998.661    2553.7376   -43552.399    8.3607902   0.94375274 
    5200    210.35213   -939.53056    132520.59   -41064.789    2617.1804   -43681.969    8.4729463   0.94244595 
    5300    206.38406   -925.71656    132546.67   -41035.761    2567.8101   -43603.571    8.5395975   0.94226048 
    5400    203.03646   -996.82166    132560.66   -41083.657    2526.1596   -43609.816    8.7026207   0.94216107 
    5500     205.6383     -862.846    132492.28    -41076.07    2558.5314   -43634.602    8.7636569   0.94264733 
    5600    204.23122   -1078.3205    132474.68   -41089.921    2541.0246   -43630.945    8.7265558   0.94277253 
    5700    206.81645   -926.58354    132568.95   -41097.675    2573.1898   -43670.865    8.8151006   0.94210216 
    5800    205.69034   -1093.6661    132717.15   -41117.432    2559.1788    -43676.61    8.8712227   0.94105011 
    5900    201.37039   -927.89081    132801.38   -41162.081    2505.4305   -43667.512    8.9376085   0.94045325 
    6000    204.06652   -1148.8864    132930.07   -41170.588    2538.9754   -43709.563    9.0187348   0.93954281 
    6100    208.98536   -865.37731    132915.47   -41147.616    2600.1752   -43747.791     9.186924   0.93964598 
    6200    205.16101   -976.30152    132846.06   -41223.133     2552.593   -43775.726    9.2717588   0.94013695 
    6300    205.12242   -1019.7276    133053.32   -41197.904    2552.1129   -43750.017    9.4307391    0.9386725 
    6400    212.97147   -888.96917    133155.54   -41194.278      2649.77   -43844.048    9.3427463    0.9379519 
    6500    209.78733    -995.3818    133336.32   -41151.448    2610.1532   -43761.602    9.3582187   0.93668022 
    6600    202.86685   -1038.3471    133105.02   -41234.832    2524.0493   -43758.881    9.3552468   0.93830792 
    6700    203.81262   -1180.1359    133313.49   -41302.424    2535.8165    -43838.24    9.5398111   0.93684064 
    6800    204.67919   -935.62379    133184.58   -41243.007    2546.5982   -43789.605    9.6100944   0.93774741 
    6900    207.56929   -1005.6277    133139.75   -41200.289    2582.5566   -43782.846    9.5855777   0.93806316 
    7000     205.6555   -937.37139    133125.82   -41186.249    2558.7455   -43744.995     9.702964   0.93816131 
    7100    206.84458   -997.51728    133340.95    -41209.77    2573.5398   -43783.309    9.7891324   0.93664767 
    7200    202.48459   -891.26343    133343.21   -41263.669    2519.2932   -43782.962    9.8131448   0.93663177 
    7300    203.04031   -1016.0655    133421.01   -41308.637    2526.2075   -43834.844    9.8499689   0.93608563 
    7400    204.14508    -894.1117    133362.39   -41329.539     2539.953   -43869.492    9.9426511   0.93649712 
    7500    200.02846   -1077.4751    133546.09   -41309.708    2488.7343   -43798.442    9.9963117   0.93520888 
    7600    202.15639   -838.01199    133653.59   -41376.297    2515.2099   -43891.507    10.055736   0.93445669 
    7700     203.7251   -921.84137    133888.64   -41296.528    2534.7275   -43831.256      10.0759    0.9328162 
    7800    208.92073   -1167.0132    133910.68   -41286.911    2599.3711   -43886.282    10.357515   0.93266269 
    7900     204.4085   -927.60346    133937.27   -41347.277    2543.2303   -43890.507     10.37622   0.93247748 
    8000    205.81374   -990.72538    133878.21   -41341.303    2560.7142   -43902.017    10.388621   0.93288885 
    8100    204.13581   -965.60354    134001.29   -41413.014    2539.8375   -43952.851    10.325436   0.93203198 
    8200    200.70334   -1128.0105    133886.58   -41440.669    2497.1311     -43937.8    10.304913   0.93283054 
    8300     203.8061   -1028.0952    134012.24   -41445.848    2535.7354   -43981.583    10.310211   0.93195582 
    8400    203.98555   -981.11861       134061   -41402.495    2537.9681   -43940.463    10.450461   0.93161686 
    8500    208.44432   -991.32949    134172.06   -41347.041    2593.4436   -43940.484    10.551273   0.93084573 
    8600    204.93376   -918.23634    134180.12   -41382.989    2549.7655   -43932.755    10.603758   0.93078982 
    8700    203.59434   -894.64064     134073.1   -41365.147    2533.1006   -43898.248    10.656323   0.93153282 
    8800     201.9605   -1101.2805    133982.03   -41396.075    2512.7726   -43908.848    10.634247   0.93216597 
    8900    204.59279   -1057.9916    134020.39   -41462.192    2545.5232   -44007.715    10.681518   0.93189917 
    9000    201.31001   -897.91688    134121.44   -41427.809    2504.6792   -43932.488    10.643116   0.93119704 
    9100    202.81034   -1026.2121    133969.09     -41474.2    2523.3461   -43997.546    10.671334   0.93225603 
    9200    202.15275    -1035.408     134057.2   -41394.832    2515.1646   -43909.997     10.78472   0.93164328 
    9300    204.72559   -1158.6883    134038.02   -41439.768    2547.1755   -43986.944    10.797421   0.93177662 
    9400    201.73817   -1060.1971    134142.11   -41417.875    2510.0064   -43927.882    10.929723    0.9310536 
    9500    203.99114   -1013.1574    134138.54   -41426.136    2538.0376   -43964.173    10.974051   0.93107839 
    9600    207.76985   -971.73175    134165.77   -41389.973    2585.0519   -43975.025    10.941035    0.9308894 
    9700    205.35594   -989.69759    134227.25   -41328.132    2555.0182   -43883.151    10.982969     0.930463 
    9800    205.34856   -1041.7085    134354.05   -41415.069    2554.9265   -43969.995    11.003211   0.92958487 
    9900    199.42071   -1037.1157     134224.6   -41479.832    2481.1728   -43961.005    11.135935   0.93048135 
   10000    199.74765   -998.18031    134153.49   -41482.929    2485.2405   -43968.169    11.069777   0.93097459 
   10100    203.24312   -889.69623    134236.87   -41442.173    2528.7308   -43970.904    11.075294   0.93039636 
   10200    200.06764   -943.39613    134292.47   -41491.896    2489.2218   -43981.118    11.277294   0.93001113 
   10300    201.96625   -902.87851    134377.56   -41496.567    2512.8441   -44009.411    11.380703   0.92942224 
   10400    208.13109   -834.54272    134347.32   -41445.316    2589.5465   -44034.862    11.317038   0.92963141 
   10500    205.15956   -1110.6379    134373.11   -41423.479    2552.5749   -43976.054    11.338545   0.92945297 
   10600     207.6169   -993.19815    134325.04   -41379.072    2583.1489   -43962.221    11.364239   0.92978562 
   10700    206.79092   -854.28627    134358.72   -41369.733    2572.8722   -43942.606    11.309861   0.92955254 
   10800    209.83095   -873.19859    134352.14   -41361.052    2610.6959   -43971.748    11.473008   0.92959808 
   10900    206.86606   -1077.6101    134372.85   -41387.341    2573.8071   -43961.148     11.48042   0.92945479 
   11000    208.73896   -917.65036    134367.21   -41382.811    2597.1095    -43979.92    11.491001   0.92949381 
   11100    203.67929    -1097.472    134494.44   -41412.715    2534.1576   -43946.872    11.526825   0.92861453 
   11200    204.85689   -890.48548    134581.64   -41421.278    2548.8092   -43970.087    11.542163   0.92801284 
   11300    207.51689   -1079.3685    134606.34   -41432.987    2581.9046   -44014.892    11.613996   0.92784259 
   11400    206.09687   -895.28257    134504.71   -41451.662    2564.2369   -44015.899    11.799389   0.92854363 
   11500    208.80426   -955.76231    134620.41   -41472.054     2597.922   -44069.976    11.770598   0.92774561 
   11600    202.23144   -821.65306    134740.51   -41484.107    2516.1435   -44000.251    11.845634   0.92691863 
   11700    208.81089   -985.53173    134810.64    -41397.13    2598.0045   -43995.134     11.95225   0.92643646 
   11800    205.03256    -988.6181    134781.34   -41472.349    2550.9949   -44023.344    11.882347   0.92663782 
   11900    205.60691   -1013.6662    134789.87   -41489.708    2558.1408   -44047.849    11.883728   0.92657924 
   12000    206.69068   -1095.4845    134797.18   -41488.481     2571.625   -44060.106    11.858119   0.92652893 
   12100    205.74911   -916.04887    134821.57   -41461.946    2559.9101   -44021.856    11.739935   0.92636135 
   12200    204.13051   -1172.1445    134711.06   -41473.496    2539.7716   -44013.268    11.868262   0.92712129 
   12300    203.21555   -1046.4515    134650.46   -41491.507    2528.3878   -44019.895    11.952088   0.92753852 
   12400    206.02646   -891.27038     134677.8   -41483.851    2563.3608   -44047.212    11.902221   0.92735024 
   12500    202.61264   -1018.6486    134860.04    -41567.19    2520.8864   -44088.077    12.132658    0.9260971 
   12600    203.75246   -1042.8089    134941.75   -41490.934    2535.0679   -44026.002    12.156011   0.92553633 
   12700    208.71935   -1077.2856    135047.47   -41476.462    2596.8655   -44073.328     12.15258   0.92481176 
   12800    209.45276   -1020.6239    135031.73   -41459.549    2605.9905    -44065.54     12.18251   0.92491961 
   12900    206.83536   -1006.1898    134957.42   -41516.882    2573.4251   -44090.307    12.156869   0.92542883 
   13000    210.39817    -875.7213    134951.51   -41468.105    2617.7533   -44085.858    12.207116   0.92546936 
   13100    207.85902   -971.91803    135071.97   -41483.086    2586.1614   -44069.247    12.266167   0.92464406 
   13200    212.01428   -939.23323    135118.48   -41410.301    2637.8607   -44048.162    12.390219   0.92432577 
   13300    210.12314   -1021.1379    135206.04   -41460.858    2614.3313   -44075.189    12.369426   0.92372719 
   13400    207.37642    -1059.999     135196.6   -41533.399    2580.1569   -44113.556    12.376225   0.92379163 
   13500    201.85804   -986.95721    135001.43   -41569.591    2511.4978   -44081.089    12.334244   0.92512719 
   13600    204.63616   -944.22186    134857.77    -41591.09    2546.0629   -44137.153    12.456508   0.92611271 
   13700    201.97625   -1085.6437    135028.71   -41594.122    2512.9685    -44107.09    12.447125   0.92494024 
   13800    207.43828   -851.44312    134877.94   -41516.957    2580.9265   -44097.883    12.572311   0.92597421 
   13900    204.64977   -1017.5791    134939.83   -41540.876    2546.2322   -44087.108    12.528383   0.92554952 
   14000    204.70646   -1094.1358    134945.35   -41529.941    2546.9375   -44076.878    12.401699   0.92551163 
   14100    203.58533   -986.21171    135071.15   -41534.462    2532.9885    -44067.45    12.629154   0.92464963 
   14200    207.06566   -1009.0617     135178.7   -41580.792    2576.2905   -44157.082    12.791116   0.92391395 
   14300    207.62061   -989.01943    135173.52   -41625.203    2583.1951   -44208.398    12.756377   0.92394938 
   14400    202.03283   -834.25922    135124.93   -41596.126    2513.6725   -44109.798    12.789625    0.9242816 
   14500    204.65456   -1078.0337    134907.09   -41554.801    2546.2919   -44101.092    12.773742   0.92577408 
   14600    205.68985   -992.18936    134965.03   -41567.987    2559.1728    -44127.16    12.782266   0.92537671 
   14700    203.74365   -1138.1157    135004.66    -41601.92    2534.9583   -44136.878    12.680317   0.92510505 
   14800    200.99015   -1080.8069    134960.76   -41645.409    2500.6995   -44146.109    12.638942   0.92540596 
   14900    198.97933   -1018.8572    134967.58    -41716.15    2475.6812   -44191.831    12.764108   0.92535919 
   15000    201.54796   -859.87157    135067.44   -41702.218    2507.6398   -44209.858    12.881651   0.92467507 
   15100    199.35529   -947.15878    135168.73   -41722.218    2480.3588   -44202.577    12.898054   0.92398216 
   15200    202.70816   -1018.5771    135171.37   -41649.654    2522.0749   -44171.729    12.787702   0.92396408 
   15300    201.56668   -1022.3986    135246.92   -41654.052    2507.8728   -44161.924    12.790138   0.92344793 
   15400    202.73109   -869.99884    135243.67   -41635.111    2522.3602   -44157.472    12.903675   0.92347012 
   15500    205.45811   -1031.5739    135211.68   -41607.613    2556.2895   -44163.902    13.030782    0.9236886 
   15600     206.2877   -908.78527    135312.07   -41552.241    2566.6111   -44118.853    12.940118   0.92300335 
   15700    199.47496   -1096.4283    135250.82   -41635.444    2481.8477   -44117.292    12.978243   0.92342133 
   15800    199.13334   -975.57721    135245.39   -41645.588    2477.5973   -44123.185    12.971251   0.92345842 
   15900    204.49337   -1043.9141    135181.66   -41661.735    2544.2862   -44206.021    12.845853   0.92389376 
   16000     199.5376   -1116.8059    135134.42   -41607.732    2482.6271   -44090.359    13.006029   0.92421676 
   16100     206.8087   -1080.3246    135149.28   -41560.101    2573.0935   -44133.194    13.033746   0.92411508 
   16200    202.97202   -1100.9506    135041.06   -41629.133    2525.3578   -44154.491    13.132574   0.92485566 
   16300     202.1923   -1029.7788    135172.74   -41636.943    2515.6566   -44152.599     13.18765   0.92395474 
   16400    207.24571   -1015.1235    135172.33   -41555.278    2578.5307   -44133.809     13.09599   0.92395751 
   16500    202.87777    -1054.379    135090.25   -41552.668    2524.1851   -44076.853    13.167929   0.92451889 
   16600    203.76729   -1137.7159    135099.65    -41532.39    2535.2525   -44067.642    13.123966   0.92445458 
   16700    203.07625   -912.31672    135026.59     -41552.5    2526.6547   -44079.154     12.95292   0.92495477 
   16800    210.66597   -1022.3349    134989.76   -41544.634    2621.0852    -44165.72    13.030058   0.92520716 
   16900    207.86492    -954.9613    135141.53   -41506.875    2586.2347    -44093.11    13.188601   0.92416809 
   17000    211.32461   -969.38917    135311.87   -41535.331    2629.2799   -44164.611    13.176537   0.92300469 
   17100    205.99938   -1038.9394    135376.94   -41472.029    2563.0239   -44035.053    13.261293   0.92256106 
   17200    209.84376   -1086.8204    135295.05   -41492.321    2610.8553   -44103.176    13.251956   0.92311947 
   17300    209.13224   -964.23099    135289.65   -41555.205    2602.0027   -44157.207    13.240163    0.9231563 
   17400    205.80706   -1019.7535    135309.89   -41567.063    2560.6311   -44127.695    13.300724   0.92301817 
   17500    207.91575   -883.14806    135309.53   -41561.732    2586.8673   -44148.599    13.392579   0.92302067 
   17600    206.51255   -1103.6324    135360.22   -41562.951    2569.4087    -44132.36    13.368963     0.922675 
   17700    203.97903   -1005.4546    135372.66   -41577.935    2537.8869   -44115.822    13.353169   0.92259024 
   17800     207.8278   -986.79803    135374.21   -41571.063    2585.7729   -44156.836     13.37527   0.92257965 
   17900    208.04491   -966.56431       135367   -41545.062    2588.4742   -44133.536    13.468527    0.9226288 
   18000     210.8001   -995.78471    135271.19    -41494.69     2622.754   -44117.444    13.424997   0.92328224 
   18100    205.86144   -983.57378    135394.92    -41593.31    2561.3077   -44154.618    13.531337    0.9224385 
   18200    207.78509   -1029.9899    135468.15   -41600.681    2585.2416   -44185.923    13.478403    0.9219399 
   18300    212.38061   -1015.6877    135496.71   -41529.624    2642.4185   -44172.043      13.4045   0.92174558 
   18400    206.96836   -1123.6587    135298.14   -41589.682    2575.0799   -44164.762    13.501543   0.92309834 
   18500    206.91377   -940.73583    135276.44   -41562.636    2574.4006   -44137.037     13.46454   0.92324641 
   18600    207.94025   -1007.9923    135260.98    -41606.71    2587.1721   -44193.882    13.431091   0.92335194 
   18700    207.41453    -1095.267     135493.8   -41590.908    2580.6311   -44171.539    13.490194   0.92176537 
   18800    205.96978   -1063.2209    135583.24   -41560.045    2562.6557   -44122.701    13.548772   0.92115728 
   18900    206.85109   -1085.2619    135526.81   -41593.898    2573.6208   -44167.518    13.455483   0.92154083 
   19000    209.80203   -912.02277    135598.38   -41572.271    2610.3362   -44182.607     13.57816   0.92105444 
   19100     203.9674   -946.65852    135638.05   -41631.923    2537.7422   -44169.665    13.532809   0.92078506 
   19200    204.25392   -1008.9349    135632.28   -41627.447     2541.307   -44168.754    13.640004   0.92082426 
   19300    208.29524   -1175.0716    135651.69   -41557.018    2591.5887   -44148.607    13.662385   0.92069249 
   19400    206.85378   -1041.0672    135551.81   -41561.108    2573.6542   -44134.762    13.725143    0.9213709 
   19500    206.62795   -1059.4181    135481.45   -41547.378    2570.8445   -44118.223    13.816324    0.9218494 
   19600    205.58036   -951.46813    135287.37   -41584.076    2557.8105   -44141.887    13.685395   0.92317182 
   19700    206.82102   -1084.7403    135175.57   -41561.748    2573.2467   -44134.994    13.586302   0.92393536 
   19800    205.34162   -885.89149    135189.09   -41593.787    2554.8402   -44148.628    13.640152   0.92384296 
   19900    202.31502    -1116.872    135022.08   -41593.609    2517.1835   -44110.792    13.664232   0.92498567 
   20000    201.22344   -1041.6343    135267.11   -41621.677    2503.6022   -44125.279     13.77932   0.92331013 
   20100    207.92923   -1065.5686    135315.64   -41590.896    2587.0349   -44177.931    13.787978   0.92297899 
   20200     205.9682   -1011.4421    135332.57    -41628.07     2562.636   -44190.706    13.736194   0.92286348 
   20300    203.99074   -936.02098     135262.3   -41662.706    2538.0326   -44200.738    13.839745   0.92334292 
   20400    199.10095   -866.33712    135282.17   -41655.137    2477.1944   -44132.331    13.892771   0.92320733 
   20500    203.88294   -1023.7959    135450.72   -41628.103    2536.6914   -44164.794     13.94718   0.92205852 
   20600    205.18328   -1047.9324    135509.95   -41655.193      2552.87   -44208.063    13.915007   0.92165552 
   20700     206.6856   -1002.4645     135471.6   -41607.496    2571.5618   -44179.058    13.905089   0.92191644 
   20800    205.15189   -940.23715    135555.37    -41601.35    2552.4796    -44153.83    13.973142   0.92134672 
   20900    205.58268   -1062.4071    135538.52   -41643.344    2557.8394   -44201.183    14.061236   0.92146124 
   21000    202.08799   -916.24476    135330.14   -41716.854    2514.3587   -44231.213    14.080855   0.92288008 
   21100    201.52906   -953.41942    135409.45   -41738.658    2507.4046   -44246.063    14.079408   0.92233957 
   21200    202.39104   -1188.3481     135265.5   -41717.036    2518.1293   -44235.165    14.030626   0.92332111 
   21300    200.82184   -1025.7033    135274.17   -41728.467    2498.6054   -44227.073    13.901471   0.92326195 
   21400    203.60828   -881.32538    135362.29   -41693.396    2533.2741    -44226.67    14.022874   0.92266089 
   21500    205.87292   -908.68078    135393.59   -41678.723    2561.4505   -44240.173    14.132014   0.92244761 
   21600    208.76891   -1087.6251    135434.86   -41627.499    2597.4822   -44224.982        14.09   0.92216653 
   21700    208.85782   -847.07685    135524.59   -41599.955    2598.5884   -44198.544    13.954446   0.92155593 
   21800    207.92918   -1003.6841    135619.42   -41598.327    2587.0343   -44185.362    14.171092   0.92091153 
   21900      204.479   -972.65717    135633.66   -41623.668    2544.1075   -44167.776    14.285625   0.92081487 
   22000    206.65231   -1166.5567    135562.52   -41647.192    2571.1476    -44218.34     14.31241    0.9212981 
   22100     205.5074   -1001.1942    135386.19   -41589.264    2556.9028   -44146.166    14.193376   0.92249803 
   22200    205.35766   -938.47476    135498.78   -41626.319    2555.0397   -44181.359    14.102766   0.92173149 
   22300    207.21591   -1006.8958    135732.05   -41598.084    2578.1599   -44176.243    14.252556   0.92014739 
   22400     206.7958   -999.00742    135569.95   -41579.997    2572.9329    -44152.93    14.402376   0.92124757 
   22500    207.74068    -1042.119     135445.5    -41591.88     2584.689   -44176.568    14.385128   0.92209405 
   22600    206.42923    -1095.101    135400.12   -41578.844    2568.3721   -44147.216    14.301136   0.92240313 
   22700    205.89744   -952.75579    135454.76   -41577.838    2561.7556   -44139.593     14.23314   0.92203099 
   22800    207.19048   -1065.3982    135638.47   -41572.251    2577.8435   -44150.094    14.093749   0.92078225 
   22900    206.35629   -905.95837    135557.23   -41611.774    2567.4646   -44179.239    14.272642   0.92133404 
   23000    209.56968   -978.01397    135634.71   -41589.291    2607.4453   -44196.737     14.26717   0.92080778 
   23100    201.09063   -1007.3842    135698.32   -41687.866    2501.9497   -44189.816    14.417832   0.92037611 
   23200    204.66651   -1035.7021    135494.47   -41643.116    2546.4405   -44189.557     14.49199   0.92176079 
   23300    201.82197   -1088.8418    135377.95   -41677.904     2511.049   -44188.953    14.386798   0.92255415 
   23400    206.35605   -924.99995    135386.27   -41627.258    2567.4616   -44194.719    14.342129   0.92249748 
   23500    203.11048   -1064.8733     135482.7   -41643.289    2527.0805    -44170.37    14.472364   0.92184089 
   23600     205.5177   -994.53587    135556.75   -41627.711    2557.0309   -44184.742    14.496582    0.9213373 
   23700    203.74108   -984.06975    135533.56   -41653.265    2534.9264   -44188.191    14.681278   0.92149498 
   23800    197.25858   -990.97968    135604.94   -41700.766    2454.2717   -44155.038    14.758877   0.92100988 
   23900    205.80143   -1108.2536    135548.21   -41714.409     2560.561    -44274.97    14.633411   0.92139537 
   24000    205.90239   -804.79809    135654.27   -41652.793    2561.8172    -44214.61    14.618339   0.92067495 
   24100      204.358   -1009.4883    135588.57   -41656.906    2542.6021   -44199.508    14.747164   0.92112106 
   24200    203.48492   -924.23617    135479.51   -41716.616    2531.7393   -44248.355    14.640317   0.92186258 
   24300    203.50194   -978.14314    135358.02   -41686.183     2531.951   -44218.134    14.696416   0.92269001 
   24400    203.06442   -936.81004    135487.18   -41722.987    2526.5074   -44249.495    14.824869   0.92181038 
   24500     203.4366   -955.20377    135441.62   -41679.759    2531.1381   -44210.897    14.854732    0.9221205 
   24600    202.82813   -1072.8791    135506.79   -41673.255    2523.5676   -44196.822    14.864219   0.92167701 
   24700    204.42815   -1108.9484    135523.65   -41683.047    2543.4749   -44226.522    14.842327    0.9215623 
   24800    204.62629   -979.36029    135523.73   -41689.897    2545.9401   -44235.837    14.811568   0.92156178 
   24900     206.9983   -954.52051    135526.44    -41643.88    2575.4524   -44219.332    14.776498   0.92154335 
   25000    209.04032   -1104.2686    135537.62   -41632.333     2600.859   -44233.192    14.857171   0.92146737 
   25100    201.40938   -1143.1062     135501.1   -41633.506    2505.9156   -44139.421    14.854303    0.9217157 
   25200    205.91835   -906.36085    135540.03   -41671.612    2562.0158   -44233.627    14.878932   0.92145093 
   25300     206.1543   -1059.1389    135457.45    -41680.18    2564.9515   -44245.131    14.793443   0.92201273 
   25400    204.24103   -1083.7808    135523.58   -41674.818    2541.1467   -44215.964     14.93721   0.92156279 
   25500    206.51161    -1042.296    135574.97   -41640.787     2569.397   -44210.184    15.094995   0.92121351 
   25600    205.09192   -1088.8906    135600.41   -41707.826    2551.7333   -44259.559    14.938155   0.92104069 
   25700     202.1495   -1076.1777    135522.34   -41736.941     2515.124   -44252.065    14.918137   0.92157122 
   25800    203.78804   -1066.1713    135555.47   -41707.284    2535.5107   -44242.795     14.91396   0.92134599 
   25900     206.4115   -1048.8815    135557.37   -41678.287    2568.1515   -44246.438     15.01186   0.92133308 
   26000    207.40787   -880.55342    135537.69   -41611.998    2580.5482   -44192.546     15.15228   0.92146687 
   26100    205.42603   -895.62884    135640.35    -41685.18    2555.8903   -44241.071    15.185204   0.92076947 
   26200    203.72154   -840.26161    135685.93   -41683.765    2534.6833   -44218.449    15.154394   0.92046018 
   26300    206.64715   -963.86119    135655.34   -41668.193    2571.0834   -44239.276    15.023817   0.92066772 
   26400    205.69744   -1012.0145    135761.31   -41669.433    2559.2672   -44228.701    15.062341   0.91994909 
   26500    205.85743   -946.35219    135771.62   -41726.427    2561.2578   -44287.685    15.086164    0.9198792 
   26600    203.87216   -928.30663    135822.99   -41764.284    2536.5573   -44300.842    15.225369   0.91953134 
   26700    203.66066   -918.07529    135695.95   -41785.598    2533.9257   -44319.524     15.18168   0.92039219 
   26800    202.67786   -1022.6757    135736.63   -41735.363    2521.6979   -44257.061    15.180506   0.92011631 
   26900    205.72305    -863.3027    135711.31   -41728.184    2559.5859    -44287.77    15.229279   0.92028803 
   27000    204.76987   -1035.5007    135788.27   -41777.493    2547.7265   -44325.219     15.24659   0.91976641 
   27100    199.70187   -920.78658    135785.77   -41780.079    2484.6709    -44264.75    15.262984   0.91978333 
   27200    204.46383   -960.45415    135760.14   -41793.633    2543.9188   -44337.552    15.296607     0.919957 
   27300     203.6194   -875.71685    135636.74   -41812.472    2533.4124   -44345.885    15.362064   0.92079395 
   27400    205.10559   -972.85072    135634.89   -41767.787    2551.9035    -44319.69    15.342069   0.92080655 
   27500    204.30834   -1014.6885    135719.46   -41703.205    2541.9842    -44245.19    15.317734   0.92023273 
   27600    202.01074   -953.10047    135721.12   -41725.165    2513.3977   -44238.562    15.308288    0.9202215 
   27700    205.93673   -1038.9847    135643.32   -41720.612    2562.2444   -44282.856    15.427201   0.92074927 
   27800    211.07212   -1018.1051    135797.69   -41648.217    2626.1384   -44274.355     15.49339   0.91970262 
   27900    203.35585   -1011.7407    135838.56   -41683.793    2530.1334   -44213.926    15.458998    0.9194259 
   28000    208.24804   -856.30995       135739    -41742.04    2591.0016   -44333.042    15.472493   0.92010031 
   28100    204.00168   -938.49118    135895.06   -41710.306    2538.1688   -44248.475    15.617537   0.91904363 
   28200    204.60228   -1147.7057    135768.33   -41767.124    2545.6414   -44312.765    15.624697   0.91990148 
   28300    206.30877    -924.2784    135812.87   -41738.246    2566.8733   -44305.119    15.603979   0.91959985 
   28400    198.06441   -1079.2504    135877.17   -41788.384    2464.2978   -44252.682    15.625173   0.91916462 
   28500    202.17053   -939.15828    135973.83   -41800.763    2515.3857   -44316.149    15.568922   0.91851127 
   28600    204.81766   -991.69785    135936.89   -41765.378    2548.3211   -44313.699    15.472652   0.91876083 
   28700    203.20428    -1079.648    135768.29   -41775.056    2528.2475   -44303.303    15.604055    0.9199018 
   28800    203.41981   -947.85069    135678.23   -41750.119    2530.9291   -44281.048    15.744426   0.92051235 
   28900    208.42853    -941.8169    135552.21    -41721.71    2593.2471   -44314.957    15.668547   0.92136814 
   29000     206.2059   -1047.9637    135644.98   -41778.151    2565.5935   -44343.744    15.729541   0.92073803 
   29100    205.48692   -1003.5861    135564.94   -41730.615     2556.648   -44287.263    15.680692   0.92128165 
   29200    207.89739   -1022.5648    135705.88    -41684.82    2586.6388   -44271.459    15.869244   0.92032484 
   29300    204.25285   -1041.5191    135807.73   -41745.394    2541.2937   -44286.688    15.933607   0.91963465 
   29400     204.8699   -847.95946    135799.68   -41805.184    2548.9711   -44354.155    15.695615   0.91968915 
   29500    205.11997   -949.76035    135813.18   -41831.183    2552.0823   -44383.265    15.843266   0.91959772 
   29600    203.04731   -974.15778    135759.41   -41750.064    2526.2946   -44276.358    15.876202   0.91996195 
   29700    201.19871   -1024.5735    135868.04   -41786.338    2503.2945   -44289.633    16.038342   0.91922645 
   29800    203.74445   -1014.4744    136020.47   -41778.761    2534.9682   -44313.729    15.949957   0.91819629 
   29900    200.87461   -1137.4553    135861.53   -41790.399     2499.262   -44289.661    15.811776   0.91927043 
   30000    201.40904   -1048.4541    135914.42   -41769.109    2505.9114    -44275.02    15.907782   0.91891275 
   30100    204.46063   -1004.0907    135706.06   -41768.515     2543.879   -44312.394    15.947905    0.9203236 
   30200    204.99815   -968.65953    135632.57   -41779.273    2550.5667    -44329.84    16.039043   0.92082228 
   30300    206.33004    -995.8141    135687.08   -41746.109    2567.1379   -44313.247    16.106154   0.92045234 
   30400    204.71578   -1068.0742    135788.74   -41733.439    2547.0535   -44280.492    16.071114   0.91976326 
   30500    204.85131   -1093.3719    135768.01   -41742.697    2548.7397   -44291.436    16.122449    0.9199037 
   30600    204.20773   -1062.1681    135746.69   -41728.594    2540.7324   -44269.326     15.99495   0.92004817 
   30700    205.07847   -1181.4901       135635    -41750.36     2551.566   -44301.926    15.979432    0.9208058 
   30800    209.24697   -919.36579    135594.44   -41700.551    2603.4302   -44303.982    15.960832   0.92108121 
   30900    204.77314   -1032.4727    135590.19   -41808.883    2547.7671    -44356.65    15.995251   0.92111005 
   31000    203.72647   -1064.9079    135541.52   -41843.373    2534.7445   -44378.118      16.1629   0.92144082 
   31100    201.97825   -954.86762    135491.34   -41848.969    2512.9935   -44361.963    16.065273   0.92178206 
   31200     204.2872   -1027.5112    135520.56   -41861.373    2541.7211   -44403.094     16.13123   0.92158334 
   31300    204.32288   -960.09097     135635.2   -41807.986     2542.165   -44350.151    16.038821   0.92080443 
   31400    204.34466   -934.13204    135644.01   -41771.631    2542.4361   -44314.067    16.132733   0.92074464 
   31500    203.01396   -1037.5466    135498.31   -41816.693    2525.8797   -44342.573    16.152274   0.92173465 
   31600    207.47634   -872.60461    135530.32   -41756.171    2581.4001   -44337.571    16.068235   0.92151696 
   31700    204.98851   -1011.5685    135625.22   -41791.478    2550.4468   -44341.924    16.171726   0.92087215 
   31800    208.09995    -1033.042    135710.38   -41751.546     2589.159   -44340.705     16.16005   0.92029434 
   31900     207.3785   -972.98805    135633.37   -41737.175    2580.1828   -44317.358    16.335686   0.92081686 
   32000    207.62824   -981.77889    135791.23   -41737.574    2583.2901   -44320.864    16.341701   0.91974636 
   32100    205.01508   -1011.0472    135625.31   -41758.466    2550.7774   -44309.243    16.343558   0.92087154 
   32200    207.06685    -1027.302    135733.72   -41756.776    2576.3052   -44333.081    16.319684   0.92013609 
   32300    207.31858   -927.08082    135814.34   -41727.862    2579.4373   -44307.299     16.48324   0.91958987 
   32400    208.53657   -1083.5565    135723.25   -41797.845    2594.5913   -44392.437    16.331707   0.92020707 
   32500    203.80352   -1092.8196    135825.57   -41792.464    2535.7033   -44328.167    16.324945    0.9195138 
   32600    205.00423   -1086.7782    135748.06    -41741.68    2550.6424   -44292.323    16.297751   0.92003889 
   32700    204.37508   -1043.7298     135797.3   -41791.631    2542.8146   -44334.446      16.3636   0.91970528 
   32800    204.21434   -838.87695    135914.43   -41816.748    2540.8147   -44357.563    16.529032   0.91891265 
   32900    205.74214   -921.96399    135868.54   -41822.353    2559.8234   -44382.176    16.555206   0.91922303 
   33000    205.05041   -1033.2452    135820.03   -41877.993    2551.2169    -44429.21    16.483084   0.91955137 
   33100    200.75853   -898.52054    135736.12   -41811.459    2497.8178   -44309.277    16.446898   0.92011976 
   33200    204.52699   -1000.0466    135660.67   -41839.319    2544.7046   -44384.024     16.50457   0.92063156 
   33300    205.73502   -912.93012    135836.02   -41766.227    2559.7348   -44325.962    16.419723   0.91944313 
   33400    206.18293   -945.90392    135784.49   -41844.117    2565.3076   -44409.425    16.403168     0.919792 
   33500    206.19494   -1097.7612    135675.49   -41812.359    2565.4571   -44377.816     16.44924   0.92053097 
   33600    203.83924   -977.57992    135595.13    -41779.82    2536.1477   -44315.968    16.476749   0.92107651 
   33700    203.36319   -1028.5541    135608.87   -41764.151    2530.2246   -44294.376    16.425571   0.92098323 
   33800    206.48827   -1067.3137    135696.43   -41763.685    2569.1066   -44332.792    16.399932   0.92038894 
   33900    206.96887   -986.40717    135688.32   -41779.003    2575.0862   -44354.089    16.458619   0.92044394 
   34000    206.90493   -869.50247    135831.71   -41741.097    2574.2907   -44315.387     16.55139   0.91947227 
   34100    206.16747    -1097.942    135798.88   -41775.424    2565.1153   -44340.539    16.567291   0.91969459 
   34200    203.92027   -1038.0754    135686.12   -41784.183    2537.1558   -44321.339    16.488999   0.92045886 
   34300    201.62849   -968.91831    135806.14    -41836.94    2508.6417   -44345.581    16.444267   0.91964536 
   34400    206.66791   -1022.2436    135814.29   -41778.963    2571.3417   -44350.305    16.617022   0.91959021 
   34500    202.43189   -1110.9328    135712.41   -41800.694    2518.6376   -44319.332    16.707318   0.92028056 
   34600    204.44003   -893.37392    135734.62   -41780.322    2543.6226   -44323.945     16.54509   0.92012994 
   34700    197.99767   -921.49637    135821.58   -41845.125    2463.4675   -44308.592      16.5198   0.91954083 
   34800    206.76119   -1066.3835    135862.79   -41838.058    2572.5023    -44410.56     16.53424   0.91926197 
   34900    205.75015   -1062.4563    135844.98   -41836.858     2559.923   -44396.781    16.601806   0.91938247 
   35000    197.53413   -1051.3153    135834.52   -41912.374    2457.7001   -44370.074     16.70734   0.91945323 
   35100    203.01138   -999.30649    135917.43   -41850.337    2525.8475   -44376.185    16.792642   0.91889237 
   35200    206.36153   -993.83649    136133.14   -41850.385    2567.5297   -44417.914    16.812236   0.91743633 
   35300    198.09106   -971.28516    136119.28   -41834.098    2464.6294   -44298.727    16.791488   0.91752977 
   35400     203.0623   -1079.4014    136171.66   -41846.566    2526.4811   -44373.047    16.793516   0.91717686 
   35500    203.40626   -1026.1622    136193.16   -41753.989    2530.7605    -44284.75    16.712392   0.91703202 
   35600    204.53497   -1083.8124    136066.92   -41790.613    2544.8039   -44335.417    16.915526   0.91788287 
   35700    207.37756   -1014.5674    136084.29   -41764.578    2580.1711   -44344.749    17.045096   0.91776566 
   35800     204.5781   -1028.3336    136081.26   -41789.411    2545.3406   -44334.751     17.04845    0.9177861 
   35900    207.21137   -1127.9831    135929.89   -41762.501    2578.1034   -44340.605    16.909901   0.91880815 
   36000    207.72157   -959.24677    135997.78   -41734.038    2584.4512    -44318.49    16.831873   0.91834948 
   36100    206.40101   -808.90717    136047.75   -41767.957    2568.0209   -44335.977    16.832642   0.91801216 
   36200    206.19284   -1019.8241    136094.86   -41794.584    2565.4309   -44360.015    16.878484   0.91769437 
   36300    205.81757   -973.69482    136021.91   -41853.693    2560.7618   -44414.455    16.955157    0.9181866 
   36400    202.76896   -996.32829    135993.49   -41807.405    2522.8314   -44330.237    16.993539   0.91837847 
   36500    203.69861   -964.80895    136030.44   -41786.968     2534.398   -44321.366    17.090233   0.91812899 
   36600    200.32226   -1057.3923    135849.76   -41909.104    2492.3897   -44401.494    16.915341    0.9193501 
   36700    204.52312   -1063.9274    135879.02   -41857.228    2544.6564   -44401.885    16.850001   0.91915214 
   36800    203.96606   -974.33701    135712.77   -41861.061    2537.7255   -44398.786    16.885121   0.92027808 
   36900    203.93419   -1067.3919    135756.94   -41863.797    2537.3291   -44401.126    16.944186   0.91997865 
   37000    206.02494   -983.27307    135796.44   -41803.644    2563.3419   -44366.986    16.861051   0.91971111 
   37100    206.46262   -981.03541    135808.09   -41802.238    2568.7876   -44371.026    16.979014   0.91963216 
   37200    204.41529   -1072.1992    135779.33   -41851.379    2543.3148   -44394.694    17.082243   0.91982696 
   37300     203.2319   -1053.0556    135846.33   -41856.443    2528.5912   -44385.034    17.032068   0.91937332 
   37400    200.97103   -1019.2176    135655.47   -41888.271    2500.4617   -44388.733     17.01964   0.92066684 
   37500    202.99286   -1047.3985    135622.69    -41894.88    2525.6171   -44420.497    16.986252   0.92088933 
   37600    205.38408   -910.30265    135667.72   -41852.088    2555.3684   -44407.457    17.032458   0.92058368 
   37700    203.68479   -989.54945    135770.44    -41861.15     2534.226   -44395.376    17.070163   0.91988718 
   37800    200.06876   -946.00292    135782.62    -41951.11    2489.2357   -44440.346    16.910709   0.91980467 
   37900    201.17775   -990.80441    135885.56   -41902.528    2503.0337   -44405.561    16.959994   0.91910788 
   38000    207.51408   -1033.5726       135880   -41874.801    2581.8697    -44456.67    16.976589   0.91914548 
   38100    207.88297   -1045.1645    136088.93   -41825.028    2586.4593   -44411.487    17.042576    0.9177344 
   38200    207.35778   -1012.7254    136109.89    -41838.21     2579.925   -44418.135    17.070621   0.91759307 
   38300    207.04552   -949.41459     135988.2   -41784.964    2576.0398   -44361.003    17.018112   0.91841419 
   38400     204.0849    -1061.405    135804.55   -41843.487    2539.2041   -44382.691    17.008899   0.91965617 
   38500    201.10218   -1067.5599    135924.41     -41849.8    2502.0935   -44351.894    17.059873    0.9188452 
   38600    203.36781   -1020.1982    135934.96   -41798.681    2530.2821   -44328.963    17.151613   0.91877385 
   38700    206.71848   -1034.8192    135931.77   -41815.569    2571.9709    -44387.54    17.122202   0.91879542 
   38800    205.15513   -868.10766    136017.77   -41837.693    2552.5198   -44390.213    17.084656   0.91821451 
   38900    204.23962   -945.34526    136099.68   -41795.761    2541.1292    -44336.89    17.048996   0.91766189 
   39000    204.35644   -816.48229    136108.14   -41828.819    2542.5827   -44371.402    17.087245   0.91760489 
   39100    207.99304   -988.39585    136057.49   -41800.149    2587.8288   -44387.977    17.197896   0.91794646 
   39200    205.68254   -1048.8611    136032.26   -41822.082    2559.0818   -44381.164    17.253325   0.91811669 
   39300    209.89891   -1025.5918     136069.7   -41816.386    2611.5415   -44427.927     17.09763   0.91786411 
   39400    208.32944   -1129.9942     136157.2   -41794.216    2592.0143   -44386.231    17.222819   0.91727426 
   39500    205.08932   -1173.8038    136168.73   -41774.261     2551.701   -44325.962    17.274852   0.91719657 
   39600     206.1249   -952.88499    136136.18   -41808.378    2564.5856   -44372.964    17.234444    0.9174159 
   39700    207.08714   -1040.8623     136028.6   -41767.364    2576.5577   -44343.922    17.141294   0.91814138 
   39800    204.43579   -959.72127    135858.42   -41823.023    2543.5699   -44366.592    17.171984   0.91929153 
   39900    202.80618   -948.56852    135932.11   -41861.275    2523.2944    -44384.57    17.239979   0.91879316 
   40000    199.06667   -934.55155    136041.17   -41871.342    2476.7678    -44348.11     17.35088   0.91805657 
   40100    204.24281   -1039.1355    136081.07   -41780.552    2541.1689   -44321.721    17.463434   0.91778738 
   40200     203.3273   -1017.3784    136144.03   -41798.872    2529.7782   -44328.651    17.354387   0.91736296 
   40300    205.26795   -1083.5404    136161.18    -41792.41    2553.9235   -44346.333    17.281548   0.91724741 
   40400    205.77322    -876.4413    136220.35   -41710.652    2560.2101   -44270.862    17.291352     0.916849 
   40500    206.17343   -991.52944    136183.72   -41727.016    2565.1895   -44292.206    17.373672   0.91709561 
   40600    209.75287   -1118.6008    136098.12   -41780.278    2609.7245   -44390.002    17.400673    0.9176724 
   40700    205.39749   -1091.1034    135956.79   -41833.662    2555.5353   -44389.198    17.216367   0.91862634 
   40800    205.94929   -940.88534    136126.32   -41873.939    2562.4008    -44436.34     17.33432   0.91748228 
   40900    205.68819   -921.34525    136073.59   -41901.095    2559.1521   -44460.247    17.193914   0.91783787 
   41000    203.54403   -1078.2734    136092.01   -41827.605    2532.4747    -44360.08    17.244309   0.91771362 
   41100    205.43265   -964.25483    136235.86   -41807.203    2555.9728   -44363.176     17.27392   0.91674461 
   41200    205.06186   -1018.1372     136165.5   -41821.249    2551.3594   -44372.609    17.366133   0.91721831 
   41300    201.79134   -880.65462    136103.28   -41960.173    2510.6679   -44470.841    17.528731    0.9176376 
   41400    201.09515   -1013.5584    136127.18   -41928.243    2502.0059   -44430.249    17.525909   0.91747655 
   41500    201.41735    -1031.924    136064.05   -41921.944    2506.0147   -44427.959    17.432578   0.91790217 
   41600    206.43728   -1033.0874    136054.01   -41881.989    2568.4722   -44450.462    17.430169   0.91796995 
   41700    205.41489   -906.36072    136114.98   -41859.325    2555.7517   -44415.077    17.370175   0.91755875 
   41800    203.26195   -1007.0269    136185.89   -41871.666    2528.9651   -44400.631    17.514889   0.91708101 
   41900    207.91584   -1133.3317    136314.92    -41864.13    2586.8684   -44450.999    17.528107   0.91621293 
   42000    204.92569   -990.65553    136198.25   -41865.336    2549.6652   -44415.001    17.444111   0.91699774 
   42100    204.73239   -1014.2664    136360.85   -41849.224    2547.2601   -44396.484    17.531767   0.91590434 
   42200    209.31062   -1011.4578    136360.56   -41805.398     2604.222    -44409.62    17.391381   0.91590628 
   42300    207.07467   -916.58605     136560.9    -41787.27    2576.4025   -44363.673    17.448907   0.91456261 
   42400    204.33609   -1069.6684     136416.9   -41820.699    2542.3294   -44363.028    17.467335   0.91552799 
   42500    212.10858   -1027.6778    136496.42   -41819.747     2639.034   -44458.781    17.516879   0.91499463 
   42600    206.01059    -994.9023    136517.34   -41836.278    2563.1634   -44399.442    17.554812   0.91485441 
   42700    206.25012   -1163.3919    136382.11   -41838.257    2566.1436     -44404.4    17.645063   0.91576152 
   42800    204.86723    -1069.745    136360.53   -41809.286    2548.9378   -44358.224    17.574357   0.91590644 
   42900    201.46167   -858.80451    136491.43   -41878.911    2506.5661   -44385.477    17.655588   0.91502811 
   43000    204.65963   -970.73052    136494.88   -41910.377    2546.3549   -44456.732    17.543275   0.91500494 
   43100    205.19043   -1056.2912    136478.34   -41894.419     2552.959   -44447.378     17.46053   0.91511584 
   43200    207.61977   -1009.0119    136486.74   -41854.632    2583.1846   -44437.817    17.428514    0.9150595 
   43300    207.43755   -975.76795    136625.88   -41869.856    2580.9175   -44450.773    17.529831   0.91412761 
   43400    206.60717    -1005.644    136667.18   -41827.837     2570.586   -44398.423     17.62043   0.91385135 
   43500    208.09659   -990.05131    136593.47   -41840.234    2589.1173   -44429.352     17.62832   0.91434452 
   43600    209.21807   -996.79432    136811.51    -41756.11    2603.0705   -44359.181    17.602021   0.91288728 
   43700    211.64581   -1079.6645    136719.48   -41784.903    2633.2763   -44418.179    17.625649   0.91350183 
   43800    207.28113    -1101.862    136655.14   -41809.793    2578.9713   -44388.764       17.588   0.91393188 
   43900     205.0706   -999.86505    136486.39   -41850.682    2551.4681    -44402.15    17.564342   0.91506184 
   44000    203.68568   -921.60794    136542.56   -41865.276    2534.2371   -44399.513    17.704624   0.91468547 
   44100    204.68897   -1058.7459    136532.04   -41886.347    2546.7199   -44433.067     17.68108   0.91475591 
   44200    209.04457   -1003.0392    136541.09   -41914.966    2600.9118   -44515.878    17.652923   0.91469526 
   44300    205.00886   -1024.8702    136679.35   -41922.611       2550.7   -44473.311    17.701148      0.91377 
   44400    205.01813   -1051.2895    136667.03   -41884.155    2550.8153    -44434.97    17.679316   0.91385238 
   44500    201.69786   -895.24309    136594.25   -41923.065    2509.5048    -44432.57    17.687713    0.9143393 
   44600    205.71605   -1124.8599    136572.29    -41970.98    2559.4988   -44530.479        17.67   0.91448635 
   44700    203.32292   -1016.9171    136392.79   -41946.084    2529.7236   -44475.808    17.699874   0.91568983 
   44800    205.98642    -980.6591    136530.92   -41912.024    2562.8627   -44474.887    17.676503   0.91476341 
   44900     206.6483   -990.62836    136489.04   -41873.638    2571.0978   -44444.735    17.642863    0.9150441 
   45000     205.3328   -906.97056    136616.73   -41860.072    2554.7303   -44414.802    17.813679   0.91418888 
   45100     210.8306   -943.89408    136659.87   -41826.861    2623.1335   -44449.995    17.726851   0.91390024 
   45200    207.73158   -1008.7505    136698.78    -41896.14    2584.5758   -44480.716    17.776618    0.9136401 
   45300    206.04894   -1025.8531    136706.05   -41894.833    2563.6406   -44458.474    17.811566   0.91359153 
   45400    204.03569   -904.77997    136592.47   -41887.948    2538.5918   -44426.539    17.826896   0.91435119 
   45500    205.27002   -925.99851    136622.87   -41895.435    2553.9492   -44449.385    17.795188   0.91414773 
   45600    206.17001   -929.47757     136690.3   -41893.003    2565.1468   -44458.149    17.839951   0.91369683 
   45700    205.52338   -1047.2025    136595.52   -41902.871    2557.1016   -44459.973    17.806159   0.91433083 
   45800    208.07088   -1008.9158    136656.66   -41868.325    2588.7973   -44457.122    17.848422   0.91392171 
   45900    212.57371   -1125.7508    136682.67   -41813.058    2644.8211   -44457.879    17.872754   0.91374785 
   46000    207.93688   -973.25476    136804.81   -41798.434    2587.1301   -44385.564     17.86632   0.91293199 
   46100    209.81795   -1087.1301    136683.39   -41762.272    2610.5342   -44372.806    17.928027     0.913743 
   46200    211.54728   -862.01125    136692.25   -41755.412    2632.0504   -44387.462    17.888139   0.91368379 
   46300    210.13654   -993.39763     136700.5   -41776.104     2614.498   -44390.602    17.994714    0.9136286 
   46400    205.47895   -1033.9175    136653.66   -41812.873    2556.5488   -44369.422    18.010527   0.91394181 
   46500    204.87006   -940.86003    136798.12   -41820.814    2548.9731   -44369.787    17.957507   0.91297664 
   46600    209.94152   -1062.6204    136605.63   -41822.711    2612.0716   -44434.783    17.877333   0.91426314 
   46700    202.85043   -1065.3829    136760.13   -41898.064    2523.8451   -44421.909    17.983452   0.91323029 
   46800     204.1898   -973.72412    136763.76   -41943.858    2540.5094   -44484.368    17.943157   0.91320604 
   46900    204.38799   -985.66559    136802.46    -41883.59    2542.9751   -44426.566     17.84779   0.91294772 
   47000    206.36463   -991.46663    136552.03   -41865.109    2567.5683   -44432.677    17.903117   0.91462199 
   47100    208.25758   -901.93547    136570.46   -41850.075    2591.1202   -44441.195      17.9673    0.9144986 
   47200     207.5176   -866.99544    136650.63   -41892.881    2581.9135   -44474.794    18.051022   0.91396205 
   47300    203.20055   -1003.1134    136541.94    -41910.95    2528.2012   -44439.151    18.094759   0.91468962 
   47400    203.32618   -1056.6669    136658.66   -41862.555    2529.7642   -44392.319    18.004382   0.91390838 
   47500    207.05255   -975.81289    136701.71    -41806.81    2576.1274   -44382.937    18.095787   0.91362054 
   47600    212.46049   -1096.4691    136622.21    -41773.29    2643.4124   -44416.703     18.01236   0.91415221 
   47700    208.75096   -971.92468    136669.12   -41815.437    2597.2588   -44412.696    18.001861   0.91383841 
   47800      208.263   -1028.4194    136787.49   -41827.134    2591.1877   -44418.322    18.038465   0.91304764 
   47900    202.73038   -999.12075    136604.42   -41905.958    2522.3513   -44428.309    18.098252   0.91427122 
   48000    203.44977    -929.1288    136528.92    -41919.48    2531.3019   -44450.782    18.099192   0.91477684 
   48100    206.23541   -1063.7934    136488.51   -41889.296    2565.9606   -44455.257    18.076991   0.91504762 
   48200    204.36642   -994.26601    136610.35   -41928.223    2542.7068   -44470.929     18.11744   0.91423153 
   48300    205.55491   -1035.4667    136474.07   -41917.189    2557.4939   -44474.683    17.956352   0.91514445 
   48400    209.20598   -971.42727    136496.72   -41846.418    2602.9201   -44449.338    17.939042   0.91499259 
   48500    206.72327   -921.46382    136489.25   -41897.686    2572.0305   -44469.716    18.102912   0.91504272 
   48600    207.13726   -911.15669    136579.63   -41884.177    2577.1813   -44461.358    18.209507    0.9144372 
   48700    208.27553   -1026.4554    136572.32   -41863.282    2591.3435   -44454.626    18.064667   0.91448615 
   48800    202.91726   -1050.1896    136521.61   -41888.239    2524.6765   -44412.916     18.01925   0.91482582 
   48900    209.13863   -1068.3586    136492.04   -41880.987    2602.0822   -44483.069    18.031568   0.91502398 
   49000    202.50899   -1089.2263    136370.12   -41925.048    2519.5969   -44444.645    17.948472   0.91584206 
   49100    202.30927   -1031.9511    136415.53   -41919.627     2517.112   -44436.739    17.965544   0.91553721 
   49200    206.60885   -1067.1075     136444.6   -41927.342    2570.6069   -44497.949    18.010503   0.91534217 
   49300    203.54549   -1009.1662    136442.92   -41881.994    2532.4928   -44414.487    18.144472   0.91535339 
   49400    210.00436      -1040.7    136364.03    -41844.45    2612.8534   -44457.303    18.010576   0.91588293 
   49500    207.25511   -1135.4514    136333.66   -41882.031    2578.6476   -44460.678    18.120644   0.91608698 
   49600    209.31482   -927.29269    136414.12   -41872.958    2604.2744   -44477.232    17.858209   0.91554666 
   49700    210.17652   -969.02042    136391.88   -41898.883    2614.9955   -44513.878    17.888465   0.91569597 
   49800    205.92169   -1033.3908    136442.56   -41941.896    2562.0573   -44503.953    17.982672   0.91535583 
   49900    205.83517   -1058.7773    136412.09   -41845.077    2560.9808   -44406.057    18.046835    0.9155603 
   50000    205.10803   -1042.4295    136373.69   -41888.581    2551.9338   -44440.514    18.052512    0.9158181 
   50100    208.53401   -952.08905    136477.89   -41890.577    2594.5596   -44485.137    18.183547   0.91511887 
   50200    201.34657   -1108.8643    136398.76   -41932.585    2505.1341   -44437.719    18.038673   0.91564974 
   50300    203.46432    -959.4343    136376.91   -41917.709    2531.4829   -44449.192    17.999813   0.91579643 
   50400    201.83227   -1050.3457    136372.27   -41937.752    2511.1772   -44448.929    17.931311   0.91582764 
   50500     202.8047   -996.19886    136361.13    -41973.15    2523.2761   -44496.426    18.058803   0.91590243 
   50600    202.71504   -1030.5371    136256.97   -41982.757    2522.1604   -44504.918    18.237808   0.91660259 
   50700      202.437   -1023.0352    136306.14   -41973.944    2518.7012   -44492.645    18.301824   0.91627197 
   50800    204.78438   -1091.2014    136269.24   -41966.924     2547.907   -44514.831    18.224697   0.91652006 
   50900    202.19859   -930.02472     136349.5   -41896.354    2515.7349   -44412.089    18.130315   0.91598053 
   51000    203.94025   -1072.0666     136363.2   -41921.666    2537.4045   -44459.071    18.251073   0.91588852 
   51100    201.14468   -1013.7198    136266.62   -41951.584    2502.6222   -44454.206    18.272105   0.91653771 
   51200    201.64071   -913.26593    136473.46   -41910.665    2508.7938   -44419.459    18.193055    0.9151486 
   51300    201.61561   -1033.2792    136527.81   -41979.862    2508.4815   -44488.343    18.345519   0.91478423 
   51400    202.21405   -958.21984       136520   -41981.069    2515.9273   -44496.996    18.424762   0.91483662 
   51500    201.77912   -1033.1382       136409   -41985.276    2510.5158   -44495.792    18.399572   0.91558099 
   51600    203.71267   -1115.2898    136365.42   -41923.151    2534.5729   -44457.724    18.286529   0.91587359 
   51700    205.20053   -981.37912    136392.53   -41921.611    2553.0847   -44474.696    18.230992   0.91569157 
   51800    203.98101    -971.1081    136301.21   -41962.068    2537.9115   -44499.979    18.274173   0.91630506 
   51900    203.53252   -1003.9692    136299.02    -42013.95    2532.3314   -44546.282    18.244299   0.91631982 
   52000    203.15989    -952.8289    136343.67   -42033.602    2527.6953   -44561.297    18.363814    0.9160197 
   52100    205.99775    -983.7103    136405.64   -41973.581    2563.0036   -44536.584    18.343779   0.91560357 
   52200    201.19071   -1165.8558    136368.08   -41988.716    2503.1949   -44491.911    18.335932   0.91585574 
   52300    206.48432   -1076.9216    136399.22   -41977.846    2569.0575   -44546.904    18.385961   0.91564669 
   52400    201.90048   -1068.8812    136343.32   -41937.535    2512.0258   -44449.561    18.440382   0.91602204 
   52500    204.29285   -1010.7055    136405.44   -41923.424    2541.7915   -44465.216    18.397376   0.91560493 
   52600    206.87288    -1131.527    136488.39   -41944.763     2573.892   -44518.655    18.284595   0.91504846 
   52700    203.20648   -931.98637    136447.07    -41959.66     2528.275   -44487.935    18.378113   0.91532559 
   52800    206.38668   -1012.6715    136564.13   -41930.277    2567.8427    -44498.12     18.38052     0.914541 
   52900    203.58629    -1018.044    136617.35   -41924.547    2533.0005   -44457.548    18.391804   0.91418473 
   53000    209.74255   -923.06418    136541.47   -41906.123    2609.5961   -44515.719    18.385921   0.91469272 
   53100    208.30281   -984.24659     136391.5   -41951.353     2591.683   -44543.036    18.433739   0.91569852 
   53200    201.57088   -992.00001    136306.81   -41940.043     2507.925   -44447.968    18.371669   0.91626746 
   53300    206.21666   -1062.3947    136384.05   -41926.107    2565.7272   -44491.834    18.356953   0.91574852 
   53400    201.75883   -983.71655    136351.01   -42006.244    2510.2634   -44516.508    18.437026    0.9159704 
   53500    202.49299   -1061.9916    136469.18     -42006.6    2519.3978   -44525.998    18.535508   0.91517727 
   53600    201.23333     -993.389    136517.05   -42015.031    2503.7252   -44518.756     18.45926   0.91485635 
   53700    200.67354   -1030.7629    136516.08   -42036.786    2496.7604   -44533.546     18.53353   0.91486287 
   53800    209.30414   -1025.0941    136489.63   -41927.278    2604.1415   -44531.419    18.482649   0.91504016 
   53900    204.89821   -1018.0524    136510.32   -41991.266    2549.3233   -44540.589    18.468834   0.91490143 
   54000    208.02082    -990.4362    136358.07    -41967.13    2588.1745   -44555.304    18.349869     0.915923 
   54100    207.54472   -992.18708    136418.26   -41972.913    2582.2508   -44555.164    18.449863   0.91551885 
   54200    207.73953   -1049.2596    136312.09   -41955.504    2584.6747   -44540.179    18.388299   0.91623196 
   54300    204.63901   -927.03268    136350.59   -41922.373    2546.0983   -44468.472    18.497795   0.91597325 
   54400    201.72676   -1033.4939    136401.77    -41961.14    2509.8644   -44471.004     18.51972   0.91562957 
   54500    204.39318   -951.45932    136366.59   -41960.835    2543.0397   -44503.875    18.578147   0.91586575 
   54600    210.03537   -818.62621    136455.73   -41876.848    2613.2393   -44490.087    18.512026   0.91526747 
   54700    207.86584   -1016.5848    136485.76   -41898.825    2586.2462   -44485.071    18.567428   0.91506612 
   54800    209.29548   -993.71497    136546.08    -41960.94    2604.0337   -44564.973    18.631989   0.91466183 
   54900       201.03   -1058.0161    136441.45   -42012.727    2501.1954   -44513.922    18.598532   0.91536328 
   55000    202.75517   -1097.6298    136475.61   -42067.405    2522.6598   -44590.065    18.534962   0.91513417 
   55100    204.93442   -922.96746    136446.73   -42027.216    2549.7738    -44576.99    18.517528   0.91532781 
   55200    203.73715   -1014.8349    136375.86   -42040.391    2534.8774   -44575.268    18.559446   0.91580349 
   55300    202.76913   -1060.5508    136434.04   -41983.088    2522.8335   -44505.922    18.607689   0.91541296 
   55400    205.42564   -1032.3059    136549.05   -41967.719    2555.8856   -44523.605    18.585617   0.91464194 
   55500    203.75884   -846.14474    136472.35   -41919.971    2535.1474   -44455.118    18.532523   0.91515598 
   55600    203.44982    -1104.973    136523.71   -41949.242    2531.3025   -44480.545    18.544699   0.91481171 
   55700    205.64928   -1104.6387    136488.22   -41954.836    2558.6681   -44513.505    18.627876    0.9150496 
   55800    202.61358   -1076.2313    136435.98   -41962.443    2520.8982   -44483.341    18.627395   0.91539993 
   55900    204.95572   -991.71159    136528.48   -41920.879    2550.0388   -44470.918    18.548822   0.91477974 
   56000    205.54431   -1087.2603    136500.88   -41928.353     2557.362   -44485.715     18.71055   0.91496475 
   56100    207.55617    -966.7663    136456.97   -41901.973    2582.3933   -44484.366    18.658298   0.91525914 
   56200    206.20937   -951.87511    136475.13   -41908.153    2565.6366   -44473.789    18.775982   0.91513738 
   56300    208.82239    -1033.222    136462.58   -41945.885    2598.1475   -44544.032     18.79485   0.91522153 
   56400    204.51283   -994.35556    136537.26   -41932.878    2544.5284   -44477.406    18.773074   0.91472093 
   56500    204.02639   -995.91228    136558.12   -42013.665    2538.4761   -44552.141    18.659238   0.91458124 
   56600    202.65138   -1042.4449    136503.41   -42036.124    2521.3684   -44557.493    18.684925   0.91494775 
   56700    203.41382   -929.28144    136576.28   -42066.728    2530.8546   -44597.583    18.793323   0.91445961 
   56800    208.64148   -989.45707    136636.11   -42006.422    2595.8967   -44602.319     18.79437   0.91405922 
   56900    206.91538   -977.98746     136539.8   -41982.427    2574.4207   -44556.847     18.85021   0.91470396 
   57000    206.51052    -1102.749    136515.25   -41939.385    2569.3834   -44508.769    18.786918   0.91486843 
   57100    207.10908   -1002.5808    136580.02   -41974.679    2576.8306    -44551.51    18.781238   0.91443454 
   57200    203.28112   -996.71042    136603.76   -42021.353    2529.2037   -44550.556    18.684503   0.91427565 
   57300    203.99931   -961.88802     136446.2   -42072.044    2538.1393   -44610.184    18.779406    0.9153314 
   57400    203.97737   -979.67552    136365.62   -42066.005    2537.8663   -44603.872    18.625654   0.91587229 
   57500     201.3989     -1019.75    136350.47   -42103.794    2505.7852    -44609.58    18.644943   0.91597403 
   57600    200.69884   -992.63617    136302.67   -42072.208    2497.0751   -44569.283    18.659332   0.91629529 
   57700    198.42248   -1050.9288    136357.49   -42108.881    2468.7529   -44577.633    18.642988   0.91592687 
   57800     199.5346   -1064.6848    136449.74   -42128.193    2482.5897   -44610.782      18.8364   0.91530766 
   57900    204.05307   -1016.8718    136505.14    -42106.52    2538.8081   -44645.328    18.642317   0.91493619 
   58000    200.80487   -1004.5595    136494.32   -42097.812    2498.3943   -44596.207    18.775737   0.91500869 
   58100    202.65417   -979.01546     136362.2   -42044.879    2521.4032   -44566.283    18.793342   0.91589522 
   58200    204.77766    -1022.581    136415.74    -41997.45    2547.8234   -44545.274    18.617983   0.91553575 
   58300    206.04607   -1014.3254    136516.51     -41933.7    2563.6048   -44497.305    18.602863   0.91485995 
   58400    206.80736   -974.10028    136371.94   -41954.161    2573.0767   -44527.238    18.781493   0.91582985 
   58500    206.23222   -901.77056    136430.96   -41942.844    2565.9209   -44508.765     18.86844   0.91543368 
   58600    206.25677   -979.33828    136524.19   -41914.261    2566.2263   -44480.487    18.854192   0.91480853 
   58700    207.08812   -1026.1644    136585.16   -41924.974    2576.5699   -44501.544    18.921743   0.91440017 
   58800    202.16995   -1039.7941    136494.42   -41972.414    2515.3785   -44487.793    18.922998   0.91500806 
   58900    204.18533   -944.33206    136483.97    -42005.31    2540.4537   -44545.764    18.918886   0.91507811 
   59000    204.08454   -996.31102    136555.33   -41997.608    2539.1997   -44536.807    18.785467   0.91459988 
   59100    203.96223   -1033.4113    136554.96   -41988.244    2537.6778   -44525.921     18.79476   0.91460235 
   59200    206.99661   -910.39169    136698.03   -41988.197    2575.4314   -44563.629    18.920356   0.91364512 
   59300    203.26909   -1087.6057    136632.18   -41982.307     2529.054   -44511.361    19.039118   0.91408549 
   59400    202.53638   -1060.1605    136486.16   -42029.452    2519.9377    -44549.39    18.926727   0.91506343 
   59500    203.89607   -978.44921    136455.12   -41993.518    2536.8547   -44530.373    18.943408   0.91527155 
   59600    203.69059   -1003.9079    136528.88   -41994.982    2534.2982   -44529.281    18.907259   0.91477706 
   59700    202.58777   -920.29122    136591.85   -42012.042     2520.577   -44532.619    18.815774   0.91435537 
   59800    202.84942   -955.57161    136563.59   -42009.275    2523.8325   -44533.108    18.989464   0.91454457 
   59900     202.5087   -1149.8414     136439.8   -41994.617    2519.5932    -44514.21    19.042604   0.91537436 
   60000    203.63232   -964.37729    136507.02   -42027.084    2533.5732   -44560.658     19.03197   0.91492357 
   60100    205.76386   -1109.6406    136431.43   -41991.508    2560.0936   -44551.602    19.005077   0.91543051 
   60200    205.21522   -1024.6125    136380.96   -41967.191    2553.2674   -44520.459    18.996598   0.91576926 
   60300    203.75864   -1035.1506    136466.06   -41927.812    2535.1449   -44462.956    18.974852   0.91519821 
   60400    210.60564   -1017.5616    136427.38   -41879.584    2620.3346   -44499.919    18.988379   0.91545769 
   60500    205.06276   -963.59212    136430.59   -41923.433    2551.3706   -44474.803    19.140977   0.91543611 
   60600    208.31211   -913.52151    136496.79   -41970.425    2591.7987   -44562.224    19.033421   0.91499213 
   60700    206.69892   -917.30164    136465.09   -41999.998    2571.7275   -44571.726    19.070076   0.91520471 
   60800    204.38727   -920.03337       136505   -41952.498    2542.9662   -44495.464    19.080545   0.91493714 
   60900    205.93903   -1019.5761    136613.38   -41947.365     2562.273   -44509.638    19.233987   0.91421125 
   61000    202.09804   -882.23226    136615.94   -41981.704    2514.4839   -44496.188    19.011683   0.91419412 
   61100    204.11763   -771.70164    136509.13   -42014.028    2539.6114    -44553.64    18.964776   0.91490943 
   61200    205.90483   -1038.2796    136584.51   -42007.518    2561.8476   -44569.366     19.01932   0.91440449 
   61300    205.05032   -993.60206    136388.24   -41993.619    2551.2159   -44544.835    19.143258   0.91572041 
   61400    205.25721   -1058.2965    136369.16   -42019.138      2553.79   -44572.928    19.097543   0.91584851 
   61500    207.22339   -937.41795     136432.4   -42032.572    2578.2529   -44610.825    19.214763   0.91542401 
   61600     204.8537   -1059.1291    136441.22   -41998.523    2548.7695   -44547.293    19.185866   0.91536483 
   61700    200.40123   -928.12347    136425.66   -42074.897    2493.3723   -44568.269    19.172364   0.91546918 
   61800    201.71457   -1035.4248       136359   -42135.603    2509.7128   -44645.316    19.172131   0.91591673 
   61900    203.27111    -1047.519    136373.01   -42069.219    2529.0791   -44598.298     19.14692   0.91582266 
   62000    203.94809   -1001.1446    136160.67   -42036.303     2537.502   -44573.805    19.159759   0.91725088 
   62100    206.50285     -956.858    136189.92   -42038.627     2569.288   -44607.915     19.14057   0.91705388 
   62200     205.0204    -960.0849    136279.05   -41989.648    2550.8436   -44540.491    19.045589    0.9164541 
   62300    205.14605   -942.17185    136120.24   -42027.098    2552.4069   -44579.505    19.069621   0.91752329 
   62400     204.7562   -994.81817    136245.38   -41983.487    2547.5564   -44531.043    19.133266   0.91668059 
   62500    208.76556   -1037.9215    136362.83   -41988.775    2597.4405   -44586.215    19.262604     0.915891 
   62600    206.54207    -1003.701    136251.06   -41996.634     2569.776    -44566.41    19.100715   0.91664237 
   62700    203.77006   -1085.1493    136119.89   -42036.537     2535.287   -44571.824    19.105461   0.91752567 
   62800    206.37372    -1106.622    136183.06    -42012.04    2567.6814   -44579.722    19.158692   0.91710007 
   62900    208.29494   -1004.8867    136316.69   -41960.826     2591.585   -44552.411    19.233544   0.91620105 
   63000    207.75971   -826.08475    136409.44   -41931.376    2584.9258   -44516.302    19.276994   0.91557807 
   63100    208.22484   -888.83699    136416.57   -41922.175    2590.7128   -44512.888    19.288202   0.91553019 
   63200    207.01218    -975.2827    136434.27    -41966.43    2575.6251   -44542.055    19.270709   0.91541145 
   63300    207.39665    -937.2998    136338.27   -42002.309    2580.4087   -44582.718    19.160012   0.91605604 
   63400    207.11376   -1049.8479     136408.7   -41914.844     2576.889   -44491.733    19.215197   0.91558302 
   63500    204.65599   -994.77843    136358.95   -41991.634    2546.3096   -44537.944    19.157392   0.91591708 
   63600     206.0293   -1018.9145    136380.39    -41985.94    2563.3961   -44549.337    19.147414   0.91577308 
   63700    203.37485   -1045.1198    136540.56   -41986.997    2530.3698   -44517.367    19.289709    0.9146988 
   63800    198.27854   -1022.7392    136469.49   -42077.828     2466.962    -44544.79    19.285602   0.91517519 
   63900    199.33988   -957.57462    136471.46   -42057.602    2480.1671   -44537.769    19.377239   0.91516196 
   64000    202.83209   -1018.5522    136510.34   -42047.856    2523.6168   -44571.473    19.242593   0.91490134 
   64100    206.09137   -940.10802    136473.54   -41973.111    2564.1685   -44537.279    19.242335   0.91514801 
   64200    204.34557   -885.23249     136430.8   -41967.808    2542.4474   -44510.255    19.334676   0.91543469 
   64300    205.31544   -1048.6033    136507.67   -41889.418    2554.5145   -44443.933    19.292602   0.91491923 
   64400    210.66617   -1003.6822    136608.47   -41909.892    2621.0876    -44530.98     19.32494   0.91424416 
   64500    209.65706   -1021.1582    136598.53    -41907.33    2608.5324   -44515.862    19.308249   0.91431066 
   64600     206.2763   -999.72971    136511.75   -41950.955    2566.4693   -44517.424    19.319755   0.91489185 
   64700    205.88412   -1104.2322    136505.46    -41976.47    2561.5898   -44538.059    19.440084   0.91493406 
   64800     208.2754   -985.59732    136535.92   -41981.298    2591.3419    -44572.64    19.413532   0.91472995 
   64900    207.58167   -923.06494    136449.79   -41965.565    2582.7106   -44548.276    19.279858    0.9153073 
   65000    204.92605   -1041.9353    136543.89   -41930.344    2549.6696   -44480.013    19.320633   0.91467655 
   65100    205.91442   -975.97245    136593.71   -41964.732    2561.9669   -44526.699    19.331243    0.9143429 
   65200    203.85379   -944.51384    136643.13   -41959.558    2536.3287   -44495.886    19.282159   0.91401224 
   65300    206.05673   -843.34988    136579.31   -41953.784    2563.7375   -44517.521    19.407269   0.91443933 
   65400    207.80408   -1081.5688    136548.76   -41894.204    2585.4778   -44479.682     19.46873   0.91464388 
   65500    205.23102   -1011.8116    136537.96   -41968.463    2553.4641   -44521.927    19.423173   0.91471622 
   65600    205.50268   -1048.3002    136492.65   -42004.484     2556.844   -44561.328    19.405814   0.91501993 
   65700    201.86145   -916.21816    136442.34   -42037.241    2511.5402   -44548.782    19.415246   0.91535733 
   65800    204.10869   -947.59229    136364.49   -42040.071    2539.5001   -44579.571    19.385435   0.91587985 
   65900    203.11298   -912.45151    136507.58   -42011.571    2527.1116   -44538.682    19.346363   0.91491986 
   66000    206.20696   -998.50536    136507.16   -41919.751    2565.6067   -44485.357    19.411961   0.91492262 
   66100    205.25057   -1076.6775    136456.97   -41884.407    2553.7073   -44438.114    19.506352   0.91525916 
   66200    210.02697   -1066.5608    136480.61   -41843.845    2613.1348    -44456.98    19.451959   0.91510063 
   66300    206.64841   -1061.2677    136406.67   -41890.187    2571.0991   -44461.286    19.374974   0.91559663 
   66400    204.43077   -1085.9459    136461.22     -41928.3    2543.5074   -44471.807    19.542439   0.91523063 
   66500     206.9252    -973.0771    136632.97    -41951.01    2574.5429   -44525.553    19.437074   0.91408017 
   66600    208.27948   -956.23778    136554.73   -41984.809    2591.3927   -44576.202    19.418943   0.91460395 
   66700    204.05851   -1039.8567    136517.92   -42009.744    2538.8758    -44548.62    19.486807   0.91485052 
   66800    208.65862   -966.26155    136570.83   -41944.967    2596.1099   -44541.077    19.620324   0.91449609 
[...]
   84600    202.99144   -985.99803    136885.13   -42121.261    2525.5994    -44646.86    20.643286   0.91239633 
   84700     203.3175    -1018.201    136808.22   -42144.025    2529.6563   -44673.681    20.752587   0.91290926 
   84800    199.96097   -1048.2659    136668.35   -42105.034    2487.8946   -44592.929    20.815081   0.91384359 
   84900    202.40623   -963.16094    136664.51   -42081.118    2518.3183   -44599.436    20.632951    0.9138692 
   85000    205.16291   -968.96514    136668.89   -42040.878    2552.6166   -44593.495    20.811557   0.91383995 
   85100    205.04696   -1092.1153    136742.15   -42043.288     2551.174   -44594.462    20.748917   0.91335036 
   85200    204.02106    -891.5135    136745.24   -42049.824    2538.4099   -44588.234    20.804974   0.91332974 
   85300    203.35136   -959.11243    136799.01   -42078.561    2530.0776   -44608.638    20.707847    0.9129707 
   85400    203.38131   -960.70963    136760.45   -42072.459    2530.4501   -44602.909     20.61138   0.91322813 
   85500    203.19698   -981.45794    136884.52   -42052.606    2528.1568   -44580.763    20.685783   0.91240037 
   85600    204.81627   -1106.9628    136898.84    -42030.17    2548.3038   -44578.474    20.895355   0.91230494 
   85700    210.31368    -989.9173    136832.24   -42070.509    2616.7021   -44687.211    20.833079   0.91274901 
   85800      203.611   -928.03844    136689.83   -42074.859     2533.308   -44608.167    20.692128   0.91369997 
   85900    206.99395   -917.95409    136844.96   -41980.075    2575.3983   -44555.473    20.857451   0.91266415 
   86000    206.74682   -936.80244    136891.24   -42029.887    2572.3235   -44602.211    20.795247   0.91235559 
   86100    208.04004   -944.61963    136792.98   -42023.338    2588.4136   -44611.752    20.778954   0.91301099 
   86200     203.7515    -982.5025    136745.47    -41981.14     2535.056   -44516.197     20.83115   0.91332817 
   86300    204.07724   -1028.9493    136730.48   -42016.762    2539.1089   -44555.871    20.773934   0.91342832 
   86400    204.01657   -923.17114    136778.66   -42031.207     2538.354   -44569.561    20.739299   0.91310658 
   86500    207.70049   -1003.5353    136814.41   -42024.014    2584.1889   -44608.203    20.861137   0.91286796 
   86600    203.76893   -851.68035    136810.62   -41975.621    2535.2729   -44510.894    20.835454   0.91289323 
   86700    207.32629   -1009.1454    136811.26   -41979.111    2579.5332   -44558.644    20.751164     0.912889 
   86800    205.61608   -997.72136     136810.3   -42041.456    2558.2549   -44599.711    20.804793    0.9128954 
   86900    209.91377   -1069.4944    136797.41   -42010.223    2611.7264    -44621.95    20.840483   0.91298139 
   87000    204.14175   -1042.2725    136681.03   -42023.564    2539.9115   -44563.475    20.914738   0.91375876 
   87100    209.38424   -933.71918    136706.03   -42042.492     2605.138    -44647.63    20.867166   0.91359166 
   87200    206.31035   -1032.2532    136769.81   -42053.541     2566.893   -44620.434    20.814132   0.91316564 
   87300    209.45579   -913.50684    136767.17   -42055.153    2606.0282   -44661.181    20.760416   0.91318325 
   87400    202.92993   -1064.6958    136714.63   -42073.765    2524.8341   -44598.599    20.849122   0.91353424 
   87500    204.88686   -1044.5548    136662.77    -42081.84     2549.182   -44631.022    20.840195   0.91388085 
   87600    206.43335   -1022.7995    136747.71   -42078.001    2568.4234   -44646.424    20.850682   0.91331319 
   87700     202.8689   -898.54007    136882.33    -42089.51    2524.0747   -44613.585    20.844234   0.91241501 
   87800    203.49437   -995.46906    136698.86   -42067.724    2531.8569    -44599.58    20.863014   0.91363958 
   87900    201.01147   -1067.7139    136761.87   -42089.828    2500.9649   -44590.793    20.934568   0.91321865 
   88000    202.60136    -1060.544    136754.38   -42105.646    2520.7462   -44626.392    20.806163   0.91326864 
   88100    203.25479   -926.47695    136826.72   -42039.768     2528.876   -44568.644    20.619545    0.9127858 
   88200    207.39607   -1052.6775    136884.06   -42011.137    2580.4015   -44591.538    20.858583    0.9124035 
   88300    207.30751   -991.33931    136691.12   -42054.245    2579.2995   -44633.545    20.912459    0.9136913 
   88400    202.88511   -878.28675    136734.96   -42149.614    2524.2765    -44673.89    20.866928   0.91339835 
   88500    206.83117   -1074.7408    136851.09   -42074.009     2573.373   -44647.382    20.907158   0.91262329 
   88600    203.79489   -964.71691    136836.87   -42016.925    2535.5958   -44552.521    20.793559   0.91271812 
   88700    209.19661   -993.14877    136805.41   -41999.266    2602.8036   -44602.069    20.775305   0.91292799 
   88800    208.82577   -988.11762    136674.45   -41944.757    2598.1896   -44542.947    20.822276   0.91380278 
   88900    207.85817   -1019.2924    136793.77   -41987.696    2586.1509   -44573.847    20.888474   0.91300573 
   89000    208.37129   -1080.1978    136809.03   -41980.894     2592.535   -44573.429    20.925807   0.91290386 
   89100    204.46616   -969.73944    136691.88   -42068.613    2543.9478   -44612.561    20.921667   0.91368622 
   89200    205.40618   -949.56485    136824.37    -42089.17    2555.6433   -44644.813    20.996471   0.91280151 
   89300    202.62859   -1019.7322    136974.36   -42120.667    2521.0848   -44641.752    20.904106   0.91180199 
   89400    200.83277   -1044.7681    137072.05    -42152.49    2498.7414   -44651.231    20.769997   0.91115213 
   89500    198.70527   -1076.4866    137038.81   -42179.846    2472.2713   -44652.117    20.910679   0.91137313 
   89600    198.94458   -1047.8692    137111.47   -42220.502    2475.2488   -44695.751      20.9748    0.9108902 
   89700    197.67759     -1127.37     137051.7   -42176.878     2459.485   -44636.363    20.955254   0.91128745 
   89800    200.44275   -1029.5323    136860.63   -42146.087    2493.8889   -44639.976    20.849953   0.91255967 
   89900    200.18861   -1005.9275     136844.8   -42204.775    2490.7269   -44695.502    20.777905   0.91266526 
   90000    201.77618   -991.34632    137002.47   -42109.387    2510.4792   -44619.867    20.865888   0.91161492 
   90100    203.52288   -987.99103    137007.76   -42124.901    2532.2115   -44657.113    20.798386    0.9115797 
   90200    202.59326   -961.27575    136944.43   -42157.286    2520.6453   -44677.931    20.805431   0.91200122 
   90300    202.70886   -935.98895    136904.04   -42167.237    2522.0835    -44689.32    20.791849   0.91227029 
   90400    202.50162   -983.52403    136886.13   -42164.485    2519.5051    -44683.99    20.927702   0.91238967 
   90500    205.01063   -1109.2604    136802.18   -42122.142     2550.722   -44672.864    20.953535   0.91294955 
   90600    206.48163   -1030.1751    136707.32   -42049.404     2569.024   -44618.428    20.810569   0.91358307 
   90700    206.16801   -929.65567    136631.82   -42045.684     2565.122   -44610.806     20.78068    0.9140879 
   90800    204.47706   -891.33577    136736.45    -42090.36    2544.0833   -44634.443    20.840919   0.91338842 
   90900     200.3389   -1083.8578    136761.01   -42158.646    2492.5968   -44651.243    20.960724   0.91322443 
   91000    199.95153   -976.99658    136616.67   -42178.584    2487.7772   -44666.361     20.83385   0.91418925 
   91100    200.05795   -937.06697    136585.34   -42160.387    2489.1013   -44649.488    20.685605   0.91439893 
   91200    201.12197   -998.40326    136821.61   -42111.239    2502.3397   -44613.579    20.723475    0.9128199 
   91300    204.36619    -1037.707    136933.17     -42019.6    2542.7039   -44562.303    20.846521   0.91207625 
   91400    204.67318   -999.32897    136964.67   -41997.243    2546.5234   -44543.767    20.947196   0.91186647 
   91500     204.5584   -1128.3183    136959.54   -42014.382    2545.0954   -44559.478    20.927772   0.91190062 
   91600    203.81678   -1050.9771    136993.37   -42049.405    2535.8682   -44585.273    21.002871   0.91167544 
   91700     199.8368   -990.23171     136911.1   -42120.989    2486.3497   -44607.339    20.961835   0.91222325 
   91800    205.39163    -982.1708    136937.66   -42089.694    2555.4623   -44645.157    20.919522   0.91204634 
   91900    206.16392   -1007.4557    136896.43   -42090.486    2565.0711   -44655.557    20.793048   0.91232103 
   92000    205.74641   -1018.1552    136885.77   -42106.201    2559.8765   -44666.077    20.856704   0.91239207 
   92100     205.1685   -982.84999    136836.46   -42155.618    2552.6863   -44708.304    20.933988   0.91272083 
   92200    205.39151   -1022.6958    136787.11   -42077.406    2555.4608   -44632.867    20.900043   0.91305014 
   92300    203.29618   -1029.6202    136793.42   -42013.266     2529.391   -44542.657    20.918543   0.91300806 
   92400    207.36445   -1041.9308     136744.7   -42014.834     2580.008   -44594.842    20.852649   0.91333329 
   92500    206.61639   -1033.2687    136783.22   -42054.288    2570.7007   -44624.988    20.947195   0.91307612 
   92600    205.62589   -995.03966    136818.77    -42038.47    2558.3769   -44596.847    20.882283   0.91283887 
   92700     209.5329   -887.01304    136987.89   -42035.876    2606.9877   -44642.863    20.906604   0.91171194 
   92800    200.45755   -978.23577    136925.37   -42077.403     2494.073   -44571.476    21.013681   0.91212817 
   92900    206.48091   -942.88579    136897.61   -42036.565    2569.0151    -44605.58    20.866129   0.91231313 
   93000    206.46676    -1012.817     136977.6    -42067.97     2568.839   -44636.809    20.970658   0.91178041 
   93100    204.13217   -939.16595       137076   -42010.911    2539.7923   -44550.703    20.983559   0.91112586 
   93200    209.36197   -929.59003    137131.08   -42038.279     2604.861    -44643.14    21.093245   0.91075995 
   93300    203.77324    -1083.113     137105.4    -42065.23    2535.3265   -44600.556    20.935611   0.91093049 
   93400     201.1764   -980.61972    136990.24   -42093.087    2503.0169   -44596.104    20.844671   0.91169625 
   93500    200.65257   -917.58076    136751.89   -42127.007    2496.4994   -44623.507    20.843013   0.91328529 
   93600    198.28924   -981.61565    136752.47   -42193.933    2467.0951   -44661.028    20.933195   0.91328141 
   93700    202.48417    -1006.706    136829.65   -42155.738    2519.2881   -44675.026    20.922948   0.91276627 
   93800    204.38945   -813.62336    136789.98   -42109.502    2542.9933   -44652.495      20.9606   0.91303097 
   93900    203.44885   -936.88301    136873.58   -42101.026    2531.2905   -44632.317    20.957866   0.91247336 
   94000    207.86482   -1039.4688    136842.47    -42116.81    2586.2335   -44703.044    20.999755   0.91268076 
   94100    202.10005   -1118.5814    136815.08   -42117.347    2514.5088   -44631.856    20.847686   0.91286352 
   94200    203.75237   -833.29625    136868.78   -42081.988    2535.0668   -44617.054    20.933917   0.91250532 
   94300    204.06629   -1050.6562    136981.48   -42050.073    2538.9726   -44589.045    21.087601   0.91175455 
   94400    206.10209   -926.76549    136940.28   -42038.552    2564.3018   -44602.854    21.049165   0.91202887 
   94500    205.45626   -1015.2274    137019.43   -41989.059    2556.2665   -44545.326    20.938941   0.91150206 
   94600    204.21021   -967.43769    136997.13   -42028.127    2540.7633   -44568.891    21.039718   0.91165045 
   94700    207.67699   -1107.6559    136882.69   -42070.028    2583.8966   -44653.924    20.943117    0.9124126 
   94800    206.24054   -1009.3782    136982.08   -42058.538    2566.0244   -44624.563    20.958112   0.91175056 
   94900     205.8444   -1038.7651    136909.56   -42044.445    2561.0957   -44605.541    20.911643   0.91223355 
   95000    206.65909   -979.48241    136929.16   -42029.653     2571.232   -44600.885    21.011583   0.91210295 
   95100    207.59044   -1020.8011     136928.7   -42028.735    2582.8198   -44611.554    21.184408   0.91210602 
   95200    205.52454   -1022.5632    136968.39   -42045.576     2557.116   -44602.692    21.040579    0.9118417 
   95300     210.6469   -958.52869    137063.24   -41946.069    2620.8479   -44566.917     20.99557   0.91121071 
   95400    205.89092   -1064.2543    136863.29   -42023.285    2561.6744   -44584.959    20.929972   0.91254194 
   95500    206.32921    -901.0951    136894.91   -42023.812    2567.1276   -44590.939    20.970985   0.91233116 
   95600    212.06587   -1033.7199    136937.87   -42020.358    2638.5026   -44658.861    20.994333   0.91204491 
   95700    204.26027   -899.27929    136992.07   -42081.333    2541.3861    -44622.72    21.122225   0.91168408 
   95800    201.66434   -1030.3671    137053.55   -42129.905    2509.0877   -44638.993    21.044209   0.91127511 
   95900    210.40147   -975.68771    137071.97   -42078.398    2617.7943   -44696.193    21.102444   0.91115264 
   96000    204.34724     -1013.53    137170.82   -42151.781    2542.4681   -44694.249    20.970442   0.91049604 
   96100    204.97939   -1131.8105    137045.37   -42112.115    2550.3333   -44662.449    21.061593    0.9113295 
   96200    206.01371   -995.23962    137049.11   -42157.798    2563.2022       -44721    20.944978   0.91130464 
   96300    203.72082   -1024.6051    137139.71   -42104.825    2534.6743   -44639.499    21.023668   0.91070261 
   96400    203.88396   -1007.1501    137181.63   -42084.151     2536.704   -44620.855    21.074322    0.9104243 
   96500    205.31355   -907.24167    137149.27   -42124.152    2554.4909   -44678.643    21.094454   0.91063912 
   96600     203.8337   -1048.4904     137107.3   -42133.299    2536.0787   -44669.378    21.037457   0.91091789 
   96700    200.33272   -1000.5034    137125.01   -42202.344    2492.5199   -44694.863    21.040595   0.91080026 
   96800    201.12335   -871.87405    137115.25   -42242.456    2502.3568   -44744.813    20.965013   0.91086505 
   96900    204.32934   -1123.3856    137170.86    -42173.48    2542.2455   -44715.726    21.055334   0.91049577 
   97000    204.66205   -988.42296    137167.15   -42195.494     2546.385   -44741.879    21.080886    0.9105204 
   97100    200.80555   -951.02028    137231.25    -42181.61    2498.4028   -44680.013    21.022515   0.91009511 
   97200     201.0315   -947.30254    137207.68   -42197.453    2501.2141   -44698.667    21.118948   0.91025144 
   97300    200.25748    -1024.545    137201.84    -42188.75    2491.5838   -44680.333    21.097514   0.91029018 
   97400    201.32471   -1047.7358     137119.3   -42196.711    2504.8621   -44701.573    21.107087   0.91083814 
   97500    207.21619   -968.97251    137067.89   -42106.498    2578.1634   -44684.662    21.173625   0.91117977 
   97600    201.07033   -1052.7573    137058.96   -42173.745    2501.6972   -44675.443    21.051744   0.91123914 
   97700    204.17465   -1102.3091    137154.07   -42114.405    2540.3208   -44654.726    21.106498   0.91060726 
   97800    206.45568   -993.32348    137112.61   -42083.652    2568.7011   -44652.353    21.053242   0.91088263 
   97900    206.71911   -1009.6047     137167.8   -42045.425    2571.9788   -44617.403    21.043601    0.9105161 
   98000    207.51345   -932.35601    137150.08   -42071.748    2581.8618    -44653.61    21.023959   0.91063375 
   98100    202.89812   -966.97598    137251.99   -42149.464    2524.4383   -44673.903    21.062314   0.90995757 
   98200    209.50734   -1069.9726    137343.26   -42125.754    2606.6696   -44732.424    21.168302   0.90935289 
   98300    202.49652    -983.0184    137263.96   -42145.377    2519.4417   -44664.819    21.130696   0.90987823 
   98400    204.24155   -1021.2361     137172.7   -42148.896    2541.1532   -44690.049    21.095045    0.9104836 
   98500    201.58327   -916.77489    137170.39   -42163.725    2508.0791   -44671.805    21.156884   0.91049891 
   98600    198.96315   -1100.6746    137107.87   -42191.384    2475.4799   -44666.864    21.048806   0.91091409 
   98700    198.39197   -1037.9662    137130.65   -42222.676    2468.3733   -44691.049    21.185604   0.91076276 
   98800    200.70483   -1079.1365    137033.93   -42187.093    2497.1496   -44684.243     21.06587   0.91140558 
   98900    203.59195    -996.9047    137070.22    -42201.28    2533.0709   -44734.351    21.071038    0.9111643 
   99000    201.74483   -986.66046    136925.42   -42227.535    2510.0892   -44737.625    21.101331   0.91212784 
   99100    201.96322   -1017.8419    137012.96   -42157.832    2512.8064   -44670.638    21.178563   0.91154511 
   99200    200.75199   -1050.9889    136893.46   -42141.579    2497.7364   -44639.315    21.117639   0.91234085 
   99300    203.38065   -967.90136    136977.81   -42097.503    2530.4419   -44627.945     20.98097   0.91177898 
   99400    206.09401    -1081.498    136995.69   -42075.367    2564.2013   -44639.568     21.03846   0.91166001 
   99500    209.59408   -965.18685    136944.97   -41968.124    2607.7488   -44575.872    21.197711   0.91199763 
   99600    205.59178   -937.66406    137015.41   -42011.584    2557.9525   -44569.536    21.327977   0.91152876 
   99700    210.44853   -1040.7185    136959.44    -42016.15    2618.3798    -44634.53    21.147499   0.91190131 
   99800    209.45137   -1020.7969    137094.77    -42041.82    2605.9733   -44647.793    21.079368   0.91100113 
   99900    202.56475    -950.7877    136961.41   -42091.451    2520.2906   -44611.742     21.02262   0.91188821 
  100000    204.89581   -944.69951    137001.17   -42088.665    2549.2934   -44637.958    21.061572   0.91162353 
  100100    210.83685   -883.68136    137094.61   -42040.434    2623.2113   -44663.646    21.167129   0.91100222 
  100200    208.82126   -1045.8438    137032.72   -42038.082    2598.1334   -44636.215    21.113291   0.91141362 
  100300    207.36225   -976.98337    136989.73   -42042.982    2579.9806   -44622.963     21.26029   0.91169965 
  100400    207.31088    -1048.823    136896.46   -42073.245    2579.3415   -44652.586    21.221926   0.91232082 
  100500    212.18789   -973.67413     137037.7    -42004.27    2640.0208    -44644.29    21.163782   0.91138051 
  100600    207.59186   -1011.2606    137029.28   -42079.699    2582.8374   -44662.536    21.286902    0.9114365 
  100631    208.34243   -870.32201    137122.91   -42070.128    2592.1759   -44662.304    21.221002   0.91081416 
Loop time of 417.101 on 1 procs for 100000 steps with 4175 atoms

Performance: 103.572 ns/day, 0.232 hours/ns, 239.750 timesteps/s
100.0% CPU use with 1 MPI tasks x no OpenMP threads

MPI task timing breakdown:
Section |  min time  |  avg time  |  max time  |%varavg| %total
---------------------------------------------------------------
Pair    | 374.85     | 374.85     | 374.85     |   0.0 | 89.87
Neigh   | 29.89      | 29.89      | 29.89      |   0.0 |  7.17
Comm    | 1.9726     | 1.9726     | 1.9726     |   0.0 |  0.47
Output  | 0.88337    | 0.88337    | 0.88337    |   0.0 |  0.21
Modify  | 8.0589     | 8.0589     | 8.0589     |   0.0 |  1.93
Other   |            | 1.442      |            |       |  0.35

Nlocal:        4175.00 ave        4175 max        4175 min
Histogram: 1 0 0 0 0 0 0 0 0 0
Nghost:        3650.00 ave        3650 max        3650 min
Histogram: 1 0 0 0 0 0 0 0 0 0
Neighs:        0.00000 ave           0 max           0 min
Histogram: 1 0 0 0 0 0 0 0 0 0
FullNghs:     111018.0 ave      111018 max      111018 min
Histogram: 1 0 0 0 0 0 0 0 0 0

Total # of neighbors = 111018
Ave neighs/atom = 26.591138
Neighbor list builds = 5057
Dangerous builds = 0

undump              1
unfix               2
unfix               3
unfix               4


################################################
#######         Run Simulation         #########
################################################

reset_timestep      0
log                 log.run_${NAME}
log                 log.run_liquid_density_MLmW
