LAMMPS data file via write_data, version 29 Oct 2020, timestep = 800000

4175 atoms
1 atom types

-0.29510096940945374 50.29510096940511 xlo xhi
-0.29510096940945374 50.29510096940511 ylo yhi
-0.29510096940945374 50.29510096940511 zlo zhi

Masses

1 18.015

Atoms # atomic

1388 1 2.6230250284884726 0.6309976385004322 2.2108366205150913 1 0 0
3565 1 5.64614720044773 3.8121535697912696 4.009563269538279 1 1 1
1072 1 39.54800724193279 20.38519030369884 -0.13330452172177623 0 -1 1
1565 1 43.167225503194516 15.162476744937992 0.1285709077550149 0 0 1
3020 1 13.546545743474054 1.6449627526702673 2.84312986131812 0 1 0
3312 1 11.99426749408541 1.5002058058499437 0.32251042581373757 0 1 1
247 1 0.6645331616731108 15.499816279747378 0.4632996559352969 1 0 0
1487 1 17.41462081985761 -0.17261904139919682 1.4995366738883278 0 0 1
999 1 37.664017454863675 24.876573460680543 5.0470865077676725 0 0 1
1987 1 29.42155978222002 1.6917428337087987 0.5624753662860379 0 0 0
2522 1 36.570845277423494 1.9234502729823668 2.589456340894123 0 0 0
3683 1 40.42021580645361 0.6542999392352327 0.5677887191903572 0 0 0
2567 1 2.5574765460857254 2.470355036703624 -0.0704000253076828 1 1 0
485 1 1.5934510041088608 4.6234055569239345 1.4563047309416033 1 0 0
1483 1 9.059100654167679 3.287944498607335 1.5104161999423347 0 0 1
2214 1 5.332302987640655 16.71257570804569 0.8925025342825395 1 0 0
1245 1 11.688697348367848 4.354472620551354 0.3921234523497139 0 0 0
2322 1 15.233535102694756 3.918255351212532 2.79268332992534 0 1 0
2352 1 18.352537076327565 2.7170313234111347 2.7835477413047176 0 1 0
636 1 20.557648664001793 4.762796880717355 2.237136196461041 0 0 0
2929 1 23.67995372949291 3.8616973533752503 2.8598282863634017 0 1 0
3482 1 2.780778411858281 24.923562878835074 5.120006849206911 0 1 0
4013 1 25.59352362563788 5.682205977128334 2.4307657700670053 0 0 1
4012 1 26.225596088713857 4.902284423821354 -0.15244781810573313 -1 0 0
1947 1 30.264364578318656 4.671282855471671 3.100565149816749 -1 0 1
4022 1 46.53794324426729 7.665685602223483 1.6689582235518758 -1 1 1
4152 1 33.944273272627115 3.1878963668577125 2.4522359307624098 0 1 1
1891 1 35.64240718513549 -0.16981988436643708 10.126853249273388 0 1 1
2295 1 37.110932202587996 6.206100597462683 1.4167356260689996 0 1 0
2373 1 38.4874137329637 3.773997543808573 1.767559055516084 0 1 0
2506 1 40.81100745627713 4.55815577578446 2.9113200939264523 0 0 0
3258 1 42.009404850757335 5.664688872355846 0.8062231284277623 0 1 0
1463 1 45.49711147392286 3.1880365579485113 1.1438169114693018 0 0 1
933 1 9.161228928856145 24.91960375442234 5.622059716445689 0 0 1
3905 1 48.16538947450443 3.58987423877117 0.8889930426806054 0 0 1
4148 1 2.384332369598201 9.029007489015493 0.8462568489018185 1 0 1
926 1 6.0276258648536345 6.747665027439686 1.6989264056380642 1 0 1
1367 1 7.98765439175429 7.029689871727942 3.5690798007489684 0 0 0
2655 1 13.141935894838525 5.479892868588076 2.396918227614495 0 1 0
2344 1 13.367910968632247 8.062510395074087 2.2338343569747594 0 0 0
991 1 19.869907821530433 7.108671553467538 3.502697358863779 1 0 0
1428 1 22.329411179397916 8.47741927962182 0.2888194282737948 0 0 0
1791 1 24.465379888443017 8.24260774773108 2.1122558239625215 0 0 1
1213 1 31.108136764438846 7.171059888115346 4.047678081612435 -1 0 0
997 1 48.65928468388809 24.829261889464448 6.486067115321901 0 0 0
286 1 34.567024148444446 5.8807274561149345 2.134199627713181 -1 0 0
435 1 38.75178973736551 8.199816232009871 2.8710034236841575 0 0 1
3712 1 41.104279982595514 8.387262920415049 1.2784498952072556 0 0 1
985 1 19.27860368753927 24.54033587282367 3.180556146699072 0 0 1
3501 1 49.33487506182944 7.613382428009374 1.296548430521165 -1 1 0
2998 1 0.03457393058454722 10.146144327697625 1.744789629686938 0 0 0
3952 1 3.9307492861485533 11.048979458390507 2.1347375161390976 0 1 1
2919 1 5.863554444355964 9.340564984248307 0.5794440021495825 1 1 0
4140 1 8.038879316849789 10.752025989820101 1.0796679999816825 1 0 0
1655 1 11.38720797650418 9.236798797608005 3.8365115191535146 0 0 1
1551 1 19.990620078447026 22.76046857753233 -0.255941654467869 0 -1 1
2389 1 17.408723139058438 9.234911818837087 0.7633502681091162 0 1 0
584 1 20.078490881995712 9.344890778576874 1.6525020128463237 0 0 1
1429 1 20.777315737571268 11.349362595267593 3.391726866225067 0 0 1
3933 1 24.908982540223718 12.508233661810545 2.0365089527747586 0 0 1
802 1 26.065135037374123 9.978684940903 1.072135885874675 0 0 0
1692 1 28.83632929209164 9.791398471134508 1.7408767950422601 0 0 1
555 1 32.50792962352147 12.009721247865217 0.563076202509081 0 0 0
560 1 32.04015933799095 9.886985466279038 2.285272899161594 0 0 1
537 1 36.51791104324369 10.056703438629963 1.9428115347257728 0 0 1
2888 1 23.67028195024793 5.239408021248932 15.88102691314926 0 1 0
3672 1 42.86722600135838 9.62699124214985 2.916035934906024 -1 1 1
2722 1 45.36200115363498 10.118294393103792 1.8160931795431936 0 1 0
2716 1 1.7260964753272834 12.644168415117148 1.144167865111987 0 1 0
2222 1 5.42749043232096 13.61663051834406 1.3872336967487955 0 1 0
759 1 8.040077248971633 13.53406776724242 0.202376143035152 1 0 1
4144 1 13.452201962300391 13.566014046984211 4.400062438372066 0 1 1
3156 1 10.231272345343465 14.829785470812881 1.2661956992514434 0 0 0
3095 1 15.059017134999138 13.81110100605775 0.7188959733244853 1 0 0
3864 1 12.786552744631114 14.829389657292538 2.0394300102379677 0 1 1
580 1 19.988647383475975 13.662200595121421 1.9008246032778184 0 -1 1
2762 1 27.2257828004934 13.767158752380325 2.5803850370430217 0 0 0
2309 1 29.543589323081033 12.569852259145923 1.653635099638501 -1 0 0
66 1 32.74546777089567 14.507221679595977 2.315665353463427 0 0 1
860 1 36.90674938682818 12.720464033325213 1.239806647534515 -1 0 0
3696 1 35.818681672136236 14.30268972449164 3.283953547713956 0 0 1
459 1 41.98748653077392 12.906626938897022 0.5706410790883846 0 0 0
312 1 45.283516953881495 15.204789161923314 1.6818493805259147 0 0 0
646 1 46.60294791363269 12.917366231431407 1.6490310027096233 0 0 0
796 1 49.872781847378526 15.942994037003363 2.795370077751862 -1 0 0
2709 1 26.844926908995404 2.3327838481793024 0.44517266807338485 0 1 0
524 1 0.6980040743094702 19.046446110405185 3.205847674380206 0 0 0
110 1 16.697598011479897 4.270500131367682 0.13383051490887587 -1 0 0
2781 1 7.4873423870907985 18.078440859400292 1.7675375911534368 0 1 0
1439 1 37.95087392821834 24.882424153972046 10.048047076709635 0 0 1
2349 1 14.685305876883481 18.51516814970366 1.3516472738198646 -1 1 0
192 1 18.00807565761148 15.27544910739897 2.799733028824014 0 0 0
1070 1 16.421105338531802 16.790712552644024 0.71383313811056 0 0 0
42 1 24.013197071010573 16.086489135388263 1.111728903729676 0 0 0
1873 1 26.677235723237125 16.50062492235635 2.049061221498154 0 0 1
2218 1 30.090339623259755 15.563710183609945 2.353977063925431 0 1 1
1701 1 28.756994913260158 17.518614997358743 0.371270605073868 0 0 1
639 1 33.26846487177832 17.348990705447935 1.8695052093970923 0 -1 0
1415 1 31.55544170755815 18.664034630480653 0.07219899216482045 0 0 1
1556 1 36.85131417059889 17.614472401455384 0.19423628368858237 -1 0 1
1883 1 41.33253828225185 17.102226546496023 1.2364849960088307 0 0 1
98 1 47.09458135198197 17.444028009917872 1.2665486117364526 0 0 0
1030 1 44.0271883649416 17.960563671538875 2.5922861124137913 0 0 0
167 1 49.08278262308789 19.431261161976376 1.4265031970054924 -1 -1 0
810 1 4.590627277627782 21.423031155323116 1.8075767404743255 0 0 0
2682 1 5.561476841886646 19.66782933109151 3.3747071993514 0 0 0
3221 1 2.967642027075168 7.620396475766451 16.444360973017353 0 1 0
648 1 9.734841006547297 20.920435657031515 1.604196691907727 0 0 0
2024 1 21.61553144816276 19.37796920163106 3.225152782906606 0 -1 1
1812 1 18.891953861003998 18.33728529860184 0.6482133046200781 0 -1 1
1963 1 22.683959550530535 18.40836007602595 0.8434312947447884 0 0 1
709 1 27.84488804159748 20.614688693659968 2.108721194739477 0 0 0
443 1 30.92492483818092 20.422521378259816 1.921907310765195 1 0 0
951 1 10.901473905663517 24.278040365987476 3.6153231282289426 0 0 1
3749 1 39.306009653284036 18.5725915527877 2.141738203721992 0 0 1
1480 1 41.3952523382423 22.431768694106474 0.6729674778092813 0 0 1
303 1 43.86740602017908 21.001877016048955 1.8849366900994213 0 0 1
2549 1 44.134252144555305 12.28795660499499 15.65700507651989 -1 0 0
1704 1 20.092539285056166 1.5624127762415705 0.4685845054544304 1 0 1
2646 1 2.65980750014919 22.46295876349956 3.7244205936416623 1 1 0
3039 1 34.612551135758046 0.44011201672885614 5.525887727453513 0 1 0
643 1 7.571779580572 22.868543083983855 1.7172384264829876 1 0 0
2428 1 12.851638667950029 21.315411268977403 0.9401294052447429 0 0 0
687 1 3.7632310517501333 19.68691474452196 -0.22167239180268197 0 0 0
369 1 15.23954486944929 23.330060495713017 1.974591151814748 0 0 1
3488 1 44.7584554980364 24.772883903441734 0.7412563195062827 0 0 1
3998 1 20.946632871382626 22.54622113889153 2.711171088091032 0 0 1
280 1 25.749529408514665 22.680743242581002 2.2407887600564296 0 -1 0
2608 1 45.28059368031376 24.96512370616954 9.353939235559798 -1 0 0
4168 1 2.5709859410339253 17.490426522934527 1.2368816068408681 0 0 1
3737 1 32.3303282807573 22.889546645616992 1.0936503859219642 0 0 1
270 1 36.69334355848861 21.668675345079304 0.7577791801386322 0 0 1
934 1 36.991216454542496 24.471935052295567 0.4915105749202944 0 0 0
278 1 45.77126566300512 22.90821204474314 2.661457338397612 -1 0 0
4067 1 32.71363893832528 7.381621165560833 0.5123320689369392 0 1 1
2155 1 48.22571149237476 22.547393612632263 1.0394043760264284 -1 0 0
1503 1 0.5074416006068657 1.096554004562851 4.152112337033437 0 0 1
633 1 4.726383811103012 1.0768958452615307 3.8851798423069033 0 0 0
2092 1 31.11393312959274 24.916661791560934 8.827042381033323 0 0 0
3182 1 37.777601439326595 21.85501057190087 16.230593222579728 0 0 0
2540 1 11.338413368155537 0.7414918940278008 4.260729692736876 0 1 0
3980 1 13.681045315619322 21.914980196383304 15.513930404625158 1 1 1
3723 1 19.41932450260101 2.0677710445257573 5.141687853506755 0 1 1
1301 1 25.49163612441866 1.579334461164746 2.7480908959087866 -1 0 0
3260 1 27.67063743837358 2.262082158165759 4.333764511412866 0 0 0
2317 1 29.94991978609392 0.9627769736211311 3.2890386576630597 0 1 0
1047 1 30.669834325734733 4.152861481641904 0.17889951136462445 0 0 1
2249 1 37.25440793725815 1.1888491466198012 5.314416868422693 0 1 0
3775 1 39.66766745966312 1.3905166564649056 3.364017386716056 0 1 0
420 1 42.23210146307485 2.3708583656917686 4.256695978309753 0 0 0
1619 1 43.537062525823934 -0.15916698451281136 4.8002495201872835 0 0 1
1678 1 47.19625167025038 2.8316818605977447 5.303293324291991 -1 0 0
2170 1 48.50299186277925 1.6972806532528844 3.180941144570412 0 1 0
2819 1 0.9361208603588249 3.818322701545841 5.107693808879549 0 1 0
2903 1 3.354784667925303 5.083560900066778 4.779650177964306 0 1 0
2957 1 3.4629662235173804 6.645721042551897 2.640695488179019 1 1 0
2450 1 5.740666822568509 6.834435355853479 5.438321578725036 0 1 0
4107 1 9.414172082594618 4.560111947986833 3.887625511969393 0 1 1
426 1 11.867805601540963 5.383797842230756 5.046841906003911 0 0 0
1362 1 14.00445176921537 5.140816871587566 6.57441859879558 0 1 0
2313 1 16.48377276321154 4.701667376386518 5.175764187886306 0 1 0
3832 1 21.95222529702957 3.1681282988862383 5.1457480311256045 0 1 1
2791 1 22.47674848233669 5.435759409422723 6.661463996944181 0 0 0
427 1 27.611231594070976 5.0221030243166185 4.616347409079057 0 0 0
403 1 31.851807521160346 2.6583683384415733 4.257847427329134 0 0 0
3090 1 37.679403943795755 5.609538988569259 6.157565893166219 -1 1 0
1239 1 42.95641440613266 3.543037451246754 7.0652216291938545 -1 0 0
4031 1 44.806713330251235 3.4438469757833996 3.8429890560006923 -1 1 0
1915 1 49.77600438553524 4.891919354095283 2.9759166545039126 -1 0 1
1402 1 2.7975518700390594 9.072342112922842 4.135464053839619 1 0 1
2020 1 8.807997868374107 9.702508331814855 3.320561609313884 0 0 0
2553 1 10.40985095001867 7.517285899171557 5.808721962222599 0 0 0
1475 1 15.855462135147622 8.758267307061798 3.2179252103227927 1 1 0
3851 1 17.541775070088026 7.014615934688178 5.057565632495146 0 1 0
2257 1 21.732903507002998 7.582404256873377 5.558194591837395 0 0 0
2453 1 29.015724224343128 9.11044639089166 4.332175078452494 0 0 0
3697 1 30.207500399362406 6.542136138197524 6.390432581474481 0 1 1
2797 1 33.91870603590649 7.16916646326742 4.51333782016066 0 1 0
3327 1 39.922534616479986 6.4577011863165925 4.820973247206137 -1 1 1
175 1 42.02775575851899 6.343606089722137 6.23705058876371 0 0 0
3626 1 43.83254911447214 7.851801413407509 5.072504099473288 -1 0 1
131 1 45.64972824948167 6.151354586986365 3.7693724001950324 0 0 0
634 1 48.34881771140441 6.688080703871316 4.6082134882266 -1 0 0
1412 1 48.908755033853616 9.34529589803867 4.031846585786901 0 0 1
2101 1 0.5495514778619576 8.508513774660052 5.833015620101546 1 0 1
76 1 0.45125507587160874 11.66208535267421 4.40496901148417 1 -1 0
1152 1 6.415864302783763 13.487820330070265 3.9277445861898537 1 0 0
2146 1 7.113168590279219 10.882055272238118 5.143207455041176 0 0 0
3367 1 12.05566359008203 11.362629084388379 5.291621551702808 0 0 0
491 1 16.565732462200046 10.981162836675608 4.829908258808016 0 0 0
2573 1 19.220394521692594 10.891432199960715 5.76601084065664 0 0 0
3750 1 23.500100035280006 11.50981194335499 4.29878026374663 0 1 1
3082 1 24.04601730734493 8.885923279206994 4.751987210000209 -1 1 0
3197 1 26.54974660247624 9.57280013734924 5.543420886699975 0 0 0
2135 1 31.07692575693786 12.055389726961211 4.2045220495087525 -1 0 0
1290 1 30.147129021325316 10.754290972907723 6.742785799702872 -1 0 1
828 1 34.84086712803347 11.56838068513528 6.136206379122561 0 0 0
1884 1 34.65144247743499 9.676536303899894 3.9154392237522586 0 0 1
3731 1 37.66723474326362 9.902715965209293 5.146862119923528 0 0 1
3334 1 40.27941002740504 11.061790529479119 5.08669258780358 0 0 1
1321 1 42.558338958152966 12.461531045518065 3.2214711983825812 -1 0 0
1492 1 46.720832082333025 11.026204319302144 4.153048383948444 0 0 1
2162 1 46.005200859472275 7.956270829448949 7.010611170726098 0 1 0
3358 1 2.0224678317352995 13.902799084137332 4.1393987743604574 0 0 0
3198 1 4.838747281949158 15.427847440396551 5.290541540507021 1 0 0
3057 1 6.598585079798108 17.705492876892713 5.881014184079733 0 1 0
1246 1 8.755710466569646 14.663823100229997 3.7066472843929237 0 0 1
3110 1 12.927693217255714 17.392728112316423 3.0286152096733563 0 1 1
2637 1 13.780237670499213 16.065571612079296 5.866494380198605 1 0 0
2918 1 15.946721781139512 13.110408994417948 3.2919123450322685 0 1 1
935 1 18.677872254512376 16.32337236507688 5.5785356109496 0 0 0
3854 1 22.41976917515412 14.918518964445889 3.072158830237071 0 1 1
1597 1 23.679279889458215 14.29417875928699 5.518894893147953 0 -1 1
161 1 26.54186799876569 14.061729465086813 5.309558740946644 0 0 0
1519 1 33.11706073842008 13.725149420677207 5.177550943842105 0 0 1
2128 1 37.384366738319635 12.740437720518567 5.232262911885106 0 1 0
2067 1 39.80309280002001 13.497773656242789 3.370549314759591 0 0 1
4145 1 44.34172588042169 14.315843355234874 4.071148614449719 0 1 1
964 1 45.29397193236942 13.589284654249687 6.438554178835933 -1 0 0
1303 1 48.68092132691101 13.378368432716618 3.563409110899106 -1 0 1
316 1 48.11112745670341 13.440940169611174 6.259522459993853 -1 0 0
1433 1 1.0325590459720306 16.656779264344774 5.243499083286479 1 0 1
672 1 3.6163423449707843 17.83884585828375 3.9932439686323997 0 0 0
2913 1 8.652547833574582 17.301797840159736 4.0630212547771425 1 0 0
2559 1 9.741882968606541 20.149566161098292 4.329437155196523 0 0 0
3043 1 14.239809394671537 18.944586854394135 5.679704182016541 0 0 1
2356 1 21.55927578476161 17.074801817317507 4.750764286617233 0 0 0
2654 1 24.19466886013177 17.376441235960062 5.836087387596884 0 0 0
472 1 26.104345846047693 18.482943036139464 3.8252454955370645 0 0 0
3744 1 27.908890174711097 18.66902653379746 5.903644095447197 0 0 1
1967 1 30.17228380995311 17.449153713292894 4.747452712652643 0 0 1
2695 1 36.5780730538829 16.873794977629842 3.016709330148769 0 0 0
2585 1 40.22728180873478 16.037824822771274 4.041727302208143 0 0 0
3939 1 37.9855889584452 17.15234597425876 5.28936411941617 0 0 1
2832 1 42.622669132425926 16.13929744150666 5.233044227326548 -1 0 0
936 1 44.22677440701548 18.680993852855835 5.642631007065265 -1 0 0
101 1 46.70790706720817 18.058673178660943 4.302513363541064 0 0 0
3540 1 48.9113985313181 16.483252335316774 5.835879590418994 0 1 1
1698 1 0.31625913465320643 21.34872743558881 4.859918524565672 0 0 1
239 1 7.033703188890408 20.89178548692028 5.171643522273957 0 0 0
172 1 12.976373055488715 22.25438429278671 3.726158494792516 0 0 0
1322 1 12.120099897999987 20.824123153630666 5.925990993896536 0 0 0
738 1 16.070904012798078 19.69506538371938 3.693456438881914 0 0 0
2186 1 18.45121256102597 18.431274571793967 3.5734003038708066 0 1 0
1202 1 24.33664195175648 20.723932454416158 3.816956549011474 0 0 1
2335 1 23.446116172513435 21.4048623228102 6.358260277629364 1 0 0
2507 1 31.935211330990604 19.439764137510316 4.18076749538887 -1 0 0
2676 1 31.478493530210386 21.19169169523777 6.271695619917093 0 0 0
942 1 34.817597477550905 18.86210474789866 3.862504242520516 0 0 1
1365 1 36.663186566873684 20.750573510874865 3.3955320324122886 -1 0 1
3297 1 39.29216863215617 20.50609648755251 4.281065390651085 0 0 1
1444 1 43.026587649365624 21.23817880516698 5.3038731081132555 1 0 1
1305 1 48.05672747132948 20.950194723001847 3.7981071218017064 0 0 0
2290 1 8.975760563720314 8.734282902458277 16.064544329075318 0 0 0
1060 1 19.678765346027227 17.830009242117452 16.369999516914568 0 0 1
3686 1 6.967176100694086 23.622265421469297 4.451435706300987 0 1 1
4069 1 34.62421750623544 9.40035114904472 0.027370529452595715 0 0 1
2174 1 48.92491210295245 21.19506129721639 16.44648970327492 -1 1 0
128 1 14.858335607738896 23.024929168259455 5.639610366782335 0 0 0
637 1 16.98683074754911 22.47202407357475 4.022994906058306 1 0 1
3294 1 19.574719525608373 20.98507828783186 5.103050583403842 1 0 0
3072 1 21.436823861297356 23.192924305972323 5.906424749399778 0 0 1
3995 1 26.64774465720523 24.208052641558695 4.984138063616159 0 0 1
3213 1 31.09504274873837 23.286996347853847 4.896634871741209 0 1 0
3499 1 29.00229602109635 23.001271855795242 3.2159105025175347 -1 0 0
2948 1 33.48647940490916 23.32216063301753 3.4787052524515376 0 0 0
2878 1 35.910307458583674 22.69387492930159 4.942123186287628 0 0 0
3066 1 6.461285921540931 3.3872084999968513 15.969111451762252 0 1 0
1297 1 41.15383762743296 22.275023460446064 3.5017932238011586 0 0 0
2114 1 45.20401404311206 23.049963181634382 5.228053442322477 -1 0 0
2043 1 47.57693503477536 22.22240984064821 6.475094180524933 0 0 1
3487 1 1.7804545886589738 1.8788012799838714 9.335637298544771 0 1 0
2731 1 4.267365111625733 2.720276157145257 8.885326856454494 1 1 0
1852 1 4.716808562051685 0.8107550430869401 6.701014193265248 1 0 0
2533 1 8.76183104955263 1.7529636503601145 7.241120487834918 0 1 0
1855 1 11.356241598917489 1.2557848262489995 6.820817256975194 0 0 1
2618 1 13.551825023526405 2.7589321355516576 7.685327973666348 0 1 0
3187 1 15.889917625772945 1.0651332299599559 7.905640971639752 1 1 0
2157 1 17.836151777006712 2.949241753744151 7.240169603165632 0 1 0
28 1 19.660306532527212 1.5261494777801705 9.367013622063235 0 1 0
529 1 23.28313677516637 1.9827330584306786 7.1985862543217065 0 0 0
3535 1 22.00852166686687 2.9593692100682243 9.465585626486494 0 1 0
2525 1 27.80071766873349 2.1361595765527857 7.245959957379544 0 1 0
219 1 32.258292155224126 1.0161244750134946 6.7868277558637615 0 0 0
2425 1 32.14793350681032 1.4961827370903606 9.518336583779572 0 1 0
2009 1 37.85779313265667 1.2805645067699745 9.730439956187594 0 1 0
3977 1 40.357153509180044 4.27645903554289 8.351525320306772 0 1 1
2915 1 43.50381638912928 1.6911120885575333 8.977289158109544 0 1 0
91 1 44.73076453797033 5.794586258753053 0.21502314490382923 0 0 0
357 1 46.143318564143485 0.5440420787308461 9.053962638583672 0 1 0
3721 1 1.4797748298981654 24.025894721041766 1.8658381648129168 0 1 1
2897 1 1.1652631786142225 5.789236717142805 7.285579803130591 1 1 0
359 1 2.231276280451522 8.137752100863887 9.095850441901252 1 0 0
1005 1 4.059512778596987 5.395948013500377 7.625333571827021 0 0 0
307 1 7.587048605576301 3.870358269013453 5.99764632178332 1 0 0
2394 1 18.336271381041268 5.007493123816219 9.014453786808838 0 1 0
385 1 21.255157345957976 5.327180736794114 8.851569568289023 0 0 0
2638 1 24.985216709835473 5.774460873661953 7.502401329571906 0 1 0
3336 1 25.49325663133253 3.041454571895805 8.395586606067548 0 1 0
612 1 29.682287965154675 2.849180073454308 9.11811695223085 -1 0 0
1573 1 31.27158512870616 3.9899627455085804 6.8702380021626785 0 0 0
2415 1 32.98934379160001 5.706706217542849 8.383759540040417 0 0 0
896 1 35.7554345112056 4.57979715834169 9.177000143842545 0 0 0
3560 1 37.84855512596274 2.8868935242021863 7.588878009722105 0 1 1
3650 1 39.13411507223966 6.76254511685926 8.22275831469096 -1 1 1
823 1 44.956862277709995 5.133226221125757 8.754006069262939 -1 0 0
2205 1 47.44214946710197 4.299208329152304 7.654543233852128 0 1 0
1951 1 50.208577766525075 2.4540106026395376 7.498950348098093 0 0 1
1666 1 5.140008843136644 6.226522359217421 10.229724504929155 0 0 0
309 1 4.834580513996424 9.591513031627102 6.215643787573902 0 0 0
514 1 6.0376038072557385 8.075039115295708 8.387804123437045 1 0 0
2576 1 8.319529293245319 6.473766373571532 7.461154221128313 1 1 0
1324 1 11.819779752653732 7.999351307578696 8.640292740209633 0 0 0
723 1 14.282577870588463 7.0940470474625235 8.44281448807789 1 0 0
3649 1 18.15990296646717 7.661701884906085 7.701255686988993 0 0 0
1084 1 16.122023888232896 9.12447237405132 8.435927032681848 0 0 0
741 1 20.34538964304666 9.029886839090755 7.406925148879182 0 0 0
1432 1 24.31853704215769 7.615321449786185 9.140752366632714 0 0 0
3005 1 27.25154537738046 6.978588510896427 6.712169400228124 0 0 0
1259 1 28.575770269541596 7.552851163862902 9.161801283486898 0 0 0
3293 1 31.334373446498592 8.540024238739202 8.113382966686428 0 1 0
1333 1 35.190338170399386 6.660645895061572 6.94970649826181 0 0 1
3246 1 48.86443849383774 6.849893553068483 7.386275728443685 0 1 0
880 1 44.696361809418434 7.921705865977872 9.271105950785842 -1 0 0
448 1 50.04528372431499 8.832905265462383 9.308277196297018 0 0 0
795 1 0.482180192435412 11.051142081188189 7.003229742491003 0 0 0
6 1 3.001802634392312 10.451334231062491 7.939194370764264 0 0 0
2875 1 9.045851839930075 11.636781976055786 7.0960838982018 0 1 0
3357 1 11.876648326370496 10.933665479141048 7.992658713138354 0 1 0
197 1 14.999928312423078 11.112029403468545 7.003492567498005 1 0 -1
125 1 21.391266487965925 10.057854745789474 9.731974281386078 0 0 0
2003 1 23.36894312331773 11.73435694688249 9.293752394148603 -1 0 0
2579 1 25.613895648122206 10.198342432874755 8.59764522627741 1 0 0
728 1 27.82517414566877 12.621227780323549 9.491798093224574 0 0 0
541 1 27.41677904171097 11.903146791210888 6.800186359674568 -1 -1 -1
1073 1 34.34353167325474 9.356756698667915 8.253980604040935 0 0 0
1426 1 37.324395302980584 9.250956660584743 7.865545537886096 0 0 1
2340 1 38.12624839018015 10.708629082113763 9.988749453852835 0 1 0
712 1 41.30228836425637 11.525339874198405 7.908484164190506 0 0 0
578 1 44.261336833428935 10.75205825382368 9.198029115518045 0 0 0
2795 1 46.118560070022 10.87409299886601 7.07358080664377 0 0 0
1423 1 48.53317794630169 11.018554617323739 8.595651367978935 0 0 1
3830 1 2.9393163515218212 14.63645785640332 7.189138903809488 0 0 1
1029 1 3.636245434025427 12.938039313754627 9.167311386907327 0 0 0
3062 1 10.378514463974573 13.627794335613087 5.649469440126221 1 1 1
654 1 7.4544672192830985 14.240146717760508 6.90920206275185 1 0 0
3552 1 11.96801014281416 13.475358225878862 9.200244159096293 0 1 1
3208 1 11.536467917428402 15.237640723874822 7.583618328110072 0 1 0
2967 1 16.405068658755265 14.780524931778412 5.84112304211451 0 1 0
213 1 16.25923230193945 13.269105183191169 8.08594131360342 0 0 0
7 1 18.480065997658873 13.566732770836483 9.492756072979526 1 0 0
3804 1 19.58015615140053 13.407929983288096 6.915093912347039 0 1 1
1794 1 22.14091143085796 13.769535381263873 7.699511234433571 0 0 1
2456 1 30.181044103946686 13.828888672722341 10.321230195124821 0 1 0
1652 1 31.529053837983877 13.102283807298257 7.761944443595215 0 0 1
1839 1 34.1187252835698 12.647387984060641 8.675134992388854 0 0 1
3568 1 35.514691695474795 15.005150188061068 8.380906966121369 1 0 1
1936 1 38.179527565808755 14.734723787939771 7.0671649180859 0 0 1
2548 1 39.61878712274308 13.144532681456313 9.134580942156848 0 0 0
2564 1 41.07598000114196 15.494269626671962 7.455950941192004 -1 1 0
2934 1 43.1516192290631 13.652390644063997 8.308351229589837 -1 1 0
105 1 -0.181746136697289 14.033010317654565 7.6914664070378524 0 0 0
464 1 2.881266500867602 18.712451355055975 6.92141429115023 0 0 0
475 1 1.9319424327217738 16.904334394879733 8.637950912113231 1 0 0
995 1 7.817727889409348 16.63281590903955 8.514029349656393 1 0 1
603 1 10.74434035373545 17.295455852965368 9.615131137056581 1 0 -1
3557 1 18.032036683765075 18.0676690993326 7.92600796515352 0 0 1
329 1 22.68122482075232 16.340865179701115 8.661371353986606 0 0 0
500 1 22.562939651332925 19.112733233366946 7.6679740890187835 0 0 0
940 1 25.378274140673017 16.196840034298464 8.795580790241953 0 0 0
1656 1 27.176690295479982 16.053010041711065 6.907183385190645 0 0 0
1851 1 29.66955786339462 15.892023772620991 8.260968151628305 0 0 1
2462 1 30.389106995303166 18.30824203328563 9.714682955982537 0 0 0
3912 1 31.6314067448555 15.930096333233816 6.443563190567442 0 1 1
2292 1 33.699556096702715 17.189979174696507 7.895369451983349 0 0 0
1350 1 35.30068628000854 18.82126294478965 6.603904262860229 0 0 0
2718 1 40.47824448395481 17.63956981587781 9.49278478259937 -1 1 0
3576 1 45.69949095642088 16.56654589987683 10.285046104714976 -1 1 1
2149 1 49.69167910631756 17.33854857173483 8.652170575623975 0 1 0
2420 1 1.2436992844142567 21.219802560424476 7.565267549680588 1 0 1
1104 1 3.5735092493121443 20.958410103258657 9.516745167706256 0 0 1
655 1 5.619416164796461 20.005813367305553 7.944116431029498 1 0 0
2868 1 7.756875145822711 21.616083839524766 9.291046107080291 1 1 0
1767 1 9.532148363857921 19.498279451229028 8.299635015380197 0 0 1
1828 1 10.966470151047933 21.755478845438496 8.148597524625153 0 0 1
909 1 15.312127634546805 18.917929827885118 8.128554758494435 0 0 0
1401 1 15.235013406689536 21.85416227943363 7.981806854022702 1 -1 0
1667 1 12.950116205288616 22.21222785470528 9.73351396903876 0 0 1
2065 1 19.939018949491622 20.001736510973803 7.68710208415132 0 0 1
2236 1 19.33128355006991 21.7160188999695 9.662522114963929 0 0 0
2883 1 23.385487304113358 20.09215664446063 10.067026602254133 1 0 0
1495 1 27.611657187366877 20.192713615895354 7.985822676712832 0 0 1
1058 1 25.79630347541396 18.750401494043548 9.918787333480758 -1 0 0
3144 1 30.180072961347417 20.751881240854594 8.436316407844497 0 0 0
409 1 34.26878483186437 21.323595765222287 6.664740337683307 0 0 0
340 1 36.273523950632 19.134633633275797 9.397019258223427 -1 0 0
3826 1 38.43452465439617 18.735114590684592 7.782298501990873 0 0 1
753 1 39.13837863563057 21.437743889367844 7.050657486346217 0 0 0
1830 1 41.718835891102614 21.78436837579184 7.845750537233631 -1 0 1
2025 1 42.58221240201141 19.65860636190521 9.409205136294606 0 0 1
978 1 44.97035704081785 18.637770871293114 8.449668478777395 0 0 1
3623 1 46.67625674079558 20.613578550200568 8.515440358915498 -1 0 1
3453 1 49.297052687141594 20.04395023077361 9.034392479487042 -1 1 0
3907 1 1.3910264483132646 24.027062060392083 7.444910078786593 0 0 1
337 1 3.109384601810969 23.602178321090634 9.640435263444715 1 0 0
446 1 9.255985973022998 24.086359604032843 8.247895848693457 -1 0 0
2747 1 10.656620989104132 17.86944348818963 1.4104560805593624 0 0 0
3530 1 17.04394471520877 23.175014070496385 9.300349801342653 0 0 1
408 1 21.320571728052204 23.47972223940291 8.913048865467012 0 0 0
449 1 26.09242347196427 22.33308364184282 6.910271668393425 0 0 0
3289 1 25.943325951067884 23.645082095799424 9.295100022868752 0 0 1
3736 1 40.344620238622056 24.661569314743456 4.573350136953824 0 0 1
1039 1 34.68817261666442 22.186890208212642 9.287293047921002 0 0 0
149 1 37.52923664134059 22.127987254532787 9.40708118630228 -1 0 0
2872 1 42.67679839701032 24.342989208327907 8.574525593498816 0 0 0
1478 1 34.153995454075414 7.380649755026774 15.630731245467189 0 0 1
182 1 0.716997686863021 2.3606697171097384 12.035115741907285 0 1 0
317 1 6.102606986020287 2.351041009055427 10.876104300077671 0 0 0
1243 1 8.709139163998769 1.3048654525359318 10.086670537495133 0 0 0
3086 1 13.909542985910521 0.7599486653771756 11.543352641925338 0 1 0
3931 1 29.77958568622099 24.09525512569384 0.7625561729844981 0 0 1
1129 1 18.30155692095389 1.4355273532759083 11.860547535461023 1 0 0
1978 1 23.241112051390758 2.911665486683505 11.994409635523622 0 0 1
2766 1 25.714538506986838 2.1118898426918333 11.039504233874 0 1 0
339 1 29.693269307583495 0.8575576133927056 11.665045828134573 0 0 0
586 1 40.36471028471834 2.0257606886010695 10.319320037993178 0 0 0
3008 1 47.69603976357474 2.4793347547413984 10.433257595960175 0 0 0
2726 1 48.624996458167836 1.216075396968542 12.622313247760667 0 0 0
3276 1 0.7678693529727045 4.880589506941762 12.976277675360603 1 0 0
2980 1 3.034844456673512 6.21622872600249 13.81029290342467 0 1 0
2165 1 6.266514755083302 4.859886152038949 12.244208346523148 1 1 0
3839 1 10.455993871760858 3.463149850440157 10.711706223098428 0 0 1
2599 1 13.195884469155192 3.182184714378041 10.41659212321309 0 1 0
3687 1 14.308509078141862 5.780578006010876 10.928181734234682 0 0 1
460 1 17.025299468413845 5.293875880603912 11.637750014306803 0 0 0
938 1 17.33458779214746 3.4102501225985575 13.540219692927149 0 0 0