
# Create simulation box of size 50 x 50 x 50 Angstrom
#
lattice	            sc 1
Lattice spacing in x,y,z = 1.0000000 1.0000000 1.0000000
region 	            all block 0 50 0 50 0 50 units box
create_box          1 all
Created orthogonal box = (0.0000000 0.0000000 0.0000000) to (50.000000 50.000000 50.000000)
  1 by 2 by 3 MPI processor grid

# fill box with 4175 randomly distributed atoms
#
create_atoms        1 random 4175 63782 all
Created 4175 atoms
  create_atoms CPU = 0.001 seconds
mass                1 18.015

# Define potential
#
pair_style          sw
pair_coeff          * * ML_mW.sw mW
Reading sw potential file ML_mW.sw with DATE: 2019-02-27

# Run minimization
#
minimize            1.0e-8 1.0e-8 10000 1000
WARNING: Using 'neigh_modify every 1 delay 0 check yes' setting during minimization (../min.cpp:187)
Neighbor list info ...
  update every 1 steps, delay 0 steps, check yes
  max neighbors/atom: 2000, page size: 100000
  master list distance cutoff = 6.0032907
  ghost atom cutoff = 6.0032907
  binsize = 3.0016454, bins = 17 17 17
  1 neighbor lists, perpetual/occasional/extra = 1 0 0
  (1) pair sw, perpetual
      attributes: full, newton on
      pair build: full/bin/atomonly
      stencil: full/bin/3d
      bin: standard
Per MPI rank memory allocation (min/avg/max) = 4.255 | 4.258 | 4.261 Mbytes
Step Temp E_pair E_mol TotEng Press 
       0            0    7792709.3            0    7792709.3    5898794.3 
     630            0   -45180.336            0   -45180.336   -154.07449 
Loop time of 1.20846 on 6 procs for 630 steps with 4175 atoms

99.0% CPU use with 6 MPI tasks x no OpenMP threads

Minimization stats:
  Stopping criterion = max force evaluations
  Energy initial, next-to-last, final = 
      7792709.32924461  -45180.0188663597   -45180.336116598
  Force two-norm initial, final = 2.0191930e+08 4.9721331
  Force max component initial, final = 1.0948746e+08 0.73126211
  Final line search alpha, max atom move = 0.053306038 0.038980685
  Iterations, force evaluations = 630 1000

MPI task timing breakdown:
Section |  min time  |  avg time  |  max time  |%varavg| %total
---------------------------------------------------------------
Pair    | 0.89674    | 1.0163     | 1.1164     |   6.7 | 84.10
Neigh   | 0.024215   | 0.024716   | 0.025071   |   0.2 |  2.05
Comm    | 0.046759   | 0.14691    | 0.26766    |  17.8 | 12.16
Output  | 0          | 0          | 0          |   0.0 |  0.00
Modify  | 0          | 0          | 0          |   0.0 |  0.00
Other   |            | 0.02054    |            |       |  1.70

Nlocal:        695.833 ave         704 max         685 min
Histogram: 1 1 0 0 1 0 0 1 0 2
Nghost:        1494.17 ave        1515 max        1468 min
Histogram: 1 1 0 0 0 0 1 1 1 1
Neighs:        0.00000 ave           0 max           0 min
Histogram: 6 0 0 0 0 0 0 0 0 0
FullNghs:      19997.0 ave       20462 max       19320 min
Histogram: 1 1 0 0 0 0 0 2 0 2

Total # of neighbors = 119982
Ave neighs/atom = 28.738204
Neighbor list builds = 26
Dangerous builds = 0

# Add velocity/set timestep
#
velocity            all create ${TEMP} 120598 rot yes dist gaussian
velocity            all create 215 120598 rot yes dist gaussian
timestep            5.0

# Define output
#
compute	            1 all msd
thermo	            100
thermo_style        custom step temp press vol etotal ke pe c_1[4] density

# Neighbor lists
#
neigh_modify        delay 0 every 1 check yes

# Set fixes
#
fix                 1 all momentum 10 linear 1 1 1 rescale
fix                 2 all nve
fix                 3 all temp/csvr ${TEMP} ${TEMP} 500.0 928347
fix                 3 all temp/csvr 215 ${TEMP} 500.0 928347
fix                 3 all temp/csvr 215 215 500.0 928347
fix                 4 all press/berendsen iso ${PRES} ${PRES} 1000.0 modulus 20000
fix                 4 all press/berendsen iso 350 ${PRES} 1000.0 modulus 20000
fix                 4 all press/berendsen iso 350 350 1000.0 modulus 20000

# Run 0.5 ns equilibration
#
dump                1 all custom 1000 eq.${NAME}.dump id type x y z vx vy vz
dump                1 all custom 1000 eq.liquid_density_MLmW.dump id type x y z vx vy vz
run                 100000
Per MPI rank memory allocation (min/avg/max) = 3.506 | 3.508 | 3.511 Mbytes
Step Temp Press Volume TotEng KinEng PotEng c_1[4] Density 
     630          215    824.17143       125000   -42505.327    2675.0087   -45180.336 2.7295415e-33   0.99914793 
     700     137.2366     248.1928    125160.95   -41685.244    1707.4842   -43392.728   0.25080025    0.9978631 
     800    170.95245    129.44725    125022.92   -40944.136    2126.9735    -43071.11   0.59767676   0.99896477 
     900    190.75161    170.49826    124809.97   -40528.485    2373.3127   -42901.798    1.0032872    1.0006692 
    1000    200.01207    558.47668    124776.02   -40275.067    2488.5304   -42763.598    1.3674482    1.0009414 
    1100    206.84423    271.12124    124802.26   -40108.126    2573.5355   -42681.661    1.7903236     1.000731 
    1200    207.18683    367.82926     124827.5   -40138.585    2577.7981   -42716.383     2.176525    1.0005287 
    1300    204.64693    330.51623    124815.35   -40112.181    2546.1969   -42658.378    2.5422416     1.000626 
    1400    207.27408    333.83023     124598.7   -40132.512    2578.8836   -42711.396    2.9229187    1.0023659 
    1500    210.47868    401.12532    124858.49   -40091.182     2618.755   -42709.937    3.2880539    1.0002803 
    1600    215.94847    232.56145    125000.65   -40002.851    2686.8096    -42689.66    3.5914903   0.99914273 
    1700    217.08413    261.08466    124826.95   -40033.946    2700.9393   -42734.885    3.9555842     1.000533 
    1800     213.4214    480.57393    125024.24   -40118.046    2655.3679   -42773.414    4.2642873   0.99895421 
    1900    217.33994    373.40338    125230.05   -40121.785    2704.1221   -42825.907    4.5460312   0.99731247 
    2000    218.94621    426.59109    125395.82   -40103.652    2724.1071    -42827.76    4.8850205   0.99599404 
    2100    221.21618    387.34026     125357.4   -40082.072    2752.3498   -42834.421     5.145137   0.99629931 
    2200    217.07791    291.22555    125324.23   -40131.819    2700.8619   -42832.681    5.5876138   0.99656297 
    2300    221.08967    495.25345    125658.03   -40129.392    2750.7758   -42880.168    5.9700822   0.99391568 
    2400     219.4445    257.08252    125735.91   -40153.547    2730.3067   -42883.853     6.262096   0.99330013 
    2500    219.21983    264.16389    125807.41    -40109.42    2727.5114   -42836.932    6.5843358   0.99273554 
    2600    222.05455     396.7514    125809.39   -40068.821    2762.7807   -42831.601    6.8032089   0.99271992 
    2700    223.38681    299.71396    125895.25   -40116.263    2779.3566    -42895.62    7.0677634   0.99204289 
    2800    221.99915    518.39005    125883.97   -40123.846    2762.0915   -42885.938     7.253793   0.99213178 
    2900    219.88303    310.19905    126263.82   -40231.702    2735.7629   -42967.465    7.5006181   0.98914713 
    3000    215.31141    524.19913    126398.83   -40282.681    2678.8832   -42961.564    7.7320551   0.98809059 
    3100    220.70247    426.70427    126563.09   -40285.686    2745.9584   -43031.645    7.9170886   0.98680813 
    3200    218.13054    327.66202    126392.54   -40342.224    2713.9586   -43056.182    8.1735502   0.98813974 
    3300    215.62689    590.53963    126550.87   -40350.382    2682.8085   -43033.191    8.3781208   0.98690348 
    3400    216.22733    444.36831    126601.61   -40400.851     2690.279    -43091.13    8.5446038   0.98650792 
    3500    214.36184    219.20455     126608.2   -40418.307    2667.0688   -43085.376    8.7444516   0.98645658 
    3600     212.9146     123.7141    126471.98   -40436.047    2649.0625    -43085.11    8.9026498   0.98751905 
    3700    209.18217    341.08761    126743.86    -40501.99    2602.6239   -43104.613    9.1784995   0.98540071 
    3800    213.15307    566.18114    126697.39    -40453.42    2652.0294   -43105.449    9.3696266   0.98576212 
    3900    210.01677    336.33103    126762.24   -40478.156    2613.0078   -43091.164     9.617252   0.98525781 
    4000    213.73915    467.01407    126767.85   -40463.399    2659.3214    -43122.72    9.8493518   0.98521423 
    4100     215.2201    338.09388    126717.31   -40459.587    2677.7472   -43137.334    10.092577    0.9856072 
    4200    213.51997    274.05776    126719.02   -40461.961    2656.5943   -43118.555     10.19538   0.98559387 
    4300    214.60468    266.01116    126675.07   -40458.524    2670.0902   -43128.615    10.440882   0.98593585 
    4400    214.57471    402.08424    126518.36   -40448.935    2669.7173   -43118.653    10.788212   0.98715709 
    4500    211.55114    436.81815    126668.94   -40430.708    2632.0984   -43062.806     10.87321   0.98598356 
    4600    210.15006     270.2435    126600.18   -40478.145    2614.6663   -43092.811    11.134282   0.98651907 
    4700    218.59794    275.67557    126553.21   -40389.184     2719.774   -43108.958    11.407637   0.98688524 
    4800    214.42583    326.17819    126522.56   -40438.213     2667.865   -43106.078    11.733187   0.98712431 
    4900    216.80484    381.82953    126542.79   -40316.204    2697.4644   -43013.668    12.052229   0.98696646 
    5000    213.51026     404.7831    126599.23   -40263.689    2656.4735   -42920.163    12.258967   0.98652646 
    5100    217.85147    390.20874    126615.57   -40326.251    2710.4864   -43036.737    12.377157   0.98639915 
    5200    216.14025    290.62744    126617.39   -40401.905    2689.1956   -43091.101    12.436562   0.98638497 
    5300    215.49327    312.21729     126484.8   -40384.146     2681.146   -43065.292     12.78593   0.98741901 
    5400    213.01066    378.99243     126461.1   -40407.921    2650.2576   -43058.178    13.058644   0.98760399 
    5500    213.30351    259.10242    126690.72   -40420.997    2653.9012   -43074.898    13.240634   0.98581406 
    5600    215.40103    169.53684    126689.21   -40431.833    2679.9983   -43111.831    13.491983    0.9858258 
    5700    218.31583     195.7842    126634.55   -40436.115    2716.2639   -43152.379    13.675111   0.98625132 
    5800    212.73006    533.25441    126820.63   -40464.755    2646.7664   -43111.522    13.805934   0.98480419 
    5900    211.06755    311.32938    126901.19   -40508.445    2626.0816   -43134.526    13.718297     0.984179 
    6000    214.00007    63.324189    126880.51    -40506.03    2662.5677   -43168.597    13.823612   0.98433943 
    6100    215.64524     459.5886    126884.08   -40463.268    2683.0367   -43146.304    14.071074   0.98431175 
    6200    212.34845    390.81902    127000.74   -40547.766    2642.0184   -43189.785    14.225714   0.98340759 
    6300    218.27987    442.83883    127145.63   -40517.987    2715.8166   -43233.804    14.419767    0.9822869 
    6400    216.54841    353.59859    127219.28   -40499.256    2694.2739    -43193.53    14.646495   0.98171828 
    6500    216.34117    411.34705    127189.78   -40464.642    2691.6955   -43156.337    14.904958   0.98194599 
    6600    216.09526    360.77427    127232.52   -40542.103    2688.6358   -43230.738    15.271537   0.98161608 
    6700    211.91821    294.92436    127234.58   -40613.348    2636.6654   -43250.013    15.491518   0.98160025 
    6800    214.64675    210.68716    127203.79   -40546.896    2670.6136   -43217.509    15.315943   0.98183779 
    6900    218.80102    449.09395    127261.39   -40498.082    2722.3007   -43220.382    15.556296   0.98139342 
    7000    219.19387    288.28012    127271.88   -40497.254    2727.1885   -43224.443    15.656107   0.98131256 
    7100    220.03198     366.1384    127226.76   -40531.505    2737.6161   -43269.121    15.956842   0.98166052 
    7200    213.65336    315.24278     127428.1   -40597.389    2658.2539   -43255.643    16.056547   0.98010949 
    7300    209.15957    283.20174    127399.22   -40645.876    2602.3427   -43248.218    16.213083   0.98033164 
    7400    210.53507     318.5969    127360.84   -40675.036    2619.4565   -43294.493    16.443388   0.98062711 
    7500    210.49977    400.52366    127255.73   -40648.872    2619.0174   -43267.889    16.510084   0.98143708 
    7600     209.0295    344.61306    127374.56   -40716.378    2600.7244   -43317.102    16.513704   0.98052146 
    7700    216.97501     346.0504    127331.04   -40614.107    2699.5816   -43313.689    16.713419   0.98085661 
    7800     213.0715    159.18825    127354.58   -40605.753    2651.0145   -43256.767    16.964275   0.98067528 
    7900    211.00568    363.35735    127392.78   -40666.333    2625.3118   -43291.644    17.045393   0.98038126 
    8000     211.3464    297.79588    127849.32   -40636.131    2629.5511   -43265.682    17.153137   0.97688037 
    8100    211.34567    332.68515    127659.74   -40698.774     2629.542   -43328.316    17.412375   0.97833104 
    8200    211.26356    311.78536    127641.92   -40714.064    2628.5203   -43342.584     17.46525   0.97846768 
    8300    210.04834    524.43958    127654.81   -40684.677    2613.4007   -43298.078     17.55733   0.97836884 
    8400    215.15249    206.67699    127420.93   -40641.321     2676.906   -43318.227    17.789314   0.98016467 
    8500    212.93629    465.11304       127528   -40558.234    2649.3323   -43207.566    17.947743   0.97934171 
    8600    219.93527    424.58132    127621.17   -40573.716    2736.4129   -43310.129    18.049788   0.97862675 
    8700    217.67202    517.80072    127610.54   -40562.711    2708.2537   -43270.965    18.264305   0.97870824 
    8800    215.09102    244.97533    127490.38   -40605.189    2676.1412    -43281.33    18.636061   0.97963071 
    8900    206.21012    296.46058    127312.15   -40675.634     2565.646    -43241.28     18.71518   0.98100212 
    9000    215.15896    485.71786     127242.2   -40634.374    2676.9865    -43311.36    18.756083   0.98154142 
    9100    211.32242    404.94208    127179.84   -40700.748    2629.2526   -43330.001    18.713142   0.98202274 
    9200    213.87066    378.65251     127092.7   -40599.286    2660.9576   -43260.243    18.744093   0.98269599 
    9300    209.06875    312.99314    126931.05   -40644.552    2601.2128   -43245.764    18.943381   0.98394753 
    9400     216.4729    367.56899    126890.84   -40610.218    2693.3344   -43303.553    19.120595   0.98425929 
    9500    214.76752    301.98505    127134.64    -40628.63    2672.1163   -43300.747    19.411936   0.98237188 
    9600    218.60032    404.41527    127119.35   -40602.187    2719.8035   -43321.991    19.637336   0.98248999 
    9700    218.64923    315.65897    127312.26    -40553.46    2720.4121   -43273.872     19.65107   0.98100127 
    9800    217.26865    357.79319     127357.3   -40646.765     2703.235       -43350    19.499512   0.98065437 
    9900    211.60617    307.27956    127396.25    -40715.16     2632.783   -43347.943    19.832319   0.98035456 
   10000    210.75855    298.30831    127457.44   -40709.424     2622.237   -43331.661    19.867171   0.97988389 
   10100    212.64063    269.24437    127382.19   -40665.135    2645.6536   -43310.788    19.911905   0.98046271 
   10200    214.61536    196.84407    127260.68   -40706.692    2670.2231   -43376.915    20.061936   0.98139893 
   10300    213.93998    379.22827    127038.89   -40700.871    2661.8201   -43362.691    20.193431   0.98311225 
   10400    210.44835    454.00188    127264.56   -40656.336    2618.3775   -43274.714    20.458609   0.98136895 
   10500    213.77753    405.76001    127495.41   -40634.982    2659.7989   -43294.781    20.586464   0.97959208 
   10600    218.24939    295.99477    127729.33   -40584.577    2715.4373   -43300.014    20.734509   0.97779805 
   10700     213.8208    356.19181    127616.91   -40578.482    2660.3373   -43238.819    20.869228   0.97865945 
   10800    217.40455    404.82039    127848.87   -40569.324    2704.9259    -43274.25    21.075405   0.97688379 
   10900     215.7801    345.59655     127718.8   -40597.032    2684.7147   -43281.746    21.353971   0.97787871 
   11000    216.09282    282.32018    127630.67   -40586.592    2688.6055   -43275.197    21.586081   0.97855389 
   11100    213.23713    364.46296    127917.69   -40619.118    2653.0753   -43272.194    21.581982   0.97635822 
   11200    214.80304    413.46857    128025.33   -40616.676    2672.5582   -43289.234    21.870258   0.97553737 
   11300    213.31177    403.20042    128001.29   -40619.594    2654.0039   -43273.597     21.80462   0.97572058 
   11400    215.92415    243.26228    127891.99   -40641.247     2686.507   -43327.754    21.968016   0.97655445 
   11500    211.06646    310.16843    127951.74   -40670.899     2626.068   -43296.967    22.087038   0.97609844 
   11600    215.04931    387.99713    127922.79   -40682.733    2675.6223   -43358.356    22.151618    0.9763193 
   11700    215.26169    409.38985       127987   -40593.444    2678.2647   -43271.708    22.552319   0.97582951 
   11800    214.33618    147.88037    128155.81   -40645.442    2666.7496   -43312.192    22.785928    0.9745441 
   11900    209.36556    359.27138    128049.31   -40646.001    2604.9056   -43250.907    22.754567   0.97535463 
   12000    213.35542    424.22858    128138.07   -40639.226     2654.547   -43293.773    22.624825     0.974679 
   12100    215.72348    333.75961    127852.01   -40588.166    2684.0103   -43272.176    22.733855   0.97685984 
   12200     221.8464    345.56372    127918.26   -40588.503     2760.191   -43348.694    22.910363   0.97635392 
   12300    213.81636    466.75966     127856.4   -40611.139     2660.282   -43271.421    23.057351   0.97682628 
   12400    220.18857     327.8972    127993.16   -40598.799    2739.5645   -43338.363    23.140446   0.97578251 
   12500    215.52851    464.99362    128021.16   -40707.666    2681.5844   -43389.251    23.467674   0.97556911 
   12600    217.88259    497.40776    128386.69    -40635.27    2710.8736   -43346.144    23.573099   0.97279156 
   12700    221.48284    452.99231    128496.32   -40649.134    2755.6676   -43404.801    23.920175   0.97196164 
   12800    222.02556    497.68987    128570.03   -40651.705      2762.42   -43414.125    23.970593   0.97140441 
   12900    212.46142    231.27183     128531.4   -40708.839     2643.424   -43352.263    24.143844   0.97169634 
   13000    216.77554    364.54643    128558.69   -40652.064    2697.0999   -43349.164    24.419395   0.97149008 
   13100    213.75417    138.19622    128401.62   -40639.431    2659.5083   -43298.939    24.356469   0.97267844 
   13200    224.76326    314.83962    128451.96   -40557.456    2796.4823   -43353.938    24.474968   0.97229726 
   13300    220.16395    271.09943    128308.65   -40608.156    2739.2581   -43347.414    24.620819   0.97338323 
   13400    216.03878    474.57574    128497.06   -40711.125    2687.9331   -43399.058    24.807701   0.97195605 
   13500    216.22692    215.19727    128699.43   -40755.558     2690.274   -43445.832     25.02032   0.97042767 
   13600    213.75872    292.74171    128694.11   -40798.629    2659.5648   -43458.194    25.265062   0.97046778 
   13700    216.52778    320.85876    128710.38     -40821.6    2694.0172   -43515.617    25.379129   0.97034513 
   13800    216.71383    448.95103    128740.32   -40748.063     2696.332   -43444.395    25.372495    0.9701195 
   13900    219.70877    413.98547    128886.13   -40797.255    2733.5948    -43530.85     25.36842   0.96902195 
   14000    212.69721    326.71086    129020.03   -40798.705    2646.3576   -43445.063    25.439993    0.9680163 
   14100    214.64409    175.57362    128770.29   -40807.519    2670.5806   -43478.099    25.685313   0.96989365 
   14200    213.61999    534.01469    128649.77   -40849.651    2657.8388    -43507.49    25.878107   0.97080226 
   14300    213.53545    399.35656    128676.18   -40893.611     2656.787   -43550.398    25.914865   0.97060302 
   14400    213.69165    208.32192    128726.71   -40858.711    2658.7304   -43517.441    25.887149   0.97022201 
   14500    212.56683    205.44782    128654.98   -40807.071    2644.7355   -43451.807    26.026433   0.97076301 
   14600    219.58494    273.08495     128465.3   -40820.355    2732.0541   -43552.409    26.085137   0.97219633 
   14700    211.85614    360.81389    128435.92   -40861.337    2635.8932    -43497.23    26.253396   0.97241867 
   14800    213.66011    330.58387    128577.12   -40891.822     2658.338    -43550.16    26.479449   0.97135085 
   14900    208.94483    516.06586     128559.4     -40966.5    2599.6709   -43566.171    26.522874   0.97148471 
   15000    209.46709    231.12118    128678.92   -40964.579    2606.1688   -43570.748    26.893941    0.9705824 
   15100    213.80752    490.75374    128717.58   -40992.544     2660.172   -43652.716    26.949894   0.97029089 
   15200    209.76666    557.95618    128779.01    -40920.76    2609.8961   -43530.656    26.912416   0.96982802 
   15300    212.12281    174.78497    128769.72   -40918.186    2639.2111   -43557.397    27.028093   0.96989794 
   15400    216.20886    457.56963    128728.53   -40901.406    2690.0492   -43591.456    27.136544   0.97020833 
   15500    211.65781    274.82974    128894.75   -40883.901    2633.4256   -43517.327    27.210584   0.96895717 
   15600    214.23789    370.96469    128921.51   -40831.123    2665.5266   -43496.649    27.399556   0.96875606 
   15700    213.51662    484.86454    129156.38   -40926.295    2656.5527   -43582.848     27.63761   0.96699436 
   15800     212.4945    153.46634    129220.66   -40928.929    2643.8355   -43572.765    27.768553   0.96651334 
   15900    213.59259    366.44302    129029.56   -40968.254    2657.4979   -43625.751    28.007174   0.96794479 
   16000    210.83691    445.35121    129163.35   -40911.061     2623.212   -43534.273    28.165061   0.96694218 
   16100    216.14567    402.08427    129169.94    -40858.11    2689.2631   -43547.373    27.879815   0.96689288 
   16200    216.70391    511.61057    128984.11   -40916.576    2696.2086   -43612.785    28.099982   0.96828587 
   16300    214.30984    230.74976    128984.78   -40932.616    2666.4219   -43599.038     28.25613   0.96828081 
   16400    214.37293    387.06551    129034.93    -40827.48    2667.2068   -43494.687    28.341349   0.96790448 
   16500    218.19196     382.2103    128965.12   -40835.197    2714.7228    -43549.92    28.364832   0.96842847 
   16600    220.88046     250.5544    128998.37   -40830.461    2748.1729   -43578.633    28.556436   0.96817884 
   16700    212.01068    319.44953    128912.67   -40855.111    2637.8159   -43492.927    28.552788   0.96882246 
   16800    217.96504    443.80116    128938.44   -40852.408    2711.8995   -43564.307    28.576313   0.96862883 
   16900    212.69774    188.64193    128854.18   -40831.937    2646.3642   -43478.301    28.506715   0.96926223 
   17000     213.6308    381.59386    128826.61   -40864.635    2657.9733   -43522.609    28.697737   0.96946964 
   17100    215.20902    237.49893    128693.37   -40781.448    2677.6094   -43459.058    28.758006    0.9704734 
   17200    217.53699    308.95652    128826.76   -40795.407    2706.5737   -43501.981    29.081668   0.96946853 
   17300    217.17478    416.45035    128871.66   -40860.184    2702.0672   -43562.251    29.236705   0.96913076 
   17400    216.33222    342.04389    128924.03   -40881.022     2691.584   -43572.606    29.360736   0.96873711 
   17500    216.89564    239.22447    128683.98    -40867.05    2698.5941   -43565.644    29.529992   0.97054422 
   17600    211.19207    237.35045    128544.37   -40835.143    2627.6309   -43462.774    29.580063   0.97159831 
   17700     213.9286    202.53496    128746.89   -40858.727    2661.6785   -43520.405    29.937146      0.97007 
   17800    213.73489     384.2481    128780.23   -40856.869    2659.2684   -43516.137    30.038108   0.96981884 
   17900    213.75263     344.0605    128765.29   -40823.439    2659.4891   -43482.928    30.105369   0.96993136 
   18000    217.17947    439.40153     128804.9   -40769.464    2702.1254    -43471.59    30.088283   0.96963309 
   18100    213.01588    276.58913    128944.36   -40857.678    2650.3226   -43508.001    30.034111   0.96858437 
   18200    218.69236    295.28408    129102.16   -40854.401    2720.9488   -43575.349    30.210723   0.96740044 
   18300    220.59727    249.18075    129128.91   -40776.947    2744.6494   -43521.596    30.311216   0.96720008 
   18400     212.0898    249.06971    128846.35   -40834.631    2638.8003   -43473.431    30.462449   0.96932112 
   18500    212.89609    383.60798    128793.49   -40789.484    2648.8321   -43438.316    30.584506     0.969719 
   18600    215.24543    308.91108    128750.88   -40845.916    2678.0623   -43523.979    30.800437   0.97003994 
   18700    217.09779    380.44117    128860.02   -40823.135    2701.1092   -43524.245    30.836635   0.96921828 
   18800    222.33348    487.35056    128938.58   -40811.979    2766.2512   -43578.231    30.873176   0.96862777 
   18900    219.21805    409.69698    128961.88   -40857.616    2727.4893   -43585.105    30.999809   0.96845281 
   19000    217.44852    418.91515    128935.87   -40838.186     2705.473   -43543.659    31.086239   0.96864818 
   19100    210.64385    297.97513    128929.45   -40887.045      2620.81   -43507.855    31.386205   0.96869639 
   19200    215.87517    342.01201    129032.83   -40858.951    2685.8975   -43544.848    31.558958   0.96792026 
   19300    218.53152    329.71944    128895.27   -40811.326    2718.9476   -43530.273    31.613854   0.96895328 
   19400    217.90973    379.43583    128934.24   -40827.881    2711.2114   -43539.092    31.543355   0.96866042 
   19500    215.54879    364.15347    128869.51     -40821.2    2681.8367   -43503.037    31.844274   0.96914692 
   19600    214.46722    283.36681     128951.8   -40866.176    2668.3799   -43534.556    31.814134   0.96852849 
   19700    217.07785    443.81325    128969.27   -40845.458    2700.8612   -43546.319    31.845507    0.9683973 
   19800    214.58404    314.08662    128992.33    -40886.24    2669.8335   -43556.074    31.837957   0.96822416 
   19900    216.04294    361.00644    128849.92   -40890.965    2687.9849    -43578.95     31.90157   0.96929425 
   20000    212.96533    257.10184    128699.64   -40934.754    2649.6936   -43584.448    31.815629    0.9704261 
   20100    214.94921    338.75879    128585.61   -40879.829    2674.3768   -43554.206    32.016356   0.97128669 
   20200    211.82056    339.94034    128858.26   -40917.151    2635.4504   -43552.601     32.36344   0.96923154 
   20300    209.37475    440.54629    128929.39   -40936.898    2605.0199   -43541.918    32.440045    0.9686968 
   20400     211.8049    502.05773    128939.48   -40929.708    2635.2556   -43564.963    32.501329     0.968621 
   20500    216.09483    345.10434    128864.35   -40896.499    2688.6305    -43585.13    32.408712   0.96918576 
   20600    212.30144    376.54736    129077.66   -40919.144    2641.4335   -43560.578    32.474542    0.9675841 
   20700    214.47676    423.92058    129081.99   -40875.756    2668.4987   -43544.254    32.590312   0.96755166 
   20800    214.32342    141.77711    128920.31   -40880.114    2666.5908   -43546.705    32.795384   0.96876508 
   20900    214.10578    263.35923    128924.56   -40913.929     2663.883   -43577.812    33.038383    0.9687331 
   21000    207.91819    237.22721    128946.54   -40992.451    2586.8975   -43579.348    33.167616   0.96856799 
   21100    212.83348    418.19456    128980.06   -41014.572    2648.0531   -43662.625    33.331843   0.96831627 
   21200    211.72017    472.69634    129009.47   -40994.314    2634.2015   -43628.516    33.401962    0.9680955 
   21300    211.45414    419.87364    129193.41   -40993.589    2630.8915    -43624.48    33.332271    0.9667172 
   21400    212.97705    379.55778    129256.94   -40967.108    2649.8395   -43616.947    33.459876   0.96624204 
   21500    210.50314    413.70273    129186.49   -40953.008    2619.0592   -43572.067     33.45525   0.96676895 
   21600    213.19474    361.80463    129074.64   -40914.416    2652.5478   -43566.964    33.474456   0.96760673 
   21700     217.2858     440.4317    129111.07   -40891.695    2703.4484   -43595.143    33.411627   0.96733372 
   21800    216.56221    362.51011    129184.66   -40882.275    2694.4456    -43576.72    33.626956   0.96678266 
   21900    214.96232    240.76154    128961.58   -40892.301    2674.5399   -43566.841    33.658788   0.96845506 
   22000    214.36716    406.85108    129012.78   -40938.846     2667.135   -43605.981    33.637735   0.96807066 
   22100    213.30226    393.19481    129100.56    -40873.02    2653.8856   -43526.905    33.820371    0.9674125 
   22200    210.59258    346.53942     129026.3   -40888.495    2620.1721   -43508.667    33.760313   0.96796927 
   22300    214.80773    475.36775    129080.63   -40872.107    2672.6166   -43544.724    33.867161    0.9675618 
   22400    217.63543    265.49133    129349.08   -40845.363    2707.7985   -43553.162    34.135906   0.96555376 
   22500    215.57589    366.96104    129174.41   -40852.839    2682.1739   -43535.013     34.28683   0.96685942 
   22600    214.58581     382.4909    129209.84   -40831.362    2669.8555   -43501.218     34.38412   0.96659429 
   22700    217.45664    421.72661    129267.59   -40838.286    2705.5741    -43543.86    34.413339   0.96616243 
   22800    217.16219    475.04599    129381.75   -40820.056    2701.9105   -43521.967    34.520186   0.96530994 
   22900    217.51316    408.24737    129293.16   -40872.001    2706.2772   -43578.279    34.725782   0.96597135 
   23000    215.59389    128.44769    129219.18   -40847.931    2682.3978   -43530.328    34.643543   0.96652439 
   23100    213.49917    381.46555    129236.68   -40957.089    2656.3356   -43613.425    34.749246   0.96639354 
   23200    213.13119    218.47782    129267.41    -40903.04    2651.7573   -43554.797     34.88973   0.96616376 
   23300    211.59766    385.66104    129079.15   -40946.257    2632.6772   -43578.934    35.065058    0.9675729 
   23400    217.14798    363.41578    129133.34   -40872.704    2701.7337   -43574.438    35.017693   0.96716686 
   23500    215.83566    200.68315    128993.01     -40908.1     2685.406   -43593.506    35.035478   0.96821906 
   23600     214.5996    439.41964    128999.44   -40883.182     2670.027   -43553.209    35.114908   0.96817078 
   23700     212.3324    171.07574    128765.32   -40930.018    2641.8188   -43571.836    35.267985   0.96993112 
   23800    210.68379    288.51013    128813.92    -40980.32    2621.3069   -43601.627    35.536543   0.96956515 
   23900    211.30021    260.21671    128936.66   -40982.581    2628.9763   -43611.557    35.459998    0.9686422 
   24000    214.14832    458.73518    128872.72   -40915.044    2664.4122   -43579.456    35.663885   0.96912282 
   24100    215.42662    302.10221    129079.13   -40906.171    2680.3167   -43586.488    35.899284   0.96757308 
   24200    214.53668     348.8119    128801.57    -40961.55    2669.2442   -43630.794    35.807399   0.96965811 
   24300    213.78334    477.81337    128985.42   -40925.583    2659.8712   -43585.454    35.956628   0.96827602 
   24400    211.86176    229.13501    129078.64   -40968.729    2635.9631   -43604.692    35.795415   0.96757678 
   24500    213.94812    470.33492    128987.68   -40928.298    2661.9214    -43590.22    35.800477   0.96825909 
   24600    214.14032    416.96629    129058.33    -40918.45    2664.3127   -43582.763    35.866698   0.96772902 
   24700     214.8416    536.42377    129176.63    -40941.01     2673.038   -43614.048    35.921365   0.96684275 
   24800    214.85626    172.78297    129147.78   -40954.408    2673.2204   -43627.628     36.31944   0.96705879 
   24900    214.28038     491.4018       128999   -40905.105    2666.0553    -43571.16    36.275008   0.96817411 
   25000    218.35421    560.72936    128972.59     -40885.2    2716.7416   -43601.941    36.379532   0.96837238 
   25100    215.22358    316.37407    129109.79   -40909.202    2677.7905   -43586.992    36.356212   0.96734332 
   25200    213.32159     346.0256    129014.58   -40950.903    2654.1261   -43605.029    36.453963   0.96805719 
   25300    213.01766    334.40845    128947.96   -40951.211    2650.3447   -43601.555     36.61614    0.9685573 
   25400    215.18287    301.27515    128790.89   -40931.803     2677.284   -43609.087    36.587608   0.96973851 
   25500    221.13131    302.58586    128939.99   -40884.724    2751.2939   -43636.017    36.668524   0.96861719 
   25600    214.03496    253.30444    129003.34   -40968.071    2663.0018   -43631.073    36.828648   0.96814153 
   25700    212.39711    356.31092       129045   -40987.293    2642.6239   -43629.917    36.965368   0.96782902 
   25800     215.8359    347.43113    128981.24   -40978.143    2685.4089   -43663.552    37.127137   0.96830743 
   25900     213.6023    368.77519    129116.54   -40933.576    2657.6187   -43591.195    36.997812   0.96729272 
   26000    220.85193    396.53953    129181.99   -40870.676    2747.8179   -43618.494    37.147838   0.96680266 
   26100    216.08361    301.68363    129146.16   -40954.693    2688.4909   -43643.184    37.350026   0.96707088 
   26200    214.24558     428.0917    129389.67   -40944.798    2665.6224    -43610.42    37.588551   0.96525085 
   26300    212.88204    283.24334    129282.77   -40914.817    2648.6573   -43563.475    37.787459   0.96604899 
   26400    220.71954     431.4416     129312.9   -40911.814    2746.1707   -43657.985    37.745095   0.96582394 
   26500    218.10953    315.52126    129376.93   -40978.551    2713.6972   -43692.248    37.814222   0.96534592 
   26600    218.37712    375.97114    129339.34   -41029.539    2717.0265   -43746.566    37.934254   0.96562649 
   26700    212.73945    347.22941     129060.7   -41058.608    2646.8831   -43705.492    38.055651   0.96771124 
   26800    216.40137    426.97949    129172.88   -40982.936    2692.4444    -43675.38    38.297055   0.96687086 
   26900    212.09267    324.78264    129389.82   -40973.688    2638.8361   -43612.524    38.188257   0.96524974 
   27000    211.97238    441.03696    129300.31   -40995.187    2637.3394   -43632.526     38.12416   0.96591799 
   27100    214.28613    470.58835    129531.94   -41002.175    2666.1268   -43668.302    38.131715   0.96419068 
   27200    213.56064    559.14015    129549.64   -41031.309    2657.1004   -43688.409     38.39296   0.96405899 
   27300    211.28756    265.63302    129696.23   -41052.425     2628.819   -43681.244     38.53691   0.96296929 
   27400    211.52499    233.97256    129663.45   -40999.123     2631.773   -43630.895    38.885454   0.96321276 
   27500    215.67774    362.96561    129555.32   -40940.593    2683.4411   -43624.034    38.983899   0.96401672 
   27600    215.03895    123.06587    129568.18   -40969.046    2675.4934   -43644.539    38.801949   0.96392103 
   27700    217.86115    206.93192    129512.15   -40969.172    2710.6069   -43679.779    38.887473   0.96433803 
   27800    218.07266    403.53738    129673.19   -40904.032    2713.2385    -43617.27    39.142019   0.96314043 
   27900    216.35009    228.03926    129733.43   -40936.281    2691.8064   -43628.088    39.079616   0.96269317 
   28000    215.95295    421.15429    129560.75    -40977.04    2686.8653   -43663.905    39.112125   0.96397631 
   28100    214.63961    308.91871    129573.59   -40953.159    2670.5248   -43623.684    39.260699   0.96388073 
   28200    214.45936    474.91549    129550.34    -41001.94    2668.2821   -43670.222    39.547877   0.96405378 
   28300    215.68473     245.4345    129687.64   -40993.138     2683.528   -43676.666    39.494355   0.96303307 
   28400    213.32864    384.38721    129735.45   -41040.524    2654.2139   -43694.738    39.522204    0.9626782 
   28500    207.58911    227.78258    129734.18    -41067.82    2582.8032   -43650.623    39.678379   0.96268763 
   28600    217.99152    491.34836    129629.62   -41025.538    2712.2289   -43737.767     39.82348   0.96346415 
   28700    210.23835    325.03999    129709.84   -41051.226    2615.7648   -43666.991    39.720129   0.96286829 
   28800    216.80251    256.37419    129758.63   -41026.768    2697.4354   -43724.203    39.867118   0.96250623 
   28900    214.92628    305.97107    129838.08   -40990.086    2674.0916   -43664.178    39.999236   0.96191726 
   29000     212.6587    355.86907    129794.49   -41066.526    2645.8785   -43712.405    40.156125   0.96224034 
   29100    216.44325    335.25869    130017.72   -41014.867    2692.9655   -43707.832    40.315871   0.96058821 
   29200    216.69749    303.73089    130036.49   -40988.748    2696.1287   -43684.877     40.26977   0.96044958 
   29300    213.86767    369.80125    129986.14   -41032.679    2660.9204     -43693.6    40.436802    0.9608216 
   29400    212.68579    395.61615     130030.7   -41074.281    2646.2156   -43720.497    40.238094   0.96049237 
   29500    211.05937    340.95387       129920   -41098.727    2625.9799   -43724.707    40.250231   0.96131073 
   29600    215.41759    439.31908    129880.74   -41015.178    2680.2044   -43695.382    40.445906   0.96160132 
   29700    211.58171    391.66531    130014.13   -41057.397    2632.4787   -43689.875     40.73212   0.96061472 
   29800     212.5253    317.73665    129924.15   -41026.037    2644.2187   -43670.256    40.853682      0.96128 
   29900    214.56987    369.70935    129759.29   -41056.863    2669.6571    -43726.52    40.718128   0.96250136 
   30000    217.29455    205.41484    129942.35   -41034.349    2703.5573   -43737.906    40.823558   0.96114538 
   30100    218.21101    340.64366    129887.77   -41038.718    2714.9598   -43753.678     40.99235   0.96154927 
   30200    213.09046    335.76697    129841.29   -41057.135    2651.2505   -43708.386    41.145713   0.96189349 
   30300    217.28867    405.05005    129641.43   -41022.073    2703.4841   -43725.557    40.846983   0.96337638 
   30400    213.05137    130.95156    129630.31   -40994.591     2650.764   -43645.355    41.152624   0.96345904 
   30500    218.76279    295.50027    129605.83   -40990.295     2721.825    -43712.12    41.142523   0.96364096 
   30600    216.17554    527.73139    129398.22   -40986.204    2689.6347   -43675.839     41.27479   0.96518707 
   30700    214.55339    217.39169    129534.35   -41010.809    2669.4521   -43680.261    41.340272   0.96417277 
   30800    216.68957    277.11971    129390.28   -40952.495    2696.0302   -43648.526    41.368157   0.96524631 
   30900    215.30555    414.55249    129352.67   -41065.829    2678.8104   -43744.639    41.454851   0.96552697 
   31000    205.08605    384.76981    129151.98   -41099.908    2551.6604   -43651.568    41.448016   0.96702728 
   31100    210.87944    404.52449    129083.88   -41081.465    2623.7411   -43705.206    41.481213    0.9675375 
   31200    211.03621    330.19363    129050.01   -41083.127    2625.6916   -43708.819    41.945193   0.96779145 
   31300    212.11345    328.88327    129283.16   -41042.844    2639.0945   -43681.939    41.930009   0.96604612 
   31400    212.39876    288.44434    129435.31   -41000.391    2642.6444   -43643.035    42.063662   0.96491052 
   31500    209.97054    265.87643    129436.82   -41030.887    2612.4327   -43643.319    42.042815   0.96489925 
   31600    218.84673    348.93067    129415.91   -40955.763    2722.8694   -43678.632     42.23589   0.96505515 
   31700    214.39739    337.17124     129414.2    -40977.47    2667.5112   -43644.981    42.287773   0.96506792 
   31800    218.89389    429.63157    129319.74    -40903.93    2723.4561   -43627.386    42.405591   0.96577285 
   31900     214.4737     352.9385    129073.75   -40885.416    2668.4606   -43553.877    42.336937   0.96761339 
   32000    217.58536    436.10314     129063.2   -40878.054    2707.1755   -43585.229    42.572394   0.96769254 
   32100    218.43869    253.53124    129200.95   -40881.986    2717.7926   -43599.778    42.860997   0.96666082 
   32200    214.13161    319.52628    128956.79   -40858.374    2664.2043   -43522.578    42.854081   0.96849097 
   32300    216.35632    303.00835     128972.1   -40848.727     2691.884   -43540.611    42.791896     0.968376 
   32400    215.76755    365.76229    129226.65   -40918.597    2684.5585   -43603.156    43.065985   0.96646853 
   32500    214.73181    313.48951    129343.18   -40930.256    2671.6719   -43601.928    43.205033   0.96559783 
   32600    213.47102    467.60809    129373.65   -40867.449    2655.9853   -43523.434    43.333425    0.9653704 
   32700    218.37707    413.94768    129609.51   -40943.958     2717.026   -43660.984    43.503462   0.96361365 
   32800    211.75989    128.46663    129348.09   -40991.352    2634.6957   -43626.048     43.58158   0.96556118 
   32900    213.13851    370.29133    129202.36    -41006.63    2651.8483   -43658.478    43.476692    0.9666502 
   33000    212.66574    274.17435    129197.95   -41065.537    2645.9662   -43711.503    43.591729   0.96668326 
   33100    210.75706    333.22886     129031.5   -40995.724    2622.2185   -43617.942    43.430316   0.96793022 
   33200    214.47832    312.72136    129055.52   -41042.759    2668.5181   -43711.277    43.534987   0.96775007 
   33300    214.06692    589.13277    129332.57    -40978.99    2663.3995    -43642.39    43.721154   0.96567705 
   33400    211.56363    229.85855    129617.49   -41063.324    2632.2538   -43695.578    43.914654   0.96355427 
   33500    215.88385    344.36574    129318.16   -41020.728    2686.0056   -43706.733    44.041555   0.96578463 
   33600    214.49831    281.63591    129209.75   -40977.541    2668.7668   -43646.308    44.095956   0.96659498 
   33700    215.44978    426.27126    129285.31    -40958.76    2680.6049   -43639.364    44.114162   0.96603005 
   33800    211.55121    348.30298    129201.49   -40931.751    2632.0992   -43563.851    44.293848   0.96665671 
   33900    213.46857    511.36863    129177.82   -40937.099    2655.9548   -43593.054    44.525188   0.96683387 
   34000    215.23992    549.94357     129212.9   -40897.955    2677.9937   -43575.949    44.509054   0.96657139 
   34100    214.64906    344.06545    129387.01   -40930.672    2670.6424   -43601.314    44.469285    0.9652707 
   34200     214.0914     228.1837    129597.98   -40938.744    2663.7041   -43602.448    44.635744   0.96369936 
   34300    211.78247    335.71828    129554.31   -40985.388    2634.9765   -43620.365    44.717204   0.96402424 
   34400    211.90507    280.68509    129499.55   -40919.326     2636.502   -43555.828    44.787305   0.96443185 
   34500    214.72563    317.75565     129461.8   -40939.753    2671.5951   -43611.348     44.91448   0.96471307 
   34600    216.81016    429.84899    129418.64   -40927.281    2697.5306   -43624.812    45.192921   0.96503476 
   34700    208.07052    413.28449    129390.11    -40982.03    2588.7928   -43570.823    45.148854   0.96524759 
   34800    208.42365    446.35304    129432.58   -40949.024    2593.1864    -43542.21    45.209446    0.9649309 
   34900    207.38229    404.45491    129521.51   -40945.649      2580.23   -43525.879    45.338443   0.96426832 
   35000    209.07362     288.3773    129285.29   -41003.223    2601.2733   -43604.496    45.371239    0.9660302 
   35100    212.12584    324.72938    129267.27   -40947.538    2639.2487   -43586.787    45.296725   0.96616483 
   35200    215.64476    364.59476    129445.65   -40950.464    2683.0308   -43633.495    45.471334   0.96483341 
   35300    215.22604    294.28345    129387.32   -40948.196    2677.8211   -43626.018    45.596234   0.96526841 
   35400    210.61643    389.97113    129361.73   -40968.627    2620.4688   -43589.096      45.6964   0.96545937 
   35500    216.47492    413.78703    129475.97   -40865.678    2693.3595   -43559.037     45.82241    0.9646075 
   35600    214.60006    242.37917    129400.11   -40906.645    2670.0327   -43576.677     45.96626   0.96517301 
   35700    217.66919      489.746    129441.95   -40863.366    2708.2186   -43571.585    46.051018   0.96486105 
   35800    215.58562    241.64052    129469.77   -40897.352    2682.2949   -43579.647    46.294759   0.96465368 
   35900    218.74155    392.85085    129358.86   -40848.906    2721.5608   -43570.467    46.217706    0.9654808 
   36000    217.07829     329.7611    129430.34   -40816.834    2700.8666   -43517.701    46.292619   0.96494759 
   36100    214.92334    295.98192    129213.82   -40831.384     2674.055   -43505.439    46.305171   0.96656451 
   36200    213.58991    426.22143     129246.9   -40859.136    2657.4646     -43516.6    46.291823   0.96631708 
   36300    211.56184    294.67791    129024.29   -40904.767    2632.2315   -43536.999    46.312278   0.96798429 
   36400    216.97442    358.11881       129172    -40845.94    2699.5743   -43545.514    46.517394   0.96687744 
   36500     212.9181    378.68052     129095.9   -40834.929    2649.1059   -43484.035    46.765824   0.96744736 
   36600    208.08941    403.80882    128839.86   -40960.155    2589.0278   -43549.183    46.643638   0.96936999 
   36700    212.82829    370.00116    128961.16   -40896.258    2647.9886   -43544.246    46.792049   0.96845815 
   36800    213.83428    299.48037    128937.24   -40883.121    2660.5049   -43543.626     46.97388   0.96863787 
   36900    209.64249    432.68507    128889.81   -40903.125    2608.3512   -43511.476    47.054351   0.96899428 
   37000    216.49758     390.1932    128783.07   -40838.615    2693.6415   -43532.257    47.155248   0.96979745 
   37100    213.41178    427.90708    128859.32   -40815.397    2655.2482   -43470.645    47.281999   0.96922357 
   37200    214.23541    264.62783    128727.26   -40871.879    2665.4957   -43537.375    47.176766   0.97021792 
   37300    212.45798    305.13622    128761.64   -40875.721    2643.3812   -43519.102     47.17081   0.96995884 
   37400    211.70603    297.81152    128771.32   -40903.889    2634.0255   -43537.914    47.417123   0.96988596 
   37500    211.97606    433.88386     128715.9   -40913.665    2637.3852    -43551.05    47.382473   0.97030349 
   37600    214.81775    433.28006    128709.01   -40872.219    2672.7412    -43544.96     47.38351   0.97035545 
   37700    217.14532    416.91527    128688.02   -40886.489    2701.7006    -43588.19    47.689583   0.97051373 
   37800    210.48985    137.73569     128641.7   -40988.809    2618.8939   -43607.703    47.609998   0.97086322 
   37900    214.87613    266.79442    128655.64   -40946.067    2673.4675   -43619.535    47.703461   0.97075799 
   38000    214.37191    400.97153    128641.28   -40922.895    2667.1941   -43590.089    47.864464   0.97086638 
   38100    216.01824    385.73888    128688.35   -40878.314    2687.6775   -43565.991    47.997384   0.97051127 
   38200    211.62302    379.68212    128749.47   -40869.223    2632.9927   -43502.215    48.090581   0.97005054 
   38300    216.33963    466.24975    128837.81   -40808.847    2691.6763   -43500.524    48.161153   0.96938542 
   38400    214.08099    370.38132    128911.15   -40868.627    2663.5745   -43532.202    48.313182    0.9688339 
   38500    214.75188    371.49244       129043   -40884.533    2671.9216   -43556.454    48.367977   0.96784398 
   38600     217.3193    295.38256    129046.87   -40847.988    2703.8653   -43551.854    48.509368   0.96781498 
   38700    214.69293    295.69728    128999.99   -40860.757    2671.1883   -43531.945    48.827387   0.96816669 
   38800    211.19305    334.10003    129029.36   -40887.222    2627.6431   -43514.865    48.719456   0.96794628 
   38900    214.91197    261.04248    128968.47    -40847.43    2673.9135   -43521.344    48.742773   0.96840331 
   39000    212.63597    305.60721    129120.63   -40895.141    2645.5957   -43540.737    48.803488   0.96726208 
   39100    216.38878    402.34765    128980.82   -40863.869    2692.2878   -43556.157    48.718486   0.96831057 
   39200    213.94176    341.34429    129070.46   -40900.902    2661.8422   -43562.744    48.905739   0.96763804 
   39300    214.49654    404.53235     129161.9   -40888.568    2668.7448   -43557.313    49.141514   0.96695305 
   39400    214.19324    275.55089    128965.92   -40855.026    2664.9711   -43519.998    49.327934   0.96842241 
   39500    217.75108    216.49744    128993.67   -40836.399    2709.2375   -43545.636    49.385276   0.96821408 
   39600    214.47643    312.97189    128931.15   -40878.214    2668.4945   -43546.709    49.163024   0.96868357 
   39700    219.59783    310.80714     128963.9   -40827.942    2732.2145   -43560.156     49.11074   0.96843762 
   39800    219.10561    281.91237    129074.89   -40900.246    2726.0903   -43626.336     49.25522   0.96760486 
   39900    210.96567    96.346383    128958.12   -40963.731    2624.8141   -43588.545    49.524658   0.96848103 
   40000    209.94962     527.6862    128907.18   -40985.707    2612.1724   -43597.879     49.54976   0.96886369 
   40100    213.86839    552.06319    129079.05   -40878.863    2660.9293   -43539.792    49.614362   0.96757366 
   40200    211.12971    366.37024    129371.65    -40910.32     2626.855   -43537.175    49.934084   0.96538529 
   40300    216.73822    577.12898    129591.98   -40892.608    2696.6355   -43589.243     50.12003   0.96374399 
   40400    215.42444    420.72601    129754.68   -40815.473    2680.2896   -43495.762    50.431658   0.96253557 
   40500    219.64276    308.44019    129675.93   -40836.343    2732.7736   -43569.117    50.763261   0.96312009 
   40600    215.90239    275.38741    129578.61   -40896.565    2686.2363   -43582.801    50.697825   0.96384339 
   40700    217.49047    494.19358    129621.47   -40944.207    2705.9949   -43650.202    50.898229   0.96352472 
   40800     214.3121    340.07034    129627.32    -40999.19      2666.45    -43665.64    50.752562   0.96348123 
   40900    212.12023    421.65455     129684.7   -41025.279     2639.179   -43664.458    50.759679   0.96305497 
   41000    213.80207    406.39801    129601.38   -40934.732    2660.1042   -43594.836    51.008334   0.96367409 
   41100    216.20897     399.4205    129547.17   -40924.184    2690.0506   -43614.234    51.057382   0.96407734 
   41200    215.33106    311.18068    129510.67   -40943.268    2679.1277   -43622.396    51.424982   0.96434908 
   41300    207.45723    368.40182    129362.76   -41084.434    2581.1623   -43665.597    51.361368   0.96545165 
   41400    212.68349    348.03762    129382.38    -41036.76    2646.1869   -43682.947    51.156289   0.96530527 
   41500    211.65357    291.16728    129375.17   -41032.476    2633.3728   -43665.849    51.180515   0.96535908 
   41600    210.47018    239.09772    129585.74   -41003.699    2618.6491   -43622.348    51.127115   0.96379036 
   41700    212.15875    473.91101    129558.72   -40969.686    2639.6582   -43609.344    51.315799    0.9639914 
   41800    213.93358    385.20042    129496.91    -40972.69    2661.7405    -43634.43    51.566203   0.96445154 
   41900    209.92272    425.06454    129417.28   -40934.844    2611.8378   -43546.682     51.81492   0.96504491 
   42000    215.36848     301.7269     129376.9   -40919.642    2679.5933   -43599.235    51.873492   0.96534611 
   42100    213.85561     440.5253    129335.54   -40915.283    2660.7703   -43576.053    52.123397   0.96565482 
   42200    212.29947    362.19133    129285.74   -40860.685    2641.4091   -43502.094    51.918937    0.9660268 
   42300    217.15811    282.64201    129278.38   -40833.785    2701.8598   -43535.645    52.032177    0.9660818 
   42400    219.57911     227.6008    129233.28    -40879.19    2731.9816   -43611.171    52.169715   0.96641896 
   42500     212.5754    519.55751    129296.11   -40877.809    2644.8421   -43522.651     52.21151   0.96594935 
   42600    215.97666    455.77157    129139.22    -40885.56    2687.1603    -43572.72    52.169897   0.96712288 
   42700    213.17993    494.50639    129286.82     -40888.2    2652.3637   -43540.563    52.360172   0.96601872 
   42800    215.33259    211.94471    129304.57   -40851.893    2679.1468    -43531.04    52.524829   0.96588614 
   42900    215.60948    371.12234    129251.68   -40924.957    2682.5919   -43607.549    52.638337   0.96628135 
   43000    214.09199    305.79907    129304.61   -40972.111    2663.7114   -43635.822     52.81004    0.9658858 
   43100    213.52742    310.68341    129138.92   -40962.891     2656.687   -43619.578    53.010464    0.9671251 
   43200    215.66668     509.0507    129095.29   -40928.741    2683.3035   -43612.045    53.170736   0.96745199 
   43300    213.16277    419.53136    129187.54   -40931.654    2652.1501   -43583.804    53.110382   0.96676114 
   43400    213.63573    393.20481    129268.53   -40885.359    2658.0346   -43543.394    53.264632   0.96615545 
   43500    214.81456    443.11376    129361.32   -40884.582    2672.7015   -43557.284    53.402706   0.96546238 
   43600    219.69109    345.71182    129516.08   -40777.886    2733.3748   -43511.261    53.370326   0.96430879 
   43700    218.99944    301.65539    129364.79    -40810.11    2724.7694   -43534.879    53.587674   0.96543651 
   43800    217.72365    225.71597    129362.87    -40824.71    2708.8961   -43533.606    53.580308   0.96545087 
   43900     216.7276    310.09658    129290.83   -40874.025    2696.5034   -43570.528    54.061389   0.96598876 
   44000    215.41147    278.64542    129293.58    -40905.08    2680.1282   -43585.208     54.16332   0.96596822 
   44100    214.64934    357.95761    129294.75   -40922.223    2670.6458   -43592.869    53.989315   0.96595949 
   44200    211.55061     299.0359    129239.37   -40955.513    2632.0918   -43587.605      54.2229   0.96637344 
   44300    217.29567    432.63648    129337.65     -40946.3    2703.5712   -43649.871    54.443945   0.96563909 
   44400    218.35845    331.98825    129208.24   -40911.323    2716.7942   -43628.117    54.444104   0.96660623 
   44500    216.95937     316.1925    129253.92   -40938.418     2699.387   -43637.805    54.669659   0.96626462 
   44600    213.88966      375.236    129335.88   -41008.706     2661.194     -43669.9    54.603966    0.9656523 
   44700    219.03463    328.34337    129325.59   -40988.422    2725.2072   -43713.629    54.549793   0.96572911 
   44800     213.7949    412.57697    129356.47   -40960.047     2660.015   -43620.062     54.91689   0.96549861 
   44900    215.49193    403.39225    129274.87   -40917.889    2681.1293   -43599.018    54.891605   0.96610805 
   45000    210.79125    337.59665    129210.35   -40924.565    2622.6439   -43547.209     55.16992   0.96659048 
   45100    218.43967    506.00982    129328.56   -40882.775    2717.8048   -43600.579    55.334951   0.96570695 
   45200    217.07917    390.43435    129119.16   -40946.254    2700.8776   -43647.131    55.228457   0.96727313 
   45300    212.72579    320.28157    129050.81   -40974.488    2646.7133   -43621.201     55.22589   0.96778542 
   45400    218.15181    398.03706    129079.36   -40949.015    2714.2232   -43663.238    55.377806   0.96757138 
   45500    212.63958    372.53084    129104.46   -40957.322    2645.6406   -43602.963    55.487659   0.96738326 
   45600    215.25215    376.24966    128951.03   -40949.154    2678.1459   -43627.299    55.562021   0.96853425 
   45700    211.34553    454.94733    129071.39    -40949.28    2629.5402    -43578.82    55.579102   0.96763111 
   45800    221.43369    378.55634    129230.45   -40895.514    2755.0561    -43650.57    55.705637    0.9664401 
   45900    216.67826     353.7124    128994.48   -40840.568    2695.8895   -43536.458    55.641527   0.96820799 
   46000    218.90822     355.0126    129129.74   -40832.741    2723.6344   -43556.375    55.968784   0.96719385 
   46100    221.56912    333.91563    129144.52   -40792.363    2756.7411   -43549.104    56.284791   0.96708315 
   46200    220.83315    401.57382    129220.97   -40777.418    2747.5842   -43525.002    56.158649     0.966511 
   46300    215.94276    312.99849    129114.84   -40796.314    2686.7385   -43483.053    56.270639   0.96730545 
   46400    217.80251    373.13665    129210.67   -40829.459    2709.8773   -43539.336    56.353752   0.96658806 
   46500    219.77214    417.56701    129119.61   -40835.896    2734.3832    -43570.28    56.751538   0.96726971 
   46600    219.21538    470.21483    129253.41   -40824.188    2727.4561   -43551.644    56.934457   0.96626844 
   46700    216.23355     466.6346     129343.2   -40910.803    2690.3564   -43601.159    56.862305   0.96559765 
   46800    213.36501    289.16276     129507.3   -40967.292    2654.6664   -43621.959    57.158846   0.96437416 
   46900    216.33399    458.74493    129233.83   -40901.876    2691.6061   -43593.482    57.243806   0.96641483 
   47000    215.59808    337.65744    129234.37   -40889.626      2682.45   -43572.076    57.073132   0.96641083 
   47100    217.07362    292.14638    129005.56   -40868.261    2700.8085   -43569.069    56.983689   0.96812487 
   47200    217.68166    390.64544    129160.45   -40926.123    2708.3737   -43634.497    57.195666   0.96696387 
   47300    217.10327    322.98083    128989.65   -40955.283    2701.1775   -43656.461    57.472286   0.96824427 
   47400    218.50175    362.73677    129094.72    -40912.39    2718.5772   -43630.967    57.925203   0.96745621 
   47500    217.58795    299.63629    129207.93   -40866.898    2707.2078   -43574.106    58.063468   0.96660858 
   47600    216.77681    402.51926    129251.13   -40822.845    2697.1156    -43519.96     58.07606   0.96628549 
   47700    212.58264    503.59423    129166.45     -40853.5    2644.9323   -43498.432    58.267959     0.966919 
   47800    214.56859    244.01189    129274.04   -40853.982    2669.6412   -43523.623    58.384392   0.96611426 
   47900    215.75052    482.85225    129204.23   -40929.449    2684.3467   -43613.795    58.379013   0.96663623 
   48000    213.27649    438.95405    129265.15   -40943.196     2653.565   -43596.761    58.468533    0.9661807 
   48100    217.34705    391.13462    129489.46   -40922.447    2704.2105   -43626.658    58.532495   0.96450703 
   48200    214.24317    564.84423    129743.98   -40948.386    2665.5923   -43613.978    58.698295   0.96261492 
   48300     215.3522    317.31276    129780.14   -40935.623    2679.3908   -43615.014    58.897252   0.96234669 
   48400    219.79387    338.05235    129765.45   -40846.492    2734.6535   -43581.146    59.025014   0.96245562 
   48500    215.86353    498.55604    129762.97   -40901.181    2685.7527   -43586.933    59.038158   0.96247408 
   48600    215.66467    245.50688    129512.89   -40900.987    2683.2785   -43584.265    58.813925   0.96433252 
   48700    215.87369    430.64379    129592.13   -40865.989    2685.8791   -43551.868     59.20511   0.96374288 
   48800    217.69534    462.32636    129720.29   -40891.898    2708.5438   -43600.442     59.23127   0.96279069 
   48900    219.00841    415.82901    129632.32   -40875.297     2724.881   -43600.178    59.193533   0.96344407 
   49000    219.12563    472.71319    129599.48   -40904.739    2726.3394   -43631.078     59.33104   0.96368819 
   49100    214.11377      302.603    129544.25   -40905.592    2663.9824   -43569.575    59.404811   0.96409905 
   49200    215.32777    331.22449    129713.47   -40935.406    2679.0868   -43614.493    59.524263   0.96284134 
   49300     216.6678    256.85081    129810.81   -40893.513    2695.7593   -43589.272    59.620417   0.96211932 
   49400    215.34735    388.09041    130018.66   -40874.787    2679.3305   -43554.117    59.779635   0.96058132 
   49500    218.18718     398.1087    130047.17   -40898.312    2714.6633   -43612.976    59.852151   0.96037071 
   49600    213.98951    233.22747    130063.46   -40903.645    2662.4363   -43566.082    60.022977    0.9602504 
   49700    219.79046    268.36499    129987.74   -40917.604    2734.6112   -43652.215    60.166199   0.96080977 
   49800    211.38416    232.95077    129890.24    -40953.59    2630.0209   -43583.611    60.226016   0.96153097 
   49900    215.67734    211.30063    129836.66   -40826.845    2683.4362   -43510.281    60.218212    0.9619278 
   50000    215.38432    468.41275    129753.15    -40852.68    2679.7904   -43532.471    60.281702   0.96254691 
   50100    214.84188    164.31605    129685.75   -40862.739    2673.0415    -43535.78    60.363859   0.96304714 
   50200    216.50871    352.34604    129747.43   -40910.788      2693.78   -43604.568    60.498718   0.96258934 
   50300    217.56463    137.10372    129607.48   -40893.738    2706.9176   -43600.656    60.546519    0.9636287 
   50400    217.23276    478.32194       129658   -40933.257    2702.7885   -43636.046    60.735105   0.96325326 
   50500    213.77369    460.31797    129701.19   -40965.829    2659.7511   -43625.581     60.83205   0.96293253 
   50600    212.42585    395.37114    129654.94   -40990.187    2642.9814   -43633.168    60.887308   0.96327599 
   50700    212.40494    313.29722    129547.87   -41003.648    2642.7213   -43646.369    61.257148   0.96407215 
   50800    212.89471    302.15872    129571.82   -41005.151     2648.815   -43653.966     61.23904   0.96389391 
   50900    216.55088     394.1315    129558.57   -40917.557    2694.3047   -43611.862    61.397233   0.96399253 
   51000     214.1743    500.31083    129487.73   -40955.887    2664.7354   -43620.623     61.84042   0.96451991 
   51100     212.8443     265.1993    129420.85   -40998.814    2648.1877   -43647.002    61.778763   0.96501829 
   51200    214.97142    233.10112    129463.22   -40990.543    2674.6532   -43665.196    61.901467   0.96470249 
   51300    206.45922    233.25981    129426.68   -41055.245    2568.7452    -43623.99    61.745846   0.96497485 
   51400    215.08599    406.64877    129419.12   -41048.611    2676.0786   -43724.689    62.016546   0.96503122 
   51500    211.50397    437.44132    129562.52   -41059.793    2631.5115   -43691.305    62.092168   0.96396313 
   51600    216.11355    417.99164    129411.05   -41006.169    2688.8634   -43695.032    62.140772    0.9650914 
   51700    216.35967    325.61476    129434.21   -41008.735    2691.9257   -43700.661    62.204856   0.96491875 
   51800    215.26912     416.6117     129469.1   -41035.659    2678.3571   -43714.016    62.248234   0.96465865 
   51900    210.57916    354.68915     129587.1   -41071.362    2620.0051   -43691.367    62.269262   0.96378027 
   52000    212.63164    363.09402    129644.07   -41091.231    2645.5418   -43736.773     62.25834   0.96335676 
   52100    215.30353    208.10632    129632.12   -41042.195    2678.7853   -43720.981    62.122871   0.96344555 
   52200    215.22241    410.73565    129665.25   -41050.171    2677.7759   -43727.947    62.400082   0.96319942 
   52300    212.33503    160.72376    129853.45   -41028.415    2641.8514   -43670.267    62.542224   0.96180338 
   52400    213.17619    419.80281    129642.36   -40979.873    2652.3171    -43632.19    62.606939   0.96336948 
   52500    216.29913    348.49941     129592.2   -40970.827    2691.1724   -43661.999    62.910821   0.96374234 
   52600    212.20233     384.9924     129565.8    -40991.88    2640.2004   -43632.081    63.013845   0.96393874 
   52700    214.46676    221.87016    129566.28   -41015.118    2668.3742   -43683.492    62.921017   0.96393515 
   52800    216.63853    409.42357    129616.05   -40973.865    2695.3951    -43669.26    63.129125     0.963565 
   52900    218.35755    345.51089    129459.28   -40972.228    2716.7831   -43689.011    63.148304   0.96473183 
   53000    215.92191    495.86216    129521.07   -40961.688    2686.4791   -43648.167    63.256068   0.96427163 
   53100    215.49877    388.46385    129701.92   -41016.442    2681.2144   -43697.656    63.120158   0.96292711 
   53200    216.03581    455.03635    129636.29   -41013.191    2687.8962   -43701.087    63.088711   0.96341459 
   53300    211.82074    474.96813    129851.39   -41005.149    2635.4527   -43640.602    63.518605   0.96181867 
   53400    213.16836    367.62313    129745.79   -41077.832    2652.2196   -43730.052    63.698942   0.96260151 
   53500    210.69558    102.39506     129833.9    -41068.82    2621.4536   -43690.274    63.672929   0.96194821 
   53600    210.65097    321.54636    129676.98   -41066.702    2620.8985     -43687.6    63.553584   0.96311226 
   53700    207.66748    312.99547    129742.55   -41090.532    2583.7782    -43674.31    63.982536   0.96262551 
   53800     215.1857    460.25558    129569.89   -40966.175    2677.3193   -43643.494    63.755293   0.96390828 
   53900    211.03828    536.50232    129676.05   -41012.959    2625.7174   -43638.676    64.090816   0.96311915 
   54000    213.23909    396.56323     129671.2    -40989.48    2653.0996    -43642.58    64.204361    0.9631552 
   54100    213.89138    344.10402    129753.94   -41001.396    2661.2155   -43662.612    64.271979   0.96254106 
   54200    217.70153    432.12649     130044.2   -40973.643    2708.6209   -43682.264    64.477361   0.96039264 
   54300    215.73713    183.75396     129880.7   -40959.493    2684.1801   -43643.673     64.43839   0.96160162 
   54400    217.04226    383.06351    129930.25   -40988.214    2700.4184   -43688.633    64.576342   0.96123487 
   54500    216.34272    324.75494    130050.26     -40992.3    2691.7147   -43684.015    64.658564   0.96034787 
   54600    219.36865    446.49506     130130.5   -40899.785    2729.3631   -43629.149    64.688479   0.95975568 
   54700    215.84717    356.66474    130078.98   -40899.794    2685.5491   -43585.344    64.732578   0.96013582 
   54800    217.67347    367.49285    130165.07   -40978.766    2708.2718   -43687.038    64.745112   0.95950084 
   54900    214.43971    363.35497    130025.37   -41016.637    2668.0376   -43684.675    64.704282   0.96053174 
   55000    213.67668    315.32783    130150.67   -41067.844    2658.5442   -43726.388    65.126193   0.95960695 
   55100    212.83652    308.39649    130069.14   -41047.029     2648.091    -43695.12    65.411374   0.96020846 
   55200    210.02394    450.95785    130146.98   -41053.475    2613.0972   -43666.572     65.24433   0.95963415 
   55300    214.76926    357.57905    130017.42   -41002.448    2672.1379   -43674.586    65.217932   0.96059047 
   55400    218.90726    466.72327    130181.91   -40965.875    2723.6225   -43689.497    65.394895   0.95937669 
   55500    220.07612    253.35793    130163.78   -40918.872    2738.1653   -43657.038    65.545015   0.95951031 
   55600    213.95933    410.61126    130136.25   -40956.262    2662.0609   -43618.323    65.344529   0.95971334 
   55700    213.24151    391.73276    130017.12   -40970.426    2653.1298   -43623.556    65.375158   0.96059267 
   55800    212.78302    228.87099    129909.75    -40984.11    2647.4254   -43631.535     65.57734   0.96138656 
   55900    215.81119    310.14592    129747.71   -40945.801    2685.1015   -43630.903    65.579797   0.96258726 
   56000    219.38803    499.58986    129700.97   -40943.274    2729.6042   -43672.878    65.536428    0.9629341 
   56100    214.28513    325.91431    129817.56   -40915.547    2666.1144   -43581.661    65.423051   0.96206934 
   56200    214.59295    287.31021    129764.54   -40933.291    2669.9442   -43603.235    65.756502   0.96246241 
   56300    218.82216    525.16838    129871.99   -40948.902    2722.5637   -43671.465    66.081584   0.96166611 
   56400     215.8861    348.95439    129955.68   -40935.204    2686.0336   -43621.238    66.566703   0.96104684 
   56500    208.62837    314.76956    129869.72   -41026.561    2595.7336   -43622.294    66.326292   0.96168295 
   56600    214.87883    486.49285    130046.15   -41032.039    2673.5012    -43705.54    66.352513    0.9603782 
   56700     211.5543    429.66716    129814.75   -41052.591    2632.1377   -43684.729     66.60735   0.96209017 
   56800    216.56914     380.1475    130107.75   -40973.569    2694.5319   -43668.101    66.820774   0.95992357 
   56900    214.54367    329.07412     130083.7   -40949.818    2669.3311   -43619.149    66.806976   0.96010103 
   57000    214.18767    165.31083    130130.42   -40888.923    2664.9018   -43553.825    66.711964   0.95975627 
   57100    218.33993     358.4597    130166.39   -40959.376    2716.5638   -43675.939    66.882818    0.9594911 
   57200    213.06537    167.28272    129854.24   -41006.146    2650.9383   -43657.085    67.020907   0.96179755 
   57300    214.40805    384.35993       129853   -41049.251    2667.6437   -43716.895    67.092058   0.96180674 
   57400    210.11334    251.78991    129734.09   -41052.866    2614.2094   -43667.075    66.836533   0.96268834 
   57500    208.90665    366.99614    129934.16   -41101.131    2599.1959   -43700.327    67.146288   0.96120597 
   57600    209.26103     308.3826    129811.32   -41056.147    2603.6051   -43659.752    67.128919   0.96211558 
   57700    211.52236    351.04013    129818.31    -41089.72    2631.7403    -43721.46    67.091055   0.96206376 
   57800    212.44868    461.34513    129853.18   -41120.243    2643.2655   -43763.508    67.206283   0.96180543 
   57900    210.42223    224.60298    129729.94   -41086.998    2618.0526   -43705.051    67.473087    0.9627191 
   58000    209.97989       337.72    129629.68   -41086.908    2612.5491   -43699.457    67.611279    0.9634637 
   58100    211.66867    405.67888    129505.08   -41015.025    2633.5606   -43648.586    67.619525   0.96439068 
   58200    219.35221    467.70515    129479.86   -40959.521    2729.1585   -43688.679    67.618261   0.96457853 
   58300    216.83852    297.22135    129783.57   -40905.856    2697.8834    -43603.74    67.775806   0.96232128 
   58400    215.39533    184.50762    129643.17   -40900.094    2679.9274   -43580.022     67.71346   0.96336343 
   58500    217.15481     417.6315    129554.07   -40906.691    2701.8187    -43608.51    67.651202   0.96402602 
   58600    216.11163    298.21397    129618.07   -40873.078    2688.8395   -43561.917    67.769413   0.96354996 
   58700    215.19781    399.98305    129668.66   -40882.135    2677.4698   -43559.605    67.864425   0.96317406 
   58800     218.8612    303.63647    129674.59   -40944.691    2723.0495   -43667.741    67.953206   0.96313001 
   58900    216.24348    428.46854    129581.87   -40989.378      2690.48   -43679.858    67.968215   0.96381919 
   59000     214.3641    326.03292    129559.46   -40978.108    2667.0969   -43645.205    68.276035   0.96398589 
   59100    212.89933    226.80199    129412.58   -40974.772    2648.8724   -43623.645    68.274441   0.96507998 
   59200    216.88103    345.68268    129557.17   -41001.238    2698.4123   -43699.651    68.221018   0.96400292 
   59300    213.63992    475.37434    129678.26     -40996.3    2658.0868   -43654.387    68.363049   0.96310277 
   59400    212.52606    439.93244    129746.06   -41053.608    2644.2282   -43697.836    68.320931   0.96259949 
   59500     212.6171    164.24742    129740.25    -41016.93    2645.3609   -43662.291    68.250999   0.96264262 
   59600    216.11347    246.33282    129622.16   -41001.355    2688.8624   -43690.218    68.380118   0.96351962 
   59700    211.70474    398.71723    129649.75   -41022.544    2634.0095   -43656.554    68.511992   0.96331452 
   59800    211.30396    271.88567    129822.45   -41026.047     2629.023    -43655.07    68.714407   0.96203306 
   59900    214.48321    346.13922    129828.06   -40998.826     2668.579   -43667.405    68.693581    0.9619915 
   60000    212.92885    281.63967     129802.4   -41040.364    2649.2397   -43689.603    68.696302   0.96218171 
   60100    213.74918    294.03204    129908.48   -41010.949    2659.4462   -43670.395    69.006107   0.96139602 
   60200    216.15279    287.69824    129748.49   -40998.367    2689.3516   -43687.719    69.034648   0.96258144 
   60300    214.93943    299.56592    129662.55   -40956.483    2674.2551   -43630.738    69.208543   0.96321942 
   60400    220.98112    387.96844    129848.11   -40906.572    2749.4252   -43655.997    69.188739     0.961843 
   60500    216.05478    307.70272    129749.52   -40937.907    2688.1322   -43626.039    68.924689   0.96257379 
   60600    213.98986    300.09848    129787.41   -40978.571    2662.4407   -43641.011    69.238209    0.9622928 
   60700    214.14429     344.4212    129593.06   -40989.479    2664.3621   -43653.841    69.214277   0.96373596 
   60800    216.37565    383.85424    129545.46    -40956.62    2692.1244   -43648.744    69.352476   0.96409006 
   60900    218.23486    266.41089    129609.81   -40956.537    2715.2566   -43671.793    69.386003   0.96361142 
   61000    216.58946    362.71231    129437.58    -40997.12    2694.7846   -43691.905    69.453816   0.96489357 
   61100    214.73627    416.01452    129604.84   -41033.607    2671.7275   -43705.334    69.532159   0.96364837 
   61200    213.91928    439.37202    129509.42   -41034.542    2661.5625   -43696.105      69.7496   0.96435837 
   61300    212.71639    338.09632     129530.1   -41014.923    2646.5963    -43661.52    69.951416   0.96420441 
   61400    215.21305    365.15472    129555.18   -41064.866    2677.6594   -43742.525    69.902848   0.96401776 
   61500     215.3349    421.62884    129522.72   -41068.288    2679.1755   -43747.464    69.899083   0.96425933 
   61600    214.18585    459.82746    129364.63   -41038.733    2664.8792   -43703.613    69.924771   0.96543774 
   61700    212.79307    360.33547    129442.98   -41107.996    2647.5503   -43755.547    70.139118   0.96485331 
   61800    208.82765    460.66808    129579.01   -41157.369    2598.2129   -43755.582    70.518254   0.96384043 
   61900    210.10551    367.47808    129524.67   -41088.802     2614.112   -43702.914    70.468532   0.96424483 
   62000    217.54153    263.14606    129505.93    -41048.07    2706.6302     -43754.7    70.320771   0.96438434 
   62100    212.26018      285.761    129411.09   -41060.873    2640.9201   -43701.793       70.553   0.96509109 
   62200    213.26389    411.76507     129516.4   -41014.186    2653.4083   -43667.595    70.558264   0.96430638 
   62300    215.98687    350.56962     129363.7   -41047.674    2687.2873   -43734.961    70.404334   0.96544465 
   62400    214.25198    371.40784    129347.64   -40984.379     2665.702   -43650.081    70.702901    0.9655645 
   62500    213.64194    435.09716    129332.86   -40992.285     2658.112   -43650.397    70.688813   0.96567483 
   62600    216.75598    331.54616    129376.78   -41005.913    2696.8564   -43702.769    70.704755   0.96534701 
   62700     211.6929    341.85263    129351.69   -41022.301    2633.8622   -43656.163    70.851933   0.96553428 
   62800    216.44986    428.97481    129386.76   -40996.782    2693.0477    -43689.83    70.857948   0.96527257 
   62900    218.04662    358.95098    129180.94   -40937.769    2712.9145   -43650.683    71.225562    0.9668105 
   63000    215.88521    249.65576    129221.17   -40896.564    2686.0224   -43582.586     71.15122   0.96650952 
   63100    220.26821    329.70888    129315.81   -40878.717    2740.5553   -43619.272    71.199954   0.96580217 
   63200    215.91394     303.8541    129184.03    -40912.93    2686.3799    -43599.31    71.397825   0.96678736 
   63300    215.68822    412.70563       129179   -40943.333    2683.5715   -43626.904    71.176748   0.96682501 
   63400    216.57681    247.53833    129329.11   -40869.362    2694.6272   -43563.989    71.334638   0.96570287 
   63500    215.94464    370.43114    129331.43    -40954.81    2686.7619   -43641.572     71.57603   0.96568556 
   63600    216.32371    376.72218    129334.38   -40949.729    2691.4782   -43641.207    71.649982   0.96566352 
   63700    216.14463    119.18913       129181   -40966.983    2689.2501   -43656.233     71.64534   0.96681004 
   63800    214.66019    331.83767    129281.18   -41072.467    2670.7809   -43743.248    71.660327    0.9660609 
   63900    211.58087    304.34611    129268.04   -41058.003    2632.4682   -43690.471    71.777955   0.96615909 
   64000     214.2966    584.11783    129335.88   -41048.791    2666.2572   -43715.048    71.941622   0.96565231 
   64100     213.3563    169.03748    129393.38   -40971.128     2654.558   -43625.686    71.818997    0.9652232 
   64200    215.52192    425.50431    129456.43   -40962.785    2681.5025   -43644.288    72.092877    0.9647531 
   64300    214.19714    352.74718    129667.95   -40881.043    2665.0196   -43546.063    72.365141   0.96317931 
   64400    216.48075    316.32088    129426.36   -40903.214    2693.4322   -43596.646    72.474467   0.96497724 
   64500    215.43704    265.41522    129567.57   -40891.146    2680.4464   -43571.592    72.833973   0.96392551 
   64600    215.31829    333.44024    129719.58   -40941.745    2678.9688   -43620.714    72.949185   0.96279597 
   64700    212.16586    335.78111    129716.21   -40953.691    2639.7467   -43593.438    73.144504   0.96282103 
   64800    213.01788    254.75931    129660.53   -40962.636    2650.3474   -43612.984     73.26822    0.9632345 
   64900    215.63457    292.06025    129639.61   -40946.866     2682.904    -43629.77    73.270925    0.9633899 
   65000    218.35007    371.36555    129593.41    -40907.46      2716.69    -43624.15    73.255141   0.96373334 
   65100    213.84637    423.73563    129528.78    -40926.96    2660.6554   -43587.616    73.061485   0.96421422 
   65200     215.1826    345.26785     129547.9   -40908.265    2677.2807   -43585.546    73.172505   0.96407188 
   65300    215.41952     312.8056    129554.57   -40906.276    2680.2284   -43586.504    73.285542   0.96402225 
   65400    217.65737    340.93936    129543.63   -40853.538    2708.0715    -43561.61    73.356461   0.96410366 
   65500    214.22374    391.04231    129582.12    -40917.74    2665.3506    -43583.09    73.447617   0.96381731 
   65600    210.47155      363.973    129376.57   -40954.219    2618.6662   -43572.885    73.423713   0.96534858 
   65700    213.52742    410.37934    129496.51   -40990.578     2656.687   -43647.265     73.29829   0.96445452 
   65800    212.33365    320.31902    129715.13     -41007.1    2641.8343   -43648.935    73.438791   0.96282898 
   65900     212.6168    241.31545    129623.52   -40985.635    2645.3572   -43630.992    73.871915   0.96350951 
   66000    213.89331    244.48951       129570   -40882.407    2661.2394   -43543.646       73.897   0.96390746 
   66100    219.03359    318.13888    129544.02   -40817.264    2725.1942   -43542.458     73.83425   0.96410076 
   66200    217.65118    389.00782    129621.61   -40792.144    2707.9945   -43500.139    73.746105   0.96352367 
   66300    214.64519    322.49341    129685.27   -40819.114    2670.5943   -43489.708    73.971349    0.9630507 
   66400    215.09966    393.09046    129539.49   -40864.693    2676.2487   -43540.942    74.142724   0.96413448 
   66500    212.22233    418.77949    129422.44   -40897.169    2640.4493   -43537.619    74.298959   0.96500645 
   66600    215.55847    312.37271    129534.36   -40921.104    2681.9571   -43603.061     74.33363   0.96417268 
   66700    210.22111    371.37711    129223.66   -40947.667    2615.5503   -43563.217    74.394817   0.96649088 
   66800    213.44312    255.98043    129499.63   -40887.197    2655.6382   -43542.835    74.754993   0.96443123 
[...]
   84600    214.33852    503.84709    128990.53   -40993.537    2666.7786   -43660.315    92.126904   0.96823766 
   84700    214.71623    351.96101    129171.84   -41018.572    2671.4782    -43690.05    92.241705   0.96687865 
   84800    212.65223    247.79744    129091.56   -40989.582     2645.798    -43635.38    92.218211   0.96747992 
   84900    211.49463    251.09036    129093.71   -40961.527    2631.3953   -43592.922    92.523344   0.96746378 
   85000    214.31978    368.04672    129201.21    -40916.64    2666.5455   -43583.185    92.552836   0.96665887 
   85100    215.23241    326.92996    129251.31   -40911.736    2677.9003   -43589.636     92.65707   0.96628411 
   85200    216.45164    323.52447    129216.29   -40927.523    2693.0699   -43620.593    92.725619   0.96654604 
   85300    212.21096    521.70979    129211.62   -40966.849    2640.3078   -43607.157     92.89807   0.96658095 
   85400    213.80943    179.42487    129507.55   -40939.175    2660.1958   -43599.371      93.3152   0.96437229 
   85500    211.64479    370.65162    129352.69   -40917.035    2633.2636   -43550.299    93.564626   0.96552685 
   85600    212.56363    292.82937    129310.64    -40883.48    2644.6956   -43528.175    93.444627   0.96584077 
   85700    216.38508    209.20803     129194.7   -40935.197    2692.2418   -43627.439    93.583619   0.96670752 
   85800    217.19899    361.89753    129278.04   -40951.294    2702.3684   -43653.663    93.689664   0.96608434 
   85900    218.40804    519.43013    129244.86   -40857.661    2717.4113   -43575.072    94.010234    0.9663324 
   86000    214.01457    222.85164     129261.2   -40904.439    2662.7481   -43567.187    94.094443   0.96621019 
   86100    217.34758    442.41266    129048.28   -40891.749    2704.2172   -43595.966    94.051683   0.96780442 
   86200    217.90898    188.73207    129245.66   -40866.352     2711.202   -43577.554    94.120033   0.96632638 
   86300    217.71659    288.23329    129067.81   -40904.255    2708.8083   -43613.063    94.095521   0.96765794 
   86400    215.65288    258.80568    129128.35   -40908.334    2683.1319   -43591.466    94.354241   0.96720426 
   86500    214.27446    618.05903    129193.15   -40884.624    2665.9817   -43550.606    94.536524   0.96671914 
   86600     218.4293    261.89813    129261.43     -40829.2    2717.6757   -43546.876     94.65184   0.96620847 
   86700    218.13176     264.6268    129330.35   -40822.597    2713.9738   -43536.571    95.087529   0.96569357 
   86800    216.49539    326.58578    129134.21   -40887.129    2693.6143   -43580.743    95.031841   0.96716037 
   86900    218.42573    314.97839    129291.43   -40848.835    2717.6313   -43566.466    94.777557    0.9659843 
   87000    213.51638    463.17664    129402.05   -40847.847    2656.5498   -43504.397    95.008175   0.96515849 
   87100    210.62117    310.82757    129590.58   -40883.202    2620.5278   -43503.729    95.413601   0.96375436 
   87200    215.64278     415.2504    129607.14   -40876.811    2683.0061   -43559.817    95.981095   0.96363122 
   87300    218.47307    265.89494    129753.09   -40886.177    2718.2203   -43604.398    96.253267   0.96254734 
   87400    215.14086    253.48071    129531.17   -40898.479    2676.7613   -43575.241    96.094463   0.96419639 
   87500     218.2383    297.59637    129622.24   -40920.647    2715.2993   -43635.947    96.097932   0.96351899 
   87600    217.43295    328.09836    129512.67   -40934.231    2705.2793    -43639.51    96.145674   0.96433414 
   87700    218.68262    301.46988    129549.42   -40930.158    2720.8276   -43650.986    96.244473   0.96406058 
   87800    214.55787    417.25808    129496.74   -40916.819    2669.5078   -43586.326    96.268983   0.96445275 
   87900     215.2956    436.73466    129535.37    -40945.03    2678.6865   -43623.717    96.317966   0.96416518 
   88000    211.76465    312.93605    129569.71    -40970.76    2634.7548   -43605.515    96.223783    0.9639096 
   88100    218.38017    241.46988       129514   -40901.949    2717.0645   -43619.014    96.591426   0.96432424 
   88200    211.79744    308.50991    129445.18   -40863.988    2635.1628   -43499.151    96.557151    0.9648369 
   88300    216.39849    322.61137    129410.09   -40889.215    2692.4087   -43581.624    96.665318   0.96509856 
   88400    212.85018    191.33835    129163.53   -40994.857    2648.2609   -43643.118    96.569417   0.96694087 
   88500    218.24913    361.91331    129397.54   -40904.064    2715.4341   -43619.498    96.879288    0.9651922 
   88600    217.65737    472.03148    129398.98   -40871.288    2708.0715   -43579.359    97.028817   0.96518138 
   88700    215.43378    413.92298    129602.95     -40853.5    2680.4058   -43533.906    97.261107   0.96366243 
   88800    218.51543    345.19295    129598.55   -40796.386    2718.7474   -43515.134    97.468808   0.96369514 
   88900    219.00804    223.09888    129418.24   -40854.623    2724.8763   -43579.499    97.638171   0.96503777 
   89000    217.75244    442.96918    129477.67   -40831.529    2709.2544   -43540.783    97.756639   0.96459485 
   89100    210.08638    331.26085    129506.53   -40932.698     2613.874   -43546.572    97.869284   0.96437991 
   89200    212.04182    351.07827    129128.53   -40949.116    2638.2034   -43587.319    97.611069   0.96720294 
   89300    213.83967    414.49453       129259   -40952.426    2660.5721   -43612.998    98.091551   0.96622668 
   89400    212.00422    336.34925    129289.42   -40972.938    2637.7356   -43610.673    98.122998    0.9659993 
   89500    212.52808    427.41819    129302.55   -41007.487    2644.2534    -43651.74    98.399982   0.96590121 
   89600    213.03999    292.23138    129244.59   -41043.617    2650.6225    -43694.24    98.708679   0.96633437 
   89700    212.31734    273.19724    129141.77   -41010.175    2641.6314   -43651.806    98.484845   0.96710373 
   89800    212.61808    255.88815    129163.11   -40973.421    2645.3731   -43618.794     98.33155   0.96694395 
   89900    212.91089    339.49649    129114.27   -41015.226    2649.0162   -43664.242    98.492131   0.96730973 
   90000    213.93854    334.55458    129365.88   -40937.215    2661.8022   -43599.017    98.884549   0.96542838 
   90100    213.95787    243.88805    129244.74   -40938.422    2662.0427   -43600.465    98.775447   0.96633327 
   90200    213.04774    514.05853    129198.03   -40960.744    2650.7189   -43611.462    98.996937   0.96668261 
   90300    213.32188    258.38762    129118.88   -40962.048    2654.1297   -43616.178    98.897676    0.9672752 
   90400    215.08272    392.03616    129202.09   -40954.565    2676.0379   -43630.603    99.009916   0.96665222 
   90500    214.00831     321.0812    129042.47   -40938.556    2662.6702   -43601.226    99.114402   0.96784794 
   90600    217.54583    319.84996    128926.83   -40864.247    2706.6837   -43570.931    99.003554   0.96871603 
   90700    216.16625      398.421    129105.37   -40886.001    2689.5191    -43575.52    98.869076    0.9673764 
   90800    213.81022    282.57756    128992.78   -40925.075    2660.2056    -43585.28    98.939565   0.96822083 
   90900     211.2903    324.28972    128936.76    -41009.23     2628.853   -43638.083    99.448243   0.96864144 
   91000    210.16296    290.95024    128909.68   -41012.213    2614.8268    -43627.04    99.257709   0.96884491 
   91100    211.05345    439.34877    128913.92   -40989.105    2625.9062   -43615.011    99.424832   0.96881306 
   91200    215.54992     511.1624    128961.41   -40939.068    2681.8508   -43620.919    99.838067   0.96845629 
   91300    216.50164     364.5118    128981.41   -40842.914     2693.692   -43536.606    99.981905   0.96830611 
   91400    219.21107     419.7117     129085.7    -40808.85    2727.4024   -43536.253    99.952644    0.9675238 
   91500    215.61814    392.05077    129184.24   -40815.527    2682.6996   -43498.226    100.21005   0.96678579 
   91600     217.6264    288.96371    129069.46   -40841.334    2707.6862    -43549.02    100.46694   0.96764559 
   91700    215.13826    440.84239    129242.82   -40904.635     2676.729   -43581.364    100.47199   0.96634764 
   91800    212.76122    188.41779     129397.3   -40870.414     2647.154   -43517.568    100.63699   0.96519398 
   91900    216.47078    325.19498    129355.14   -40872.854    2693.3081   -43566.162    100.71404   0.96550853 
   92000    210.24943    517.92769    129360.55   -40885.505    2615.9026   -43501.408     100.9001   0.96546817 
   92100    211.28262    215.91199    129175.23   -40934.428    2628.7575   -43563.185    101.06093   0.96685329 
   92200    214.93477     460.2908     129137.1   -40871.725    2674.1971   -43545.922    101.03904    0.9671387 
   92300    215.27329    228.37119    129278.56   -40773.992     2678.409   -43452.401     101.1496   0.96608049 
   92400    215.88405    306.01297    129059.52   -40768.509     2686.008   -43454.517    101.16399    0.9677201 
   92500    212.13502    184.60592    129181.78   -40800.353     2639.363   -43439.716    100.92625   0.96680422 
   92600    215.69135    214.76976    129288.36   -40774.929    2683.6104   -43458.539    101.06269   0.96600722 
   92700    219.21242    377.02658    129374.92   -40770.555    2727.4193   -43497.974    101.39076   0.96536094 
   92800    215.57081     324.3309    129182.37   -40823.311    2682.1108   -43505.422    101.64955   0.96679981 
   92900    217.74382     318.5251    129365.42   -40811.034    2709.1471   -43520.181    101.57022   0.96543182 
   93000    214.45936    231.38188    129098.96   -40847.306    2668.2822   -43515.589    101.53883   0.96742446 
   93100     215.4316    328.93198    129187.38   -40786.046    2680.3787   -43466.425    101.65274   0.96676232 
   93200    218.11743    173.25061    129351.84   -40806.378    2713.7954   -43520.174    102.14939   0.96553313 
   93300    213.19494    422.49955    129116.86   -40827.166    2652.5503   -43479.717    102.44501   0.96729034 
   93400    212.23671    495.05671    128906.03   -40851.627    2640.6282   -43492.255    102.61986   0.96887234 
   93500    215.30692    368.09574    129090.99   -40894.538    2678.8274   -43573.365    102.55739   0.96748416 
   93600    211.36388    574.72219    128996.53   -40963.861    2629.7685   -43593.629     102.6267   0.96819265 
   93700    213.90761    279.97721    128886.23   -40924.835    2661.4173   -43586.253    102.64934   0.96902124 
   93800    216.08431     298.9844     128925.9   -40895.892    2688.4997   -43584.392    102.89106   0.96872307 
   93900    216.80958    357.34296     129064.6   -40879.344    2697.5234   -43576.868    102.96506   0.96768202 
   94000    215.67736    239.83179    128994.69   -40887.303    2683.4364   -43570.739     102.9829   0.96820643 
   94100    216.10449    545.01511    129104.76   -40893.942    2688.7508   -43582.693    103.06042   0.96738102 
   94200    212.38779    492.73186    129169.77   -40902.173    2642.5079   -43544.681     103.3088   0.96689409 
   94300    212.97766    305.50378     129107.9   -40861.138     2649.847   -43510.985     103.5529   0.96735745 
   94400    216.84141    356.21185    129142.82   -40862.308    2697.9194   -43560.228    103.68195    0.9670959 
   94500    216.08319    308.37859    128981.31    -40803.15    2688.4857   -43491.635    103.78974   0.96830691 
   94600    215.43576     270.6534    128951.94   -40834.704    2680.4305   -43515.135    103.83334   0.96852745 
   94700    212.49611    342.46599    128816.59    -40864.66    2643.8556   -43508.515    104.26035   0.96954507 
   94800    214.52888    363.65178    128970.55   -40859.574    2669.1471   -43528.721    104.67903   0.96838769 
   94900    216.90515    553.57466    129047.34   -40849.677    2698.7125    -43548.39    104.72277   0.96781146 
   95000    218.56787    187.15336    129263.71   -40842.224    2719.3999   -43561.624     104.5727   0.96619145 
   95100    220.67466    376.39636    129232.32   -40849.147    2745.6123   -43594.759    104.50849   0.96642613 
   95200    215.77556    277.56271    129176.86   -40869.247    2684.6582   -43553.906     104.3949   0.96684108 
   95300    217.28738     304.3762    129238.12   -40776.014    2703.4681   -43479.482    104.41297   0.96638273 
   95400    216.20473    229.90789    129128.16   -40830.844    2689.9979   -43520.841    104.47953   0.96720565 
   95500    217.86124    289.20456    129035.07   -40834.605     2710.608   -43545.214     104.3771   0.96790348 
   95600    217.55283    447.10873    129020.57   -40809.132    2706.7709   -43515.902    104.33773   0.96801227 
   95700    217.96181    470.43709    128933.75   -40871.137    2711.8592   -43582.996    104.75665   0.96866403 
   95800    211.64286    368.27301    128882.21   -40928.468    2633.2395   -43561.707    104.62475   0.96905145 
   95900    216.02374    278.44029    128783.31    -40877.48     2687.746   -43565.226    104.58828    0.9697956 
   96000    214.54949    238.07174    128811.47   -40948.283    2669.4035   -43617.687    104.80364   0.96958363 
   96100    216.31633    485.18622    128811.81   -40900.018    2691.3864   -43591.405    104.81142   0.96958106 
   96200     214.6407     456.2514    129039.52   -40935.924    2670.5384   -43606.463    104.99164   0.96787011 
   96300    214.64499    421.36177    129003.36   -40878.996    2670.5918   -43549.588    105.23854   0.96814141 
   96400    212.76164    238.25141    128973.28   -40859.361    2647.1593    -43506.52    105.25954   0.96836714 
   96500    216.39224    197.63986     128940.6   -40903.698    2692.3309   -43596.029    105.20713   0.96861258 
   96600    216.09283    338.20912    129030.52   -40907.635    2688.6056   -43596.241    105.65111   0.96793763 
   96700    212.01254    460.67701    129037.41   -40977.036    2637.8391   -43614.875    105.77356    0.9678859 
   96800    209.00467    577.60719    129117.54   -41023.703    2600.4154   -43624.118    105.95318   0.96728522 
   96900    210.94608    446.78158    129086.43   -40949.276    2624.5703   -43573.846    105.79698   0.96751836 
   97000    208.91467    289.52389    128972.73   -40946.768    2599.2957   -43546.064    105.52344   0.96837133 
   97100    210.16031    157.77835    128874.05   -40934.276    2614.7938   -43549.069    105.52063   0.96911278 
   97200    211.15988    75.012246    128906.28   -40959.635    2627.2303   -43586.865    105.94933   0.96887051 
   97300    212.80071    377.56902    128873.69   -40958.141    2647.6454   -43605.786    106.22364   0.96911554 
   97400    212.29345    391.76451    128800.17   -40953.547    2641.3341   -43594.882    106.66197   0.96966867 
   97500    214.25167    557.11699     128918.6   -40858.895    2665.6982   -43524.593    106.99368   0.96877792 
   97600    212.57862    285.73048    128814.74   -40926.156    2644.8822   -43571.038    107.02581   0.96955904 
   97700    213.92908    407.39966    128648.82    -40851.96    2661.6845   -43513.644    106.75296   0.97080948 
   97800    217.50646    297.93452    128824.51   -40839.724    2706.1939   -43545.918     106.9448    0.9694855 
   97900    217.76122    344.27542    129022.13   -40810.203    2709.3636   -43519.567    107.15831   0.96800054 
   98000    214.95384    442.41238    129012.04   -40830.001    2674.4345   -43504.435    107.09349   0.96807627 
   98100    214.56773    330.99197    128917.12   -40910.862    2669.6305   -43580.493    107.28284   0.96878899 
   98200    213.57779     406.2581    129020.55   -40891.152    2657.3137   -43548.466    107.31277    0.9680124 
   98300    209.59955    291.50618    128873.39   -40909.626    2607.8169   -43517.443    107.36061   0.96911778 
   98400    215.76486    385.99154    129161.27   -40920.837    2684.5251   -43605.362    107.73192   0.96695777 
   98500    211.24718    316.60283    129224.16   -40929.837    2628.3165   -43558.154    108.11764   0.96648713 
   98600    210.53402    448.09856    129100.06   -40965.175    2619.4434   -43584.618    107.99799   0.96741621 
   98700     207.3548    316.76671    129181.68   -41015.361    2579.8879   -43595.249    107.92467   0.96680495 
   98800    211.17995    351.85374    129117.14   -40986.821      2627.48   -43614.301     107.8681   0.96728824 
   98900    208.95255    496.73338    129228.33   -40977.831    2599.7669   -43577.597    108.33053   0.96645598 
   99000    208.10829    223.33306    129143.84   -41009.803    2589.2627   -43599.065    108.45348   0.96708829 
   99100     212.3722    383.63848    129131.18   -40929.872    2642.3139   -43572.186    108.52441   0.96718309 
   99200    212.87736    328.98208    129090.63   -40923.198    2648.5991   -43571.798    108.34503   0.96748689 
   99300     214.2118    345.07008    129055.19   -40879.431    2665.2021   -43544.633     108.3695   0.96775255 
   99400    217.01788    402.18247    129020.05   -40847.198     2700.115   -43547.312    108.69331   0.96801615 
   99500    217.76943    310.66258    129129.67   -40727.339    2709.4657   -43436.804    108.93504    0.9671944 
   99600    220.78554    186.52394    129041.59    -40740.78    2746.9919   -43487.772    109.06264   0.96785458 
   99700    220.49127    493.73305    129061.59   -40745.679    2743.3306    -43489.01    109.08412    0.9677046 
   99800    218.81669    484.43606    129198.23   -40756.355    2722.4956   -43478.851    109.18689   0.96668111 
   99900    216.32573    357.40664     129217.4   -40808.874    2691.5033   -43500.377    109.51708   0.96653771 
  100000    217.01115    357.10397    129251.33   -40813.491    2700.0313   -43513.522    109.76936   0.96628396 
  100100    214.54078    264.70963    129353.29   -40738.673    2669.2952   -43407.968    110.15457   0.96552231 
  100200    216.28003    361.96868    129241.97   -40735.293    2690.9348   -43426.227    110.41609   0.96635401 
  100300    220.48496    453.55371     129287.1    -40723.18    2743.2521   -43466.432    110.42827   0.96601664 
  100400    219.59856    363.22381    129176.29   -40767.659    2732.2235   -43499.882    110.48919   0.96684528 
  100500    221.89019    421.70447     129243.4   -40704.417    2760.7358   -43465.153    110.55574   0.96634327 
  100600    216.83463    308.02669    129076.49    -40793.96    2697.8351   -43491.795     110.7472   0.96759285 
  100630    217.12297    599.18052    129214.58   -40781.308    2701.4225   -43482.731    110.83429   0.96655884 
Loop time of 84.8208 on 6 procs for 100000 steps with 4175 atoms

Performance: 509.309 ns/day, 0.047 hours/ns, 1178.956 timesteps/s
98.5% CPU use with 6 MPI tasks x no OpenMP threads

MPI task timing breakdown:
Section |  min time  |  avg time  |  max time  |%varavg| %total
---------------------------------------------------------------
Pair    | 68.226     | 69.648     | 70.426     |  10.2 | 82.11
Neigh   | 4.9951     | 5.0127     | 5.0326     |   0.6 |  5.91
Comm    | 6.8073     | 7.58       | 9.0177     |  31.3 |  8.94
Output  | 0.15893    | 0.15977    | 0.1634     |   0.4 |  0.19
Modify  | 1.7587     | 1.7835     | 1.8081     |   1.1 |  2.10
Other   |            | 0.6366     |            |       |  0.75

Nlocal:        695.833 ave         708 max         681 min
Histogram: 1 0 1 0 0 1 1 1 0 1
Nghost:        1469.33 ave        1478 max        1456 min
Histogram: 1 1 0 0 0 0 1 0 1 2
Neighs:        0.00000 ave           0 max           0 min
Histogram: 6 0 0 0 0 0 0 0 0 0
FullNghs:      19588.0 ave       19937 max       19176 min
Histogram: 1 0 1 0 0 2 0 0 1 1

Total # of neighbors = 117528
Ave neighs/atom = 28.150419
Neighbor list builds = 5402
Dangerous builds = 0

undump              1
unfix               2
unfix               3
unfix               4


################################################
#######         Run Simulation         #########
################################################

reset_timestep      0
log                 log.run_${NAME}
log                 log.run_liquid_density_MLmW
