
# Define the lattice
#
variable	    lattice_constant equal 6.36339
lattice		    diamond ${lattice_constant}
lattice		    diamond 6.36339
Lattice spacing in x,y,z = 6.3633900 6.3633900 6.3633900

# Define region
# multiples of lattice spacing
#
region 		    simbox block 0 8 0 8 0 8

# Create Atoms
#
create_box          1 simbox
Created orthogonal box = (0.0000000 0.0000000 0.0000000) to (50.907120 50.907120 50.907120)
  1 by 2 by 3 MPI processor grid
create_atoms        1 box
Created 4096 atoms
  create_atoms CPU = 0.000 seconds
mass                1 18.15

# Define potential
#
pair_style          sw
pair_coeff          * * ML_mW.sw mW
Reading sw potential file ML_mW.sw with DATE: 2019-02-27

# Add velocity/set timestep
#
velocity            all create ${TEMP} 120598 rot yes dist gaussian
velocity            all create 295 120598 rot yes dist gaussian
timestep            5.0

# Define output
#
compute	            1 all msd
thermo              100
thermo_style        custom step temp press vol etotal ke pe c_1[4]

# Neighbor lists
#
neigh_modify        delay 0 every 1 check yes

# Set fixes
#
fix                 1 all momentum 10 linear 1 1 1 rescale
fix                 2 all nve
fix                 3 all temp/csvr ${TEMP} ${TEMP} 500.0 928347
fix                 3 all temp/csvr 295 ${TEMP} 500.0 928347
fix                 3 all temp/csvr 295 295 500.0 928347
fix                 4 all press/berendsen iso ${PRES} ${PRES} 1000.0 modulus 20000
fix                 4 all press/berendsen iso -500 ${PRES} 1000.0 modulus 20000
fix                 4 all press/berendsen iso -500 -500 1000.0 modulus 20000

# Run 0.5 ns equilibration
#
dump		    1 all custom 1000 eq.${NAME}.dump id type x y z vx vy vz
dump		    1 all custom 1000 eq.ice_295K_500atm_ML.dump id type x y z vx vy vz
run                 100000
Neighbor list info ...
  update every 1 steps, delay 0 steps, check yes
  max neighbors/atom: 2000, page size: 100000
  master list distance cutoff = 6.0032907
  ghost atom cutoff = 6.0032907
  binsize = 3.0016454, bins = 17 17 17
  1 neighbor lists, perpetual/occasional/extra = 1 0 0
  (1) pair sw, perpetual
      attributes: full, newton on
      pair build: full/bin/atomonly
      stencil: full/bin/3d
      bin: standard
Per MPI rank memory allocation (min/avg/max) = 4.800 | 4.800 | 4.801 Mbytes
Step Temp Press Volume TotEng KinEng PotEng c_1[4] 
       0          295   -614.60003    131927.58   -46085.493    3600.8931   -49686.386            0 
     100    202.39154   -370.83997    131846.78   -44623.352    2470.4755   -47093.827   0.10130322 
     200    233.19859   -418.40096    132115.25   -43749.777    2846.5192   -46596.296   0.11394475 
     300    248.54939   -451.48389    132263.54   -43174.992    3033.8975   -46208.889   0.14034506 
     400    260.43928   -587.43462    132392.71   -42833.265    3179.0304   -46012.295   0.15007703 
     500    282.85149   -496.54367    132519.85   -42587.031    3452.6033   -46039.634   0.13341668 
     600    286.39839   -518.88877    132573.26   -42303.514    3495.8982   -45799.412   0.16591157 
     700    298.79829   -415.36348       132634   -42263.199    3647.2566   -45910.455   0.14802753 
     800    295.42986    -433.3707    132615.83   -42161.321    3606.1401   -45767.461   0.16168717 
     900    294.83365   -502.54621    132642.69   -42154.271    3598.8626   -45753.133   0.16765758 
    1000    300.98695   -404.65445     132612.8   -42216.144    3673.9723   -45890.117   0.13287367 
    1100    300.13078   -478.27987    132647.53   -42163.471    3663.5215   -45826.993   0.15826424 
    1200     293.8598   -497.38661    132628.02   -42131.578    3586.9753   -45718.553   0.15216774 
    1300     299.6252   -546.76443    132683.75   -42076.556    3657.3502   -45733.906     0.164723 
    1400     298.7534   -485.72098    132655.68   -42136.963    3646.7087   -45783.672   0.15915772 
    1500    295.95723   -475.49911    132660.59   -42203.939    3612.5774   -45816.517   0.13776667 
    1600    294.12227   -523.70499    132652.81   -42153.429    3590.1791   -45743.609   0.16761457 
    1700    298.56228   -468.89407    132643.48   -42164.753    3644.3757   -45809.128   0.14612328 
    1800    296.44711   -486.52576     132634.4   -42122.991     3618.557   -45741.548   0.17092817 
    1900    301.60408   -457.55449    132682.82    -42058.33    3681.5052   -45739.835   0.15024567 
    2000    300.01023   -430.49726    132691.29   -42012.346      3662.05   -45674.396   0.15920724 
    2100    292.54055   -473.26076    132674.52   -42166.699     3570.872   -45737.571   0.16196425 
    2200    292.90237   -496.68974     132650.3   -42106.884    3575.2885   -45682.172   0.16568948 
    2300    299.69607   -510.99409    132699.49    -42058.68    3658.2153   -45716.895   0.16944626 
    2400    299.38212   -469.78871     132705.4   -42092.387     3654.383    -45746.77   0.15530396 
    2500    297.66022   -446.85179    132692.88   -42110.552    3633.3648   -45743.917   0.14851778 
    2600    297.16962   -535.06489    132682.65     -42152.3    3627.3763   -45779.677   0.16071445 
    2700    296.65217   -473.60693    132655.34    -42144.21    3621.0601    -45765.27   0.14467031 
    2800    296.62678   -480.26739    132671.59   -42050.556    3620.7502   -45671.306    0.1697623 
    2900     301.4984   -469.11129    132698.14    -42050.94    3680.2152   -45731.155   0.15204518 
    3000    296.37503   -482.80345    132666.53   -42106.155    3617.6772   -45723.832   0.16204901 
    3100    293.86485   -495.29253    132664.08   -42078.863    3587.0369     -45665.9   0.16973436 
    3200    294.94064   -514.65428    132632.04   -42168.308    3600.1685   -45768.477   0.15231873 
    3300    286.78601   -519.69432    132614.87   -42269.995    3500.6296   -45770.624   0.17013808 
    3400    296.47199   -489.83629    132658.16   -42200.259    3618.8608    -45819.12   0.14298283 
    3500    294.52669   -516.51077    132649.15   -42165.839    3595.1156   -45760.954   0.16009614 
    3600    294.04748   -453.29992    132632.22    -42158.67    3589.2662   -45747.936   0.15183643 
    3700    295.45106   -485.09387    132660.17   -42121.262    3606.3988   -45727.661   0.15768668 
    3800    292.63327   -510.10303    132677.43   -42109.344    3572.0038   -45681.348   0.16626238 
    3900      295.434   -508.20981    132684.62   -42113.546    3606.1907   -45719.736   0.15561241 
    4000     288.7082   -480.74776    132660.08   -42159.085    3524.0928   -45683.178   0.15180529 
    4100    292.81407   -493.67107    132634.33   -42172.373    3574.2107   -45746.584   0.15619685 
    4200    292.95263   -530.38023    132626.34   -42131.485    3575.9021   -45707.387   0.15566682 
    4300    287.82045   -544.83077    132614.67   -42259.476    3513.2564   -45772.733   0.16707301 
    4400    298.33178   -464.17355    132625.25   -42143.634    3641.5622   -45785.196   0.15112518 
    4500    295.85732   -472.86569    132629.94   -42204.985    3611.3579   -45816.343    0.1546583 
    4600    288.15968   -493.34143    132608.77   -42229.913    3517.3973    -45747.31   0.15618128 
    4700    292.14238   -476.94432     132629.2   -42139.507    3566.0117   -45705.519   0.16006486 
    4800    298.34694   -521.84553    132659.96   -42044.373    3641.7472   -45686.121   0.16556617 
    4900    293.47176   -522.07138    132676.67    -42015.64    3582.2388   -45597.879   0.16617595 
    5000    295.83669   -523.59834    132679.16   -42147.704     3611.106    -45758.81    0.1555351 
    5100    295.71972   -509.12371    132654.05   -42069.481    3609.6783   -45679.159   0.15793559 
    5200    295.82025   -489.61328    132679.42   -42142.055    3610.9054    -45752.96    0.1571948 
    5300    295.76122   -482.86866    132624.15   -42237.104    3610.1848   -45847.289   0.14778164 
    5400    293.01808   -507.05308    132613.23   -42206.017     3576.701   -45782.718   0.16446407 
    5500    297.82908   -477.20677    132651.28   -42177.974    3635.4259     -45813.4   0.14490765 
    5600    291.55808   -494.13597    132632.98   -42212.144    3558.8795   -45771.023    0.1577371 
    5700    288.67734    -494.6652    132672.13   -42206.312     3523.716   -45730.028   0.15255368 
    5800    289.89807   -513.20642     132667.4   -42145.621    3538.6168   -45684.238   0.16111356 
    5900    289.81248   -536.67736    132654.62   -42222.556     3537.572   -45760.128   0.15710886 
    6000    293.27448   -468.82314    132658.93   -42198.651    3579.8306   -45778.482   0.14754436 
    6100    295.45721   -465.23768    132636.11   -42272.274    3606.4739   -45878.748   0.14286477 
    6200    294.01873   -440.61605    132650.04     -42259.2    3588.9153   -45848.115    0.1560841 
    6300    296.50788   -479.11388    132669.85   -42138.246    3619.2989   -45757.545   0.15231178 
    6400    289.11001     -548.249    132666.69   -42193.052    3528.9973   -45722.049   0.16581563 
    6500    292.06976   -491.47361    132676.77   -42207.908    3565.1253   -45773.034   0.14813187 
    6600    293.18437    -473.0108    132674.46   -42212.209    3578.7307   -45790.939   0.15169257 
    6700    291.81981   -507.38052    132659.74   -42263.828    3562.0744   -45825.902   0.15525006 
    6800    293.48167    -511.1537    132642.78   -42218.924    3582.3597   -45801.284   0.14744399 
    6900    292.59491   -491.74899    132674.69   -42146.852    3571.5355   -45718.387   0.15472323 
    7000    292.93769   -529.26531    132665.45   -42147.656    3575.7197   -45723.376   0.15001982 
    7100    292.14158   -520.66813    132627.57    -42147.76     3566.002   -45713.762   0.15989827 
    7200    285.01768   -531.21696    132603.47   -42258.514    3479.0447   -45737.559   0.15851872 
    7300    289.50956   -498.31801    132592.25   -42304.302    3533.8744   -45838.176   0.15492956 
    7400    295.10194   -500.57122    132624.96   -42199.575    3602.1374   -45801.712   0.15146788 
    7500    296.20391   -526.14867    132638.23    -42131.31    3615.5885   -45746.898   0.16291717 
    7600     290.8246   -539.76044    132650.56   -42112.375    3549.9263   -45662.301   0.15172546 
    7700    293.46456   -553.22422    132622.87   -42205.611    3582.1509   -45787.762   0.16713043 
    7800    293.20136   -506.25457    132623.92   -42259.983    3578.9381   -45838.922   0.14856563 
    7900    294.08781   -513.40753    132638.53   -42208.484    3589.7585   -45798.243   0.15346992 
    8000    295.53064   -451.47616    132656.98   -42106.985    3607.3702   -45714.356    0.1529882 
    8100    297.13548   -534.64409    132651.93   -42072.819    3626.9596   -45699.778   0.15580175 
    8200    298.69785   -533.58451     132653.3   -42097.027    3646.0305   -45743.058   0.16066588 
    8300    300.24239   -518.65569    132656.04   -42056.945    3664.8838   -45721.829    0.1601325 
    8400    297.52078   -494.35816    132682.15   -42031.912    3631.6627   -45663.575   0.15178638 
    8500    298.47767   -479.80909    132671.91   -42109.493     3643.343   -45752.836   0.15805799 
    8600    298.23124   -484.82846    132671.72   -42133.513    3640.3349   -45773.848   0.14921539 
    8700    297.23478    -491.3635    132671.37   -42106.181    3628.1718   -45734.353   0.16031754 
    8800    299.95872    -532.6372    132663.08   -42146.262    3661.4213   -45807.683   0.15606169 
    8900    294.37672   -461.83116     132667.4   -42207.159     3593.285   -45800.444   0.14243983 
    9000    295.56984   -492.79495    132641.61   -42131.436    3607.8487   -45739.285   0.16522582 
    9100    289.90887   -558.32432    132684.29   -42192.823    3538.7486   -45731.572   0.14667143 
    9200    298.64456   -526.31768    132693.73   -42080.915    3645.3801   -45726.295    0.1676026 
    9300    296.51286   -525.39926    132695.58    -42220.88    3619.3597    -45840.24   0.14234644 
    9400    296.66339   -504.00154    132709.71   -42183.525    3621.1971   -45804.722   0.14380353 
    9500    292.95154    -491.6833    132699.47   -42222.667    3575.8887   -45798.555   0.14958657 
    9600     290.1971   -493.50222    132688.18    -42219.97    3542.2668   -45762.237    0.1488986 
    9700    296.47547   -493.84364    132694.04   -42094.488    3618.9033   -45713.391   0.15788438 
    9800    297.76357   -505.33626    132718.13   -42056.978    3634.6264   -45691.604   0.15911731 
    9900    295.74098   -471.17858    132696.44   -42080.419    3609.9377   -45690.357   0.15115708 
   10000    296.22227   -509.32609    132689.69   -42134.537    3615.8126    -45750.35   0.15765694 
   10100    296.48549   -443.52923    132709.78   -42087.364    3619.0256    -45706.39   0.14754576 
   10200    301.71724   -502.33028    132728.49   -42059.868    3682.8865   -45742.755   0.15831604 
   10300    299.43781   -480.63414    132724.65   -42056.446    3655.0628   -45711.508   0.14773994 
   10400    303.92195   -474.49263    132722.52   -42056.628    3709.7982   -45766.426   0.14441756 
   10500    298.80991   -480.28366    132703.02   -42107.104    3647.3984   -45754.503   0.15410222 
   10600     293.9463   -481.27195    132708.43   -42136.594    3588.0312   -45724.625   0.14653018 
   10700    291.37935   -510.77801    132682.48   -42176.017    3556.6978   -45732.715   0.15864447 
   10800    290.92614     -526.522    132661.47   -42293.808    3551.1658   -45844.974   0.13958228 
   10900    297.19558   -484.61963    132633.17   -42275.809    3627.6932   -45903.503   0.14615234 
   11000    290.42257   -495.49162    132631.12   -42281.255     3545.019   -45826.274   0.14579485 
   11100    288.58482   -548.45201    132651.43   -42201.944    3522.5867   -45724.531   0.15774574 
   11200    288.11859   -484.45918    132654.46   -42300.723    3516.8957   -45817.619   0.15072467 
   11300    290.59056   -495.35995    132662.77   -42216.936    3547.0696   -45764.006   0.14836672 
   11400    297.60016    -468.0353    132665.27   -42196.631    3632.6317   -45829.262   0.14734134 
   11500    297.25732   -504.19739    132691.63   -42100.704    3628.4469   -45729.151   0.15433531 
   11600    293.65685    -510.8754    132704.75   -42105.456     3584.498   -45689.954   0.15256374 
   11700    302.74197   -505.56321    132747.75   -41971.159    3695.3948   -45666.553    0.1606617 
   11800    299.42622   -537.36891    132701.97   -42056.057    3654.9214   -45710.978   0.14704159 
   11900    296.03112   -520.63199    132677.76   -42099.599    3613.4794   -45713.078   0.15958116 
   12000    300.53164   -488.78599    132682.03   -42041.761    3668.4145   -45710.175   0.14890439 
   12100    296.11955   -515.45353    132678.98   -42128.091    3614.5587    -45742.65   0.15190863 
   12200    300.46664   -518.74866    132676.11   -42118.037    3667.6212   -45785.658    0.1550281 
   12300    297.79503   -486.78852     132694.5   -42176.982    3635.0104   -45811.993   0.14162497 
   12400    295.89924   -518.33801    132688.12   -42141.144    3611.8696   -45753.014   0.15954468 
   12500    299.11037   -487.19053     132721.9   -42085.306    3651.0659   -45736.372   0.14322552 
   12600    296.87914   -473.17703    132705.26    -42073.22    3623.8306   -45697.051   0.15713624 
   12700    301.72118   -489.37842     132732.1   -42111.089    3682.9345   -45794.023   0.14617063 
   12800    298.20579   -477.65175    132722.94   -42143.926    3640.0243   -45783.951   0.14705357 
   12900    294.19865    -520.5485    132676.83   -42182.812    3591.1114   -45773.923   0.15048776 
   13000    298.00087   -507.64032    132669.23   -42182.203    3637.5229   -45819.725    0.1438632 
   13100    294.95237   -468.84444    132649.86    -42206.41    3600.3116   -45806.722    0.1491391 
   13200     289.0865   -525.86778    132666.91   -42250.703    3528.7104   -45779.414   0.15181496 
   13300    291.00663   -480.72715    132659.52   -42305.925    3552.1483   -45858.074   0.14470363 
   13400    288.18147   -503.27757    132626.61   -42350.982    3517.6632   -45868.645   0.14802941 
   13500    294.36464   -504.16698     132638.4   -42225.493    3593.1376   -45818.631   0.14026056 
   13600    294.36011   -479.40207    132654.19   -42203.093    3593.0823   -45796.176   0.15107325 
   13700    296.97228   -490.34995    132658.18   -42212.534    3624.9675   -45837.501    0.1423412 
   13800    301.14394   -501.20061    132688.03   -42183.189    3675.8885   -45859.077   0.14748121 
   13900    298.41383   -554.12325    132679.06   -42134.788    3642.5637   -45777.352   0.15040295 
   14000    298.88534   -492.10034    132708.25    -42038.72    3648.3191   -45687.039   0.15033375 
   14100    294.64722   -505.64558    132672.23   -42124.105    3596.5869   -45720.692   0.15750561 
   14200    293.20044   -495.54229    132658.76   -42118.561    3578.9269   -45697.488   0.14752936 
   14300    292.83034   -486.96344    132668.76   -42161.552    3574.4093   -45735.961   0.15551953 
   14400    296.10576   -497.34951    132654.65    -42205.49    3614.3904    -45819.88   0.14054143 
   14500    296.63566   -456.78516    132647.06   -42206.309    3620.8586   -45827.168    0.1459146 
   14600    290.91243   -512.72876    132676.72   -42205.176    3550.9985   -45756.174   0.15256155 
   14700    296.40003   -451.38608    132685.64   -42151.783    3617.9825   -45769.765   0.14801566 
   14800    295.35369   -461.85906    132737.14   -42125.775    3605.2103   -45730.986   0.14731978 
   14900    296.86653   -474.65904    132729.82   -42104.117    3623.6767   -45727.793   0.14274653 
   15000    294.94636   -501.15391    132724.61   -42178.562    3600.2383     -45778.8   0.14121094 
   15100    291.14583   -544.53938    132710.55   -42203.396    3553.8475   -45757.243   0.15621293 
   15200    297.57415   -503.90319    132705.21    -42157.23    3632.3142   -45789.544   0.14213891 
   15300    294.80317   -497.56859    132703.57   -42209.394    3598.4905   -45807.885   0.15372104 
   15400    288.54922   -509.23834    132689.97   -42246.323    3522.1521   -45768.475   0.13936083 
   15500    291.54181   -532.27224    132697.08   -42167.855    3558.6809   -45726.535   0.15180214 
   15600    302.32992   -445.17388    132736.91   -42044.974    3690.3651   -45735.339   0.15343833 
   15700    297.22662   -497.26508    132740.09   -42032.816    3628.0721   -45660.888   0.14811744 
   15800    301.64565   -521.56262    132738.62   -42048.557    3682.0127    -45730.57   0.15675497 
   15900    297.15764   -492.88332    132729.17   -42050.925    3627.2301   -45678.155   0.14683593 
   16000     299.4605   -509.71597    132709.08   -42105.576    3655.3398   -45760.916   0.14888951 
   16100    293.56897   -486.14876    132697.42   -42177.588    3583.4253   -45761.013   0.15157404 
   16200    296.15117   -485.85446     132706.4   -42141.462    3614.9447   -45756.407   0.14423501 
   16300    294.88867   -530.32568    132683.18   -42158.766    3599.5341     -45758.3   0.14935404 
   16400    299.96564   -480.69385    132694.51   -42176.356    3661.5058   -45837.862   0.14368481 
   16500    295.11438    -467.2332     132736.1   -42089.988    3602.2892   -45692.277   0.14485136 
   16600    294.84064    -477.0779    132730.95   -42058.829    3598.9479   -45657.776   0.16102844 
   16700    294.08323   -506.74122     132715.7   -42092.631    3589.7025   -45682.333   0.14979802 
   16800    295.93605   -495.20897    132706.92   -42133.119    3612.3189   -45745.438   0.15725079 
   16900    295.54359   -519.92668     132703.9   -42152.423    3607.5283   -45759.951   0.14803334 
   17000    290.62171   -533.25416    132676.14   -42211.415    3547.4498   -45758.865   0.15169717 
   17100    292.88642   -502.32083    132694.47   -42143.089    3575.0938   -45718.183   0.15274237 
   17200    296.11025   -514.93939    132688.63   -42208.274    3614.4453    -45822.72   0.14586133 
   17300    293.08164   -513.29596    132674.86   -42276.336    3577.4768   -45853.813   0.14280117 
   17400    290.05191    -502.0815    132673.79   -42301.765    3540.4946   -45842.259   0.14509569 
   17500    294.69922   -513.66031    132693.74   -42177.818    3597.2216    -45775.04   0.14600839 
   17600    287.66512   -509.35278    132700.46   -42191.448    3511.3604   -45702.809   0.15392396 
   17700    290.98927   -500.02578    132685.05   -42231.934    3551.9365    -45783.87   0.14400913 
   17800    287.72796    -525.5587    132687.18   -42225.782    3512.1275    -45737.91   0.14823575 
   17900     294.9892   -464.07014    132703.73   -42148.028    3600.7613   -45748.789   0.14886453 
   18000    297.75902   -514.55882    132708.83   -42108.801    3634.5708   -45743.372    0.1485445 
   18100     300.9655   -507.26633    132714.84   -42067.816    3673.7105   -45741.527   0.15744042 
   18200    299.38205   -489.18119    132685.66    -42171.81    3654.3822   -45826.192   0.14420737 
   18300    297.72038   -495.41204    132710.75   -42107.616    3634.0992   -45741.715   0.15214009 
   18400    291.39585   -557.03204    132707.14    -42215.72    3556.8993   -45772.619   0.14914864 
   18500    291.48823    -475.8369    132728.82   -42181.635    3558.0269   -45739.662   0.14942678 
   18600    296.76249   -486.83441    132742.87   -42098.775    3622.4068   -45721.181   0.14913219 
   18700    294.96936   -497.96268    132734.13   -42131.591     3600.519    -45732.11   0.15264059 
   18800    299.78304   -490.63906    132712.77   -42158.346    3659.2768   -45817.623   0.14244863 
   18900    298.53231   -483.58858    132726.33    -42129.72    3644.0099    -45773.73   0.15075135 
   19000     294.9998   -519.61943    132735.94   -42104.711    3600.8907   -45705.602   0.14693829 
   19100    297.01807    -533.0986     132719.9   -42080.969    3625.5264   -45706.495   0.15504326 
   19200    294.38077    -496.2953     132723.6   -42140.516    3593.3345    -45733.85   0.14919853 
   19300     299.5772   -436.48265    132756.53   -41990.368    3656.7642   -45647.133   0.14783722 
   19400    297.35557   -505.66607    132772.21   -42078.441    3629.6462   -45708.087   0.15084757 
   19500    297.05204   -443.77577    132772.11   -42046.749    3625.9411    -45672.69   0.14962274 
   19600    297.38155    -511.0029    132765.45   -42073.553    3629.9633   -45703.517   0.14664896 
   19700    300.20155   -507.80373    132764.11   -42083.312    3664.3853   -45747.697   0.14853099 
   19800    298.05961   -497.99854     132742.3   -42078.257    3638.2399   -45716.496   0.14567867 
   19900    294.02857   -521.87435    132744.89   -42106.011    3589.0353   -45695.046       0.1469 
   20000    296.22132    -482.9409    132740.32   -42139.391     3615.801   -45755.193   0.14757029 
   20100    295.74536   -457.97007    132729.81   -42184.135    3609.9912   -45794.126   0.13913982 
   20200    294.81503   -484.71266    132721.86     -42208.9    3598.6352   -45807.535   0.14999618 
   20300    298.42649   -468.96112    132723.48   -42134.601    3642.7183   -45777.319   0.13864399 
   20400    297.24673   -501.03676    132735.67   -42151.521    3628.3176   -45779.839   0.14778786 
   20500    294.21057   -484.75438       132734   -42207.593     3591.257    -45798.85   0.14073384 
   20600    291.66325   -515.47181     132715.2   -42239.093    3560.1633   -45799.256   0.14558332 
   20700    291.61925   -456.44303    132709.27   -42193.149    3559.6262   -45752.775   0.14305479 
   20800    297.00235   -427.67543    132716.83   -42110.699    3625.3346   -45736.033    0.1449272 
   20900     293.9255   -492.71039    132722.43   -42122.035    3587.7772   -45709.812    0.1452066 
   21000    288.74114   -543.34513    132687.54   -42160.431    3524.4948   -45684.926   0.15325594 
   21100    299.08411   -535.33218    132704.75   -42116.302    3650.7454   -45767.047   0.14537043 
   21200    293.74596   -480.31508    132709.32   -42104.654    3585.5857   -45690.239   0.15185613 
   21300     299.2348   -483.39022    132720.85   -42062.404    3652.5848   -45714.988   0.14569924 
   21400    299.00969   -539.24974    132702.59   -42120.989     3649.837   -45770.826   0.14713032 
   21500    299.70691   -473.26858    132693.38   -42055.217    3658.3475   -45713.565   0.15270516 
   21600    298.88682   -517.01336    132730.65   -42043.232    3648.3372   -45691.569   0.14778834 
   21700    292.99883   -513.55583    132702.03    -42138.38    3576.4659   -45714.846   0.15289959 
   21800    297.96165   -425.99249    132680.87   -42157.683    3637.0441   -45794.727    0.1403612 
   21900    293.86591   -460.68865    132663.52   -42155.341    3587.0498   -45742.391   0.14714814 
   22000    289.53524   -505.74768    132645.13   -42216.535    3534.1879   -45750.723   0.14582424 
   22100    292.06749   -490.30682    132659.08   -42193.198    3565.0977   -45758.296   0.14922732 
   22200    288.80057   -499.03304    132658.04   -42326.007    3525.2202   -45851.227   0.14249396 
   22300    292.32246    -474.6012    132659.57   -42233.636    3568.2099   -45801.846   0.14778782 
   22400    290.10314   -545.50943    132707.38   -42120.658    3541.1199   -45661.778   0.14778758 
   22500    294.45753   -494.65885    132700.99   -42129.534    3594.2715   -45723.806   0.15243734 
   22600    297.05893    -506.3456     132698.7   -42150.609    3626.0252   -45776.634   0.14333336 
   22700    290.70906   -543.21593    132676.96   -42207.764     3548.516    -45756.28   0.15359059 
   22800    295.10025   -503.72212    132679.46   -42133.147    3602.1168   -45735.264   0.14230568 
   22900    297.50143   -512.28238    132715.51   -42172.774    3631.4265   -45804.201   0.14544593 
   23000    291.19006   -497.27522    132683.81   -42229.933    3554.3873    -45784.32   0.14359952 
   23100    296.09575   -454.58718    132709.39   -42148.314    3614.2683   -45762.582   0.14489723 
   23200    288.73368   -525.42929    132695.37   -42137.939    3524.4037   -45662.343   0.15510847 
   23300    293.00557   -480.27626    132724.88   -42145.143    3576.5482   -45721.691   0.14459059 
   23400     292.8361   -511.58339    132732.11   -42121.455    3574.4796   -45695.935   0.14950906 
   23500    296.47999   -493.92001    132736.34   -42108.695    3618.9584   -45727.653   0.14895637 
   23600    295.70587   -519.56968    132727.98   -42039.704    3609.5092   -45649.213    0.1532327 
   23700    297.08515   -484.78953    132706.88   -42076.006    3626.3453   -45702.351   0.15395857 
   23800    296.65043   -484.41525    132710.05   -42079.393    3621.0389   -45700.432   0.14922896 
   23900    292.55825    -528.0995    132698.73   -42175.761    3571.0881   -45746.849   0.14794955 
   24000    293.42517   -505.25314    132701.49   -42125.574      3581.67   -45707.244   0.15521578 
   24100    298.78936   -463.30594    132691.64   -42087.533    3647.1475   -45734.681   0.14294028 
   24200     293.9798   -494.05871    132684.83   -42147.314      3588.44   -45735.754   0.15329053 
   24300    291.28712    -523.3409    132672.11   -42195.492    3555.5721   -45751.064   0.14303398 
   24400    293.48932     -511.501    132660.84   -42238.963    3582.4531   -45821.416    0.1508908 
   24500    294.98934   -461.15093    132674.52    -42198.02    3600.7629   -45798.783   0.14519814 
   24600    291.78219   -515.97411    132668.92   -42244.622    3561.6151   -45806.237    0.1474477 
   24700    291.71286   -534.58185    132682.49   -42257.198    3560.7688   -45817.966   0.15015919 
   24800    296.45641   -502.83357    132669.14    -42221.72    3618.6706    -45840.39   0.14841942 
   24900    291.33772   -540.63052    132667.89   -42235.999    3556.1897   -45792.189   0.14909983 
   25000    296.55129   -478.50136    132669.19   -42199.827    3619.8287   -45819.656   0.15172188 
   25100     290.1913   -507.93349    132640.99   -42244.422    3542.1961   -45786.618   0.14683069 
   25200    288.00776   -501.24951    132626.56    -42361.29    3515.5429   -45876.833   0.14514175 
   25300    291.08783   -491.66604    132650.98   -42303.518    3553.1395   -45856.658   0.14233736 
   25400    294.03449   -472.31863    132679.57   -42247.622    3589.1077    -45836.73   0.14377159 
   25500    291.55791   -526.45655    132688.22   -42188.211    3558.8775   -45747.088   0.15096192 
   25600    300.49865    -477.2543    132688.43     -42041.4    3668.0118   -45709.412   0.14828636 
   25700    301.81569    -513.6263    132696.56   -42161.837    3684.0882   -45845.926   0.14909356 
   25800    299.40884   -527.74691    132683.52   -42048.424    3654.7092   -45703.133   0.15600491 
   25900    292.59417   -549.47289    132697.62   -42048.597    3571.5265   -45620.123   0.16055793 
   26000    297.10617   -462.00641     132672.9   -42080.337    3626.6018   -45706.939   0.14933477 
   26100    300.04853   -500.36182    132674.53   -42102.584    3662.5175   -45765.101   0.15200217 
   26200    297.44863   -439.09516       132720   -42137.046     3630.782   -45767.828   0.14113945 
   26300    291.41121   -525.84166    132687.81   -42197.793    3557.0868    -45754.88   0.15548285 
   26400    293.86913   -475.95714    132673.66   -42221.475    3587.0891   -45808.564   0.14271773 
   26500    298.54897   -474.84169    132678.95    -42121.69    3644.2133   -45765.904   0.15425872 
   26600    296.57343   -470.28438     132706.8   -42088.524     3620.099   -45708.623   0.15069983 
   26700    299.58145   -467.84525     132687.9   -42046.828    3656.8162   -45703.645   0.15140513 
   26800    292.13017   -540.60136    132685.99   -42109.513    3565.8627   -45675.376   0.15816572 
   26900    296.94005   -517.68326    132688.78   -42082.757    3624.5742   -45707.331   0.15126121 
   27000    293.52118   -537.73099    132698.19   -42078.075     3582.842   -45660.917   0.15637073 
   27100    301.26648    -506.9363     132704.9   -42069.079    3677.3844   -45746.464   0.15148146 
   27200    300.81474   -445.81508    132687.06   -42099.506    3671.8702   -45771.376   0.14462747 
   27300    303.91041   -492.26103     132706.3   -42005.853    3709.6573    -45715.51   0.15885407 
   27400    295.32503   -519.82414    132745.18   -42034.373    3604.8605   -45639.233   0.15358397 
   27500    293.11396   -547.89198    132743.68   -42154.748    3577.8713   -45732.619   0.14969693 
   27600    287.54558   -493.96399    132718.42   -42258.338    3509.9013   -45768.239     0.150625 
   27700    298.17118   -520.17986    132712.26   -42167.835    3639.6019   -45807.436   0.14173965 
   27800    300.62669   -505.98796    132741.73   -42087.186    3669.5747   -45756.761     0.155882 
   27900     292.8718   -502.85384    132733.07   -42183.833    3574.9153   -45758.748   0.14120941 
   28000    294.01179   -499.28557    132716.05   -42244.682    3588.8305   -45833.512   0.14741296 
   28100    293.77189   -507.35588    132704.66   -42226.288    3585.9023    -45812.19   0.14612958 
   28200     297.1575   -525.45392    132714.56   -42202.417    3627.2284   -45829.646   0.14644069 
   28300    291.52655   -513.61173    132701.45   -42191.773    3558.4947   -45750.267   0.15376746 
   28400      287.066   -546.48142    132702.29   -42177.874    3504.0473   -45681.921   0.15056691 
   28500    294.37812   -515.95407    132709.57   -42189.489    3593.3021   -45782.791   0.14545065 
   28600    289.88842   -498.16299    132691.92   -42205.066     3538.499   -45743.565   0.14884914 
   28700    295.44033   -506.34345    132674.85   -42196.074    3606.2679   -45802.342   0.14138482 
   28800     290.8823   -504.69586    132657.82    -42218.92    3550.6307    -45769.55      0.15433 
   28900    295.42324   -532.07131    132655.25   -42185.979    3606.0594   -45792.039   0.14862491 
   29000    296.60229   -510.06448    132668.74   -42157.235    3620.4513   -45777.686   0.15047477 
   29100    299.68521   -455.74384    132659.82   -42116.376    3658.0827   -45774.459   0.15261208 
   29200    305.06266   -492.51837    132688.65   -42030.105     3723.722   -45753.827    0.1481718 
   29300    298.75332   -506.71061    132693.55   -42060.444    3646.7077   -45707.152   0.15904342 
   29400    288.78568   -501.86589    132694.14   -42107.436    3525.0385   -45632.474   0.15218491 
   29500    298.65049   -478.82602    132702.69    -42091.29    3645.4525   -45736.742   0.15143527 
   29600    297.99585   -483.34336    132702.49   -42080.906    3637.4617   -45718.368   0.14846301 
   29700     295.3447   -492.70317     132697.5   -42149.343    3605.1006   -45754.443   0.14698137 
   29800    288.57864   -501.82965    132650.55   -42247.378    3522.5113    -45769.89    0.1503756 
   29900    288.51006   -516.73728    132640.79   -42192.839    3521.6741   -45714.514   0.15594834 
   30000    295.36881   -463.07304    132606.58   -42244.586     3605.395   -45849.981   0.14618421 
   30100    293.38925   -452.56152    132626.14   -42139.212    3581.2315   -45720.444   0.15355889 
   30200    295.19212   -506.17917    132648.26   -42190.772    3603.2381    -45794.01   0.14681274 
   30300    295.91242   -529.94286    132630.69   -42190.663    3612.0304   -45802.694   0.15502936 
   30400    293.04659   -484.54922    132640.39    -42159.84     3577.049   -45736.889   0.15086689 
   30500    287.11948   -468.15727    132618.99   -42279.988    3504.7001   -45784.688   0.14797801 
   30600    291.08463   -501.96391    132609.58   -42212.028    3553.1004   -45765.128    0.1535892 
   30700    287.32054   -471.70689    132610.33   -42244.472    3507.1543   -45751.626   0.15041822 
   30800    290.95722   -489.11231     132630.8   -42189.939    3551.5452   -45741.484    0.1533102 
   30900    292.16125   -510.37113    132656.11   -42125.423     3566.242   -45691.665   0.15441595 
   31000    296.03729   -499.87757     132678.6   -42157.667    3613.5547   -45771.221   0.14810888 
   31100    296.24772   -492.20894    132652.08   -42163.555    3616.1233   -45779.679     0.149059 
   31200    294.83087    -500.9219     132643.4   -42155.197    3598.8286   -45754.026   0.14883854 
   31300    295.61135   -480.26779    132662.82    -42044.93    3608.3555   -45653.285   0.15591943 
   31400    293.54288   -517.52034    132659.69   -42125.794    3583.1068   -45708.901   0.15608439 
   31500    296.61823   -483.13408    132677.36   -42089.858    3620.6459   -45710.503   0.15183604 
   31600    298.86705   -488.88618    132663.98   -42119.053    3648.0959   -45767.149   0.15575754 
   31700    301.32865   -504.51545    132650.28   -42118.948    3678.1431   -45797.092   0.14928807 
   31800    295.22394   -514.05524    132657.87   -42098.451    3603.6265   -45702.077   0.15833362 
   31900    293.16615   -505.66895     132651.3   -42156.421    3578.5084   -45734.929   0.14930545 
   32000    296.31432    -497.7516    132645.89   -42145.243    3616.9362   -45762.179   0.15481213 
   32100    296.13934   -512.15137    132644.07   -42172.656    3614.8003   -45787.457   0.14872088 
   32200    292.95496   -501.73156    132649.46   -42282.422    3575.9304   -45858.353   0.14643228 
   32300    292.47218   -486.49697    132660.22   -42240.841    3570.0374   -45810.879   0.14861462 
   32400    292.94322   -538.45147    132658.59   -42262.236    3575.7871   -45838.023   0.15468304 
   32500    293.02394   -490.05553     132671.7    -42159.36    3576.7724   -45736.133   0.15192753 
   32600    299.25667   -470.41651     132697.6   -42110.542    3652.8517   -45763.393   0.15240613 
   32700    294.06961   -491.67574    132695.36   -42206.935    3589.5363   -45796.471   0.14436448 
   32800    298.68752   -512.96514    132685.85   -42083.943    3645.9045   -45729.848   0.15750084 
   32900     295.7795   -489.17532    132702.95   -42130.673     3610.408   -45741.081   0.15180713 
   33000    292.65019   -523.37884    132683.19   -42118.717    3572.2103   -45690.927   0.15357021 
   33100    294.81794   -518.88925    132663.34   -42132.979    3598.6707    -45731.65   0.15685889 
   33200    299.31771   -482.10139    132672.81    -42150.72    3653.5969   -45804.317   0.14923114 
   33300    297.39651   -475.49859    132658.47   -42125.173    3630.1459   -45755.319   0.15935288 
   33400    295.60565    -520.8819    132658.47   -42165.015    3608.2859   -45773.301   0.15285591 
   33500    289.70835   -547.25769    132643.94   -42224.322    3536.3009   -45760.623   0.15852728 
   33600    297.22042   -509.96567    132655.78   -42198.974    3627.9964   -45826.971   0.14564132 
   33700    298.62225   -482.84058    132643.17   -42151.331    3645.1077   -45796.439   0.15132301 
   33800    301.02296   -476.59151    132692.43   -42012.055    3674.4118   -45686.467   0.15414882 
   33900    296.64851    -483.8124    132725.19   -42002.863    3621.0155   -45623.878   0.16275146 
   34000    299.66389   -515.71671    132689.74   -42163.626    3657.8225   -45821.449   0.14967324 
   34100     299.7045   -479.20443    132668.33   -42153.714    3658.3182   -45812.032   0.15149633 
   34200    292.21783   -480.27283    132659.09    -42188.51    3566.9328   -45755.443   0.15040082 
   34300    295.33139   -520.98248    132658.51   -42238.846    3604.9381   -45843.784   0.15392142 
   34400    297.72797   -527.14261    132667.36   -42208.622    3634.1918   -45842.813   0.15049135 
   34500    304.20679   -492.77003    132696.76   -42077.115    3713.2749    -45790.39   0.15215984 
   34600    300.83799   -498.02981    132720.44   -42036.021     3672.154   -45708.175    0.1489121 
   34700    298.69748   -517.51752    132696.94   -42134.692     3646.026   -45780.718   0.15480699 
   34800    296.46386   -478.69063    132656.57   -42182.555    3618.7616   -45801.317   0.15098084 
   34900    299.73834   -499.58932     132657.6    -42145.81    3658.7313   -45804.542   0.15740557 
   35000    295.54813   -504.71861    132674.13     -42161.9    3607.5837   -45769.483   0.15308834 
   35100    295.73384   -508.34998    132701.57    -42121.17    3609.8506   -45731.021   0.14930098 
   35200    300.35151   -516.77265     132715.4    -42072.92    3666.2158   -45739.136   0.15937986 
   35300    294.36753   -511.43578    132689.38   -42104.528    3593.1728     -45697.7   0.15031409 
   35400    290.62255   -527.59668    132693.19   -42154.237    3547.4601   -45701.697   0.15969673 
   35500    296.92361   -501.41995    132673.27   -42169.013    3624.3735   -45793.387   0.14539537 
   35600    292.22855   -465.38882    132654.47    -42146.22    3567.0636   -45713.284   0.15180552 
   35700    299.02749   -511.01457    132665.47   -42100.503    3650.0543   -45750.558   0.15637135 
   35800    303.48698    -494.3592    132728.95   -41968.998    3704.4887   -45673.487   0.15774357 
   35900    296.88637   -524.65001     132712.8   -42072.306    3623.9189   -45696.225   0.15556628 
   36000    292.56975   -532.52146    132703.24   -42148.685    3571.2285   -45719.914   0.15305769 
   36100    296.94403   -447.24547    132675.53   -42183.199    3624.6227   -45807.821   0.14368126 
   36200    291.22643   -462.63733    132661.14   -42165.441    3554.8312   -45720.273   0.15722519 
   36300    295.59763   -480.29515    132651.65   -42169.269     3608.188   -45777.457   0.14597818 
   36400    294.25594   -518.04999    132660.49   -42190.668    3591.8107   -45782.479   0.15769901 
   36500    290.23884   -495.99482    132656.02   -42195.515    3542.7764   -45738.292   0.14971118 
   36600    299.17657    -478.4564    132656.06   -42150.961     3651.874   -45802.835   0.14369375 
   36700    290.92041   -514.54654    132667.25   -42209.115    3551.0959   -45760.211   0.15998925 
   36800     289.2132   -498.28229    132655.68   -42271.177     3530.257   -45801.434   0.14377914 
   36900    286.65368   -522.88904    132642.45   -42214.599    3499.0143   -45713.613   0.16074267 
   37000    292.53832   -484.12886    132639.62   -42192.809    3570.8447   -45763.653   0.14671297 
   37100    289.26678   -503.22385    132639.96   -42225.125     3530.911   -45756.036   0.14634953 
   37200    294.61983   -481.90261    132655.61   -42232.683    3596.2525   -45828.936   0.15123925 
   37300     291.3888   -509.45291    132658.03   -42236.283    3556.8133   -45793.096   0.14903256 
   37400    293.62476   -504.70979    132675.97   -42268.152    3584.1063   -45852.259   0.14776604 
   37500    291.23488   -482.25679       132669   -42220.393    3554.9344   -45775.327    0.1488869 
   37600    290.73435   -511.70516    132655.51    -42249.53    3548.8247   -45798.354   0.14446319 
   37700    289.31069   -481.52046    132623.32    -42355.45    3531.4469   -45886.897   0.15062616 
   37800    286.78031   -482.51181    132617.11   -42386.971    3500.5601   -45887.531   0.14029752 
   37900    296.44861   -443.70676    132637.44   -42265.419    3618.5755   -45883.994   0.14642065 
   38000    294.66777   -505.55055    132668.82   -42181.185    3596.8377   -45778.022   0.15017239 
   38100     291.9479   -503.89276    132667.82   -42176.973    3563.6379   -45740.611    0.1483384 
   38200    295.99751   -457.66496    132685.28   -42126.907    3613.0691   -45739.976   0.15377328 
   38300    296.78341   -494.28885    132692.58   -42160.086    3622.6621   -45782.748   0.14759274 
   38400    295.36378   -521.63557    132711.88   -42124.776    3605.3336    -45730.11   0.15252043 
   38500    294.53797   -467.65213    132669.13   -42148.363    3595.2534   -45743.617   0.15105076 
   38600    297.71697   -486.35724    132672.09   -42139.294    3634.0576   -45773.351   0.14560882 
   38700    296.80113   -505.48062    132667.85   -42116.391    3622.8783   -45739.269   0.15091847 
   38800    289.33778   -469.87234    132658.63   -42161.642    3531.7776    -45693.42    0.1541705 
   38900    295.25058   -505.08665    132681.37   -42064.503    3603.9518   -45668.455    0.1498788 
   39000    292.25997   -485.55507    132680.03   -42107.195    3567.4472   -45674.642   0.15664677 
   39100    292.15339   -483.95141     132676.1   -42142.943    3566.1461   -45709.089   0.14548608 
   39200    287.19439   -519.42472    132627.42   -42246.295    3505.6145   -45751.909   0.15580855 
   39300    289.17874    -522.1401    132615.49   -42289.147    3529.8364   -45818.984   0.14780008 
   39400    298.64204   -498.13124    132668.72   -42129.699    3645.3493   -45775.048   0.15252565 
   39500     297.5304   -517.41113    132680.99     -42160.5    3631.7802    -45792.28   0.14739361 
   39600    296.49552   -510.08319     132690.6    -42128.01    3619.1481   -45747.158   0.14869793 
   39700    298.37599   -487.08629    132688.07   -42134.359    3642.1018   -45776.461   0.14312094 
   39800    293.59843   -468.53285    132679.19   -42165.514    3583.7849   -45749.299   0.15042008 
   39900    294.36948   -491.78144     132684.4    -42113.05    3593.1967   -45706.246   0.14605661 
   40000    299.08028   -493.51451    132690.23   -42161.946    3650.6986   -45812.645   0.15021072 
   40100    296.34243   -475.33637    132677.48   -42179.855    3617.2793   -45797.135   0.14529587 
   40200    292.88598   -487.14195    132679.34   -42154.173    3575.0885   -45729.261   0.14844923 
   40300    296.94383   -500.80279    132672.38   -42221.678    3624.6202   -45846.299   0.14853402 
   40400    290.80767   -517.26367    132679.92    -42263.98    3549.7198     -45813.7   0.14389421 
   40500    300.89362   -471.46021     132687.1   -42157.035    3672.8331   -45829.868   0.15020866 
   40600    294.54358   -520.46901    132693.15   -42168.319    3595.3218   -45763.641   0.14714428 
   40700    295.07747   -524.39588    132649.03   -42227.467    3601.8386   -45829.306   0.14934279 
   40800    293.28168   -503.23899     132672.9   -42141.117    3579.9185   -45721.035   0.14991516 
   40900    291.70858   -524.63468    132663.54   -42204.769    3560.7167   -45765.485   0.15389137 
   41000    296.44222    -478.2671    132689.25    -42208.84    3618.4974   -45827.337   0.14446742 
   41100    290.93007   -483.07415    132649.27   -42205.912    3551.2138   -45757.126   0.15073669 
   41200    301.91798   -491.20303    132684.32   -42103.433    3685.3368    -45788.77   0.14258494 
   41300    296.70394   -523.51396     132680.7   -42156.652     3621.692   -45778.344   0.15319704 
   41400    293.88085   -536.76436    132677.96   -42134.767    3587.2322   -45721.999   0.14942667 
   41500    293.77613   -520.62481    132687.07    -42106.34     3585.954   -45692.294   0.15639025 
   41600    295.87663   -482.00387    132691.74   -42123.775    3611.5936   -45735.368   0.14617474 
   41700    297.67725   -490.49071    132663.21   -42230.311    3633.5727   -45863.883   0.14347369 
   41800    291.43304    -492.3667    132671.24   -42154.962    3557.3533   -45712.315   0.15264682 
   41900    289.86907   -537.23606     132685.7   -42235.753    3538.2628   -45774.016   0.14802938 
   42000    292.34785   -526.98498    132673.07   -42208.808    3568.5199   -45777.328   0.14917233 
   42100    293.40607   -508.84602     132668.7    -42281.52    3581.4369   -45862.957   0.14417903 
   42200    295.26255   -514.29169    132660.98   -42218.319    3604.0978   -45822.417   0.14529051 
   42300    289.97331   -491.50773    132667.17   -42198.515    3539.5352    -45738.05   0.15027695 
   42400    295.58432   -484.54877    132681.41   -42203.737    3608.0255   -45811.762   0.14480305 
   42500       295.91   -498.90939    132680.32   -42182.776    3612.0009   -45794.777   0.14492077 
   42600     290.5714   -534.94619     132677.7   -42193.256    3546.8357   -45740.092   0.15185502 
   42700    287.97546   -524.53781    132650.75   -42276.708    3515.1486   -45791.856   0.14749656 
   42800    294.61166   -526.29302    132679.42   -42201.821    3596.1528   -45797.973   0.15450213 
   42900     298.8197   -491.35348    132667.97   -42229.935    3647.5179   -45877.453   0.14286853 
   43000    290.43123   -521.95933    132658.53   -42210.647    3545.1247   -45755.772   0.14967771 
   43100    293.95933   -518.54461    132671.83   -42160.635    3588.1903   -45748.825   0.15188305 
   43200    292.16927   -515.52357    132668.29   -42175.402      3566.34   -45741.742   0.15220759 
   43300    287.23989   -526.50725    132664.02    -42228.22      3506.17    -45734.39   0.15329533 
   43400    294.83596   -530.99624    132684.57    -42157.83    3598.8907    -45756.72   0.15414375 
   43500    295.17525   -496.35493    132681.27   -42158.165    3603.0322   -45761.198   0.14700673 
   43600    295.44026   -475.48086    132674.98   -42184.055     3606.267   -45790.323   0.14974546 
   43700    290.41885   -484.81684    132628.92   -42257.497    3544.9736   -45802.471   0.14640515 
   43800    286.75924   -508.97173    132663.41   -42282.883    3500.3029   -45783.186   0.15089115 
   43900    290.08985   -501.00191    132672.49   -42202.533    3540.9577   -45743.491   0.14686402 
   44000    289.55167   -488.34168    132656.98   -42298.478    3534.3885   -45832.866   0.14162972 
   44100     289.8899   -468.08129    132650.84   -42294.483    3538.5171       -45833   0.14839957 
   44200    291.51545   -490.04039    132664.61   -42210.074    3558.3591   -45768.433   0.14860664 
   44300    290.73018   -500.96957    132661.31   -42213.431    3548.7739   -45762.205    0.1532748 
   44400    289.55158   -504.36682    132668.96   -42253.282    3534.3874   -45787.669   0.14707917 
   44500    294.27379   -500.24792    132679.01   -42243.774    3592.0286   -45835.803   0.14459292 
   44600    295.47149   -519.20626    132672.21   -42221.955    3606.6483   -45828.603   0.15170313 
   44700    295.08331   -528.48142    132679.23   -42207.985      3601.91   -45809.895   0.15129792 
   44800    293.11135    -475.2558    132693.22   -42205.846    3577.8394   -45783.685     0.150599 
   44900     290.7986   -510.80864    132696.19   -42178.553     3549.609   -45728.162   0.15188845 
   45000    292.21646   -512.22285     132688.5   -42188.674     3566.916    -45755.59   0.14406937 
   45100     298.2005   -484.01119    132694.46   -42086.588    3639.9597   -45726.548   0.15680517 
   45200    298.86551   -506.58284    132691.94   -42132.095    3648.0771   -45780.172   0.14403222 
   45300    296.13346   -487.53689    132692.92   -42169.626    3614.7285   -45784.355   0.15010138 
   45400    295.24802   -506.69892    132713.63   -42186.975    3603.9205   -45790.895   0.14668702 
   45500    296.10853   -512.47889    132698.08   -42148.489    3614.4243   -45762.913   0.14763674 
   45600    293.97042   -509.08388    132719.08   -42118.056    3588.3256   -45706.381   0.15610969 
   45700    299.57036   -506.94193    132727.72   -42098.965    3656.6807   -45755.646   0.14668699 
   45800    297.89181   -484.17086    132723.15   -42148.771    3636.1917   -45784.962   0.14976815 
   45900    298.35535   -518.12995    132735.65   -42073.149    3641.8499   -45714.999   0.14976799 
   46000    294.83318   -498.70184     132731.4   -42106.076    3598.8568   -45704.933   0.14834225 
   46100    299.72801   -514.88053    132750.51   -42028.951    3658.6051   -45687.556   0.15564751 
   46200    297.17198   -478.35695    132741.15   -42079.899    3627.4052   -45707.304   0.15120457 
   46300    295.20469   -465.99565    132741.72   -42051.363    3603.3916   -45654.755   0.15231558 
   46400    297.82886   -485.24553    132714.99   -42115.111    3635.4233   -45750.534   0.15041818 
   46500    299.37202   -476.25303    132716.06   -42048.639    3654.2598   -45702.898   0.14315003 
   46600    297.05932   -480.41219    132681.59   -42151.146      3626.03   -45777.176   0.14988646 
   46700    301.25305   -474.80299    132729.82   -42085.617    3677.2204   -45762.838   0.14436164 
   46800    296.38567   -487.15219    132711.86   -42071.785    3617.8072   -45689.593   0.15419611 
   46900     299.2146   -466.62645    132706.71   -42107.173    3652.3383   -45759.511   0.14557633 
   47000    296.04583   -537.49487     132697.8   -42172.306    3613.6588   -45785.965   0.14993738 
   47100    291.95897   -511.62248    132674.47    -42178.11     3563.773   -45741.883    0.1512478 
   47200    299.86993   -486.40338    132669.13   -42183.482    3660.3375    -45843.82   0.15103981 
   47300    293.24341   -511.21907    132680.07   -42248.065    3579.4514   -45827.517   0.14740119 
   47400    298.09476    -474.6734    132685.13   -42198.881     3638.669    -45837.55   0.15022595 
   47500    292.91367   -468.61301    132673.26   -42222.812    3575.4265   -45798.239    0.1436556 
   47600    292.87203   -510.04337    132669.27   -42194.577    3574.9182   -45769.495   0.15246128 
   47700    299.40448   -498.77254     132678.6   -42133.862     3654.656   -45788.518    0.1485105 
   47800    294.59114   -502.79374    132673.29   -42180.816    3595.9023   -45776.718   0.14880139 
   47900    287.72466   -500.93185    132638.11   -42228.115    3512.0872   -45740.203   0.15425495 
   48000    296.88314   -502.87013    132654.38   -42185.248    3623.8795   -45809.128   0.14799072 
   48100    292.77763   -466.53988    132670.21   -42236.451    3573.7659   -45810.217   0.14814687 
   48200    294.45895   -473.60643    132679.43   -42222.926    3594.2888   -45817.215   0.14804793 
   48300    292.43462     -490.177    132676.92   -42191.209     3569.579   -45760.788   0.15052356 
   48400    290.88271   -508.38056    132667.36   -42195.513    3550.6357   -45746.149   0.15086687 
   48500    291.90653   -487.49604    132670.05   -42275.409    3563.1329   -45838.542   0.14820923 
   48600    288.73114    -485.5576    132662.62   -42269.267    3524.3728    -45793.64   0.14236762 
   48700    296.39803   -473.24349    132685.85   -42172.452     3617.958    -45790.41   0.15043377 
   48800     298.8358   -461.80778    132700.58   -42177.581    3647.7144   -45825.295   0.14341507 
   48900    291.69594   -500.02426     132679.3   -42164.024    3560.5624   -45724.587    0.1543444 
   49000     295.1881   -493.14137    132671.27   -42214.579    3603.1891   -45817.768   0.14372338 
   49100    294.63148   -491.99293    132674.84   -42147.396    3596.3947   -45743.791   0.15026877 
   49200      295.656   -522.01127    132679.36   -42147.996    3608.9005   -45756.896   0.14945405 
   49300    291.54123    -528.2815    132668.42    -42208.44    3558.6739   -45767.114   0.14957547 
   49400     291.7816   -498.40529    132655.73   -42253.476    3561.6079   -45815.083   0.14906599 
   49500    290.19687   -525.18972    132658.02   -42181.879     3542.264   -45724.143    0.1546452 
   49600    295.83455   -460.33686    132661.41   -42199.415    3611.0799   -45810.495   0.14586084 
   49700    294.01816   -477.40238    132647.87    -42222.18    3588.9083   -45811.088   0.15228797 
   49800    291.83281   -525.33926    132631.38   -42197.261     3562.233   -45759.494   0.15436984 
   49900    296.30038   -508.79221    132663.83   -42161.937     3616.766   -45778.703   0.15270394 
   50000    297.93342    -440.5447    132691.21   -42171.238    3636.6996   -45807.938   0.14718198 
   50100    299.04444    -463.0158    132706.64   -42043.873    3650.2612   -45694.135   0.14483316 
   50200    295.67988   -482.39856    132689.55   -42125.539     3609.192   -45734.731   0.15626068 
   50300    297.62687   -494.45625    132653.93   -42137.657    3632.9578   -45770.615   0.14651238 
   50400     289.3151   -520.13919       132631   -42153.321    3531.5009   -45684.822   0.16033086 
   50500    296.27775   -515.42589    132686.11   -42102.066    3616.4898   -45718.556   0.15167147 
   50600    299.78146   -499.17379    132666.34   -41992.942    3659.2575   -45652.199   0.15910149 
   50700    293.85013   -518.85194     132632.8   -42228.145    3586.8573   -45815.003   0.15059976 
   50800    290.93639   -524.76536    132618.87   -42236.949    3551.2909    -45788.24   0.15320994 
   50900    292.11113   -552.94741    132621.73   -42251.511    3565.6303   -45817.142   0.15469563 
   51000    289.50463   -502.71822    132617.46   -42207.403    3533.8143   -45741.217   0.15426055 
   51100    289.43185   -521.24926    132611.62   -42204.269    3532.9259   -45737.195    0.1495296 
   51200    295.95817   -509.81384    132617.84   -42258.847    3612.5889   -45871.435   0.15303841 
   51300    289.09912   -458.98777     132602.5   -42272.965    3528.8645    -45801.83   0.14804431 
   51400    294.56789   -506.23913    132633.13   -42213.172    3595.6185    -45808.79   0.15246258 
   51500    291.72389   -520.10045    132637.76   -42242.869    3560.9035   -45803.772    0.1506645 
   51600    290.77167   -539.25312    132639.17   -42189.243    3549.2803   -45738.524   0.15051803 
   51700    296.28465   -476.70497    132639.98   -42120.604     3616.574   -45737.179    0.1564456 
   51800    296.47608   -485.50979    132657.57   -42115.915    3618.9107   -45734.826   0.15269315 
   51900    292.89336   -521.52892    132640.09   -42173.992    3575.1785    -45749.17   0.15554708 
   52000    294.92095   -478.87078    132622.99   -42174.579    3599.9281   -45774.507   0.15295264 
   52100    290.88246   -504.14818    132620.67   -42255.916    3550.6326   -45806.548   0.15166853 
   52200    288.05892     -521.659    132606.22     -42290.2    3516.1674   -45806.368   0.15107412 
   52300    283.74421   -512.81553    132591.12   -42281.712    3463.5002   -45745.212   0.15724555 
   52400       285.88   -541.33004    132591.37   -42372.578    3489.5705   -45862.149   0.14589148 
   52500    288.38925    -520.7443    132589.14   -42246.015    3520.1995   -45766.215   0.15957545 
   52600    292.94121    -477.5761    132648.78   -42163.046    3575.7626   -45738.809    0.1459176 
   52700    291.44458   -495.75623       132655   -42174.971    3557.4941   -45732.465   0.15443088 
   52800    297.74456   -500.69628    132676.43   -42074.687    3634.3943   -45709.081   0.15158427 
   52900    298.37049   -488.50878    132668.52   -42126.681    3642.0346   -45768.716   0.15260648 
   53000    295.57597   -510.37909    132675.56   -42091.673    3607.9236   -45699.597   0.15655979 
   53100      295.837   -504.36985    132669.69   -42216.112    3611.1099   -45827.222   0.14733513 
   53200    291.30867    -495.2396    132632.13   -42258.022    3555.8351   -45813.858   0.14979603 
   53300      293.811    -504.5012    132652.29   -42256.232    3586.3797   -45842.612    0.1461485 
   53400    292.42323   -498.14244    132661.54   -42170.311    3569.4399   -45739.751   0.15035806 
   53500    292.66164   -510.97114    132692.68     -42138.9      3572.35    -45711.25   0.15088621 
   53600    292.20202   -505.11653    132670.34    -42216.85    3566.7398    -45783.59   0.14690567 
   53700    292.42497    -501.1012    132688.52   -42173.799    3569.4612    -45743.26   0.15039095 
   53800    295.16042   -488.38782    132661.89   -42212.474    3602.8512   -45815.325   0.14688252 
   53900    293.16765   -516.43219    132654.41    -42222.43    3578.5266   -45800.956   0.14674698 
   54000    291.52758   -519.17876    132641.81   -42253.605    3558.5073   -45812.113   0.15223314 
   54100     291.3941   -505.13365    132656.81   -42193.498    3556.8779   -45750.376    0.1445281 
   54200    296.90271   -508.21979    132665.43   -42145.138    3624.1183   -45769.257   0.15399045 
   54300    301.80183   -468.78282    132684.63   -42077.657     3683.919   -45761.576   0.14416178 
   54400    295.85808   -504.33198    132706.44   -42035.874    3611.3672   -45647.241   0.15234152 
   54500    300.87092   -440.03253    132707.19   -42098.998     3672.556   -45771.554   0.14293754 
   54600    299.27725   -486.67451    132690.45   -42082.304     3653.103   -45735.407   0.15043168 
   54700    296.80887   -468.37294    132692.15     -42118.2    3622.9729   -45741.173   0.14876967 
   54800    298.64633   -462.20073       132700   -42092.113    3645.4017   -45737.515   0.14462193 
   54900     295.9297   -506.06522    132727.53   -42104.559    3612.2414     -45716.8   0.15065514 
   55000    299.51896   -496.26718    132734.21   -42129.887    3656.0534   -45785.941   0.14574246 
   55100     294.4775   -484.09773    132711.09   -42128.631    3594.5152   -45723.147   0.14929703 
   55200    293.12158   -506.88631    132696.12   -42272.434    3577.9643   -45850.399   0.14290508 
   55300    288.47412   -477.32987    132659.95   -42313.386    3521.2354   -45834.621    0.1431588 
   55400     292.9324   -475.35188    132654.79   -42254.269    3575.6551   -45829.924   0.14257064 
   55500    286.83755   -497.04561    132680.82   -42253.435    3501.2588   -45754.694    0.1479277 
   55600    296.25886   -477.89724    132705.12   -42134.584    3616.2593   -45750.843   0.14659086 
   55700    294.49276   -525.70029    132732.35   -42086.681    3594.7015   -45681.383   0.15159702 
   55800    298.52589   -512.54631     132776.9   -42072.334    3643.9315   -45716.266   0.14683341 
   55900    300.48838   -457.09858    132746.75   -42109.309    3667.8865   -45777.196   0.14688784 
   56000    296.53306   -505.18627    132737.45   -42108.707    3619.6062   -45728.313   0.14655354 
   56100    295.21941   -507.59956    132719.17   -42091.544    3603.5713   -45695.115   0.15311009 
   56200    299.43434   -491.55947    132737.65   -42113.824    3655.0204   -45768.844   0.14206115 
   56300     290.9255   -542.26847    132709.32   -42202.458    3551.1581   -45753.616   0.15181079 
   56400    292.87764    -466.4121    132705.87   -42241.673    3574.9867    -45816.66    0.1410353 
   56500    292.84568   -457.18529    132668.65   -42292.846    3574.5965   -45867.443    0.1452481 
   56600    287.72307   -466.38148    132670.42   -42338.047    3512.0679   -45850.115   0.14180272 
   56700    287.50091   -504.12007     132672.7   -42286.562    3509.3561   -45795.918    0.1455213 
   56800    294.95951   -510.76725    132698.96   -42184.645    3600.3988   -45785.044   0.14878792 
   56900    291.04922    -493.7737    132694.25     -42295.4    3552.6681   -45848.069   0.13992523 
   57000    290.95702   -517.68561    132688.29   -42315.901    3551.5428   -45867.444    0.1430416 
   57100    297.17968   -484.00104     132688.3   -42195.738    3627.4992   -45823.238   0.14444414 
   57200    294.56434   -510.34843    132707.24   -42161.571    3595.5753   -45757.146    0.1472502 
   57300    292.51335   -493.96016    132677.02   -42286.692      3570.54   -45857.232   0.14336213 
   57400     290.1448    -489.2962    132680.73   -42195.768    3541.6284   -45737.396   0.14746471 
   57500    292.02323   -492.02744    132685.47    -42185.02    3564.5574   -45749.577   0.14682315 
   57600    289.70675   -491.24273       132665   -42260.302    3536.2814   -45796.583   0.14636224 
   57700    295.65684   -506.96685    132679.16   -42217.319    3608.9108    -45826.23   0.14259821 
   57800    292.39683   -516.44285    132699.81   -42137.707    3569.1177   -45706.825   0.15503077 
   57900    293.12791   -499.68376    132714.17   -42212.053    3578.0415   -45790.094   0.14032373 
   58000    294.95796   -495.73542    132708.03   -42133.804    3600.3799   -45734.184   0.15103034 
   58100    296.56039   -504.59732    132691.34   -42202.212    3619.9399   -45822.152   0.14390409 
   58200    299.54145   -484.13547    132708.87   -42038.264     3656.328   -45694.592   0.15192308 
   58300    296.20517   -492.04205    132731.88   -42121.237    3615.6039   -45736.841   0.14579703 
   58400    294.79245   -498.25584     132693.8   -42158.963    3598.3596   -45757.323   0.14742023 
   58500    296.60542   -514.63486    132694.38   -42183.788    3620.4895   -45804.277   0.14440616 
   58600    296.64967   -484.11723    132680.79   -42226.104    3621.0296   -45847.133   0.14312539 
   58700    298.61602   -519.62232    132675.71   -42179.939    3645.0317   -45824.971   0.14678016 
   58800    291.13144   -502.85639    132695.75   -42189.206    3553.6718   -45742.878   0.14831164 
   58900      292.054   -507.34458    132665.26    -42129.03     3564.933   -45693.963   0.14991645 
   59000    298.01447   -487.89807    132699.04   -42047.659    3637.6889   -45685.348   0.14678753 
   59100    295.76044   -504.01903    132697.56   -42063.352    3610.1753   -45673.527   0.15367858 
   59200    290.19994   -520.54093    132666.15   -42143.835    3542.3016   -45686.137   0.15259421 
   59300     289.6529    -469.2924    132667.95   -42157.353    3535.6241   -45692.977   0.14921157 
   59400    296.63072   -484.52546    132677.45   -42141.228    3620.7984   -45762.026   0.14374282 
   59500    293.44162   -516.93049    132658.94   -42247.219    3581.8708   -45829.089   0.14414715 
   59600    297.26602   -485.78995    132645.77   -42181.682    3628.5531   -45810.235   0.14397519 
   59700    291.22089   -523.03917    132673.72   -42135.439    3554.7637   -45690.203   0.15294837 
   59800    290.42796   -480.76667    132637.82   -42271.291    3545.0848   -45816.375   0.14114384 
   59900    292.75403   -445.46574     132632.9   -42262.917    3573.4778   -45836.395   0.14411014 
   60000    294.98455   -494.82624     132643.6   -42212.715    3600.7045    -45813.42   0.14504932 
   60100    294.21025   -515.55791    132643.28   -42203.124     3591.253   -45794.377   0.14819251 
   60200    288.76678   -503.12811    132658.19    -42167.16    3524.8078   -45691.968    0.1481116 
   60300    294.70796   -510.37556    132680.24   -42111.748    3597.3283   -45709.076   0.14968597 
   60400    292.45139   -511.09755    132691.61   -42069.425    3569.7837   -45639.209   0.15019237 
   60500    295.55081   -489.44444    132698.94    -42060.88    3607.6164   -45668.497   0.14929434 
   60600    292.83162   -518.53247    132677.18   -42146.974     3574.425   -45721.399   0.14847903 
   60700    299.37537   -494.20305    132692.64   -42011.169    3654.3007   -45665.469   0.15235209 
   60800     302.0599   -498.62828    132711.49   -42017.575    3687.0692   -45704.644   0.15079071 
   60900    298.43999    -528.6193    132698.59   -42064.976     3642.883   -45707.859   0.15001643 
   61000    297.16462   -510.24914    132670.11   -42154.919    3627.3153   -45782.235   0.14436189 
   61100    299.68565   -474.68303    132676.11   -42095.262     3658.088    -45753.35   0.14900263 
   61200    293.68829   -480.62263    132661.65   -42107.683    3584.8818   -45692.565    0.1492463 
   61300    294.76529   -540.60236    132671.83    -42134.57    3598.0281   -45732.598   0.14941149 
   61400    296.99784   -520.39437    132679.49   -42157.479    3625.2795   -45782.758   0.14989198 
   61500    295.20174   -501.78639    132688.68   -42150.691    3603.3556   -45754.046   0.14165455 
   61600    289.79895   -532.40083    132689.89   -42211.364    3537.4069    -45748.77   0.15136952 
   61700    294.39494   -483.82471     132691.1   -42224.118    3593.5075   -45817.626   0.14125603 
   61800    284.33764   -517.85461    132684.26   -42217.798    3470.7439   -45688.542   0.14812239 
   61900     295.1955   -502.99468    132695.82   -42132.031    3603.2794   -45735.311   0.14461722 
   62000    292.41881   -480.02065    132719.21   -42147.645     3569.386    -45717.03   0.14113085 
   62100     292.4281   -485.61884    132716.47   -42176.243    3569.4993   -45745.743   0.14455391 
   62200    293.51426   -516.30302    132711.51   -42089.629    3582.7575   -45672.387   0.14830987 
   62300    294.06369   -491.04799     132686.3   -42196.098    3589.4641   -45785.562   0.14250212 
   62400    296.55463   -533.97735    132689.46   -42196.403    3619.8695   -45816.272   0.14922464 
   62500    295.31625   -475.44505     132698.1   -42195.047    3604.7533   -45799.801   0.14234158 
   62600    291.07146   -514.68717    132708.93   -42223.912    3552.9397   -45776.851   0.14655715 
   62700    288.06697   -499.66836    132680.54   -42216.118    3516.2656   -45732.384   0.14510281 
   62800    293.75208    -470.3635    132670.79   -42218.131    3585.6605   -45803.792   0.14265318 
   62900    300.22059   -492.22254    132701.81   -42167.787    3664.6178   -45832.405   0.14388279 
   63000    291.91304   -471.50424    132687.26   -42208.155    3563.2123   -45771.367    0.1391978 
   63100    289.08404   -507.59716    132668.21   -42265.439    3528.6804    -45794.12   0.14775759 
   63200    295.79937   -486.43697    132687.29   -42138.519    3610.6505    -45749.17   0.14286748 
   63300     290.7797     -548.243    132678.72   -42226.211    3549.3783   -45775.589   0.14969959 
   63400    290.04643   -497.14937    132667.94   -42296.062    3540.4277    -45836.49   0.13976454 
   63500    288.74294   -495.91677    132671.99    -42248.83    3524.5168   -45773.347   0.14522411 
   63600    288.70682   -511.42991    132669.69   -42318.063    3524.0758   -45842.139   0.14022423 
   63700    286.09447   -532.35998    132640.99   -42326.932    3492.1884    -45819.12   0.14535523 
   63800    288.99209   -492.82325    132653.69   -42355.025     3527.558   -45882.583   0.14000516 
   63900     290.8703   -513.15046     132661.4   -42253.035    3550.4842   -45803.519   0.14656613 
   64000    294.52577   -496.73888    132679.48   -42175.489    3595.1044   -45770.593   0.14551158 
   64100    287.13837   -503.96589    132684.06   -42139.259    3504.9307    -45644.19   0.15149363 
   64200    299.74803   -495.82633    132708.76   -42110.298    3658.8495   -45769.148   0.14443765 
   64300     294.8386   -508.97495    132697.56   -42124.078    3598.9229   -45723.001   0.15065924 
   64400    291.67926   -546.04123    132683.83   -42202.901    3560.3587    -45763.26   0.14866418 
   64500    288.49431   -530.07675    132663.51   -42185.025    3521.4819   -45706.507   0.14829492 
   64600    290.44202   -484.08284    132668.79   -42248.526    3545.2565   -45793.783   0.14255179 
   64700    288.81517   -521.85233    132676.38   -42276.783    3525.3985   -45802.181    0.1440461 
   64800    292.43255   -490.50091    132686.18    -42203.97    3569.5537   -45773.523   0.14812302 
   64900    300.89264   -484.73076    132698.51   -42141.169    3672.8211    -45813.99   0.14392223 
   65000    298.16885   -494.80608    132705.18   -42108.368    3639.5733   -45747.941   0.14974816 
   65100    297.94873    -525.7709    132716.92   -42166.831    3636.8865   -45803.718   0.14260717 
   65200    293.24943   -482.07439    132703.31   -42188.297    3579.5249   -45767.822   0.15105497 
   65300    293.03938   -494.88594    132700.57   -42098.721    3576.9609   -45675.682   0.14804041 
   65400    294.43024   -482.29414    132700.46   -42150.251    3593.9383    -45744.19   0.14711885 
   65500    299.93257   -494.76315    132706.34   -42078.307    3661.1021   -45739.409    0.1448883 
   65600    301.70997   -504.41754    132749.16   -42080.573    3682.7978   -45763.371   0.14893747 
   65700    301.95631   -479.83922    132733.65   -42076.674    3685.8047   -45762.479   0.14502621 
   65800     296.7308   -503.95549    132730.15   -42128.409    3622.0199   -45750.429   0.15013984 
   65900    298.22804   -493.02369    132717.38   -42147.496    3640.2959   -45787.792   0.14334261 
   66000    291.40974   -500.40774    132704.18   -42133.205    3557.0689   -45690.274   0.14949441 
   66100    291.73613   -531.68538    132699.11   -42168.266    3561.0529   -45729.319   0.14459764 
   66200    293.36275   -486.57475    132680.37   -42241.298    3580.9081   -45822.207   0.14770351 
   66300    292.57863   -504.59067    132690.41   -42235.295    3571.3368   -45806.632   0.14386918 
   66400    292.77282    -468.6615    132700.28   -42213.858    3573.7072   -45787.565   0.14146162 
   66500     295.1409   -505.80995    132696.59   -42188.487     3602.613     -45791.1   0.14411505 
   66600    293.15826   -503.99704    132683.32   -42227.039     3578.412   -45805.451   0.14227504 
   66700    296.57502   -505.22137    132667.86   -42221.523    3620.1184   -45841.641   0.14733389 
   66800    289.44789   -509.75657    132660.95   -42261.567    3533.1217   -45794.689   0.14582422 
   66900    293.10536   -505.77344    132661.87    -42238.35    3577.7663   -45816.116   0.14583455 
   67000    287.61325   -518.12324    132662.35   -42353.571    3510.7274   -45864.298   0.13888749 
   67100    293.50017   -469.17308    132670.05   -42169.474    3582.5855   -45752.059   0.14400088 
   67200    292.32191    -508.7537    132688.71   -42229.237    3568.2031    -45797.44   0.14459649 
   67300    286.30127   -521.54184    132695.72   -42223.644    3494.7127   -45718.357   0.14750617 
   67400    294.66357   -511.14247    132710.08   -42187.532    3596.7865   -45784.318    0.1424436 
   67500    293.82607   -513.25791    132687.35   -42163.671    3586.5636   -45750.235   0.14587193 
   67600    300.39764   -452.43771    132707.51   -42048.398    3666.7789   -45715.177   0.14187774 
   67700    294.58696   -481.60511    132714.47   -42097.738    3595.8513   -45693.589   0.15028141 
   67800    298.26478   -494.96039    132730.74   -42143.772    3640.7443   -45784.516   0.14275532 
   67900    295.46554   -493.97558    132718.19   -42159.842    3606.5756   -45766.418    0.1474502 
   68000    297.57354   -467.52167    132714.08    -42211.48    3632.3068   -45843.787   0.14130701 
   68100    291.60192   -500.51989    132689.78   -42214.968    3559.4146   -45774.383   0.14460146 
   68200     291.8041   -534.79938    132702.25   -42226.479    3561.8826   -45788.362   0.14792085 
   68300    292.27457   -518.33316    132714.81   -42148.123    3567.6253   -45715.749   0.14775756 
   68400    296.88758   -509.77253    132737.44   -42077.734    3623.9337   -45701.668   0.14772827 
   68500    298.03304   -506.95397    132719.49   -42112.591    3637.9156   -45750.507   0.14545745 
   68600    293.83563    -516.8703    132685.17       -42130    3586.6803    -45716.68   0.14903621 
   68700    300.41325   -477.57139    132696.35   -42171.837    3666.9694   -45838.806   0.14363205 
   68800    294.22282   -514.67457    132698.71   -42162.706    3591.4065   -45754.112   0.14869232 
   68900    296.67186   -506.90198    132698.93   -42156.573    3621.3004   -45777.874   0.14365131 
   69000    300.06946   -508.63219     132703.1   -42151.306    3662.7731   -45814.079   0.14331246 
   69100    290.51238   -512.52617    132674.58   -42264.576    3546.1153   -45810.691   0.14005537 
   69200    293.68681   -506.41071    132686.59   -42235.948    3584.8637   -45820.812   0.14250284 
   69300    292.42843   -497.13361    132678.03   -42253.211    3569.5034   -45822.714   0.14318427 
   69400    286.07721   -480.95512       132652   -42307.022    3491.9777       -45799   0.14522913 
   69500    289.69855   -493.89952    132666.23   -42240.897    3536.1814   -45777.078   0.14451631 
   69600    295.98402   -498.07725    132733.45   -42048.251    3612.9045   -45661.155   0.15262969 
   69700    297.19805   -492.87612    132734.01   -42134.067    3627.7234    -45761.79   0.14445569 
   69800    292.99798   -474.72718    132703.73   -42187.607    3576.4556   -45764.063   0.14497825 
   69900    294.35284   -490.74117    132712.26   -42252.532    3592.9935   -45845.525   0.14008015 
   70000    294.13246   -451.76216    132705.82   -42169.918    3590.3035   -45760.222   0.14356409 
   70100     292.0917   -500.72751    132692.13   -42276.097    3565.3931    -45841.49   0.14124751 
   70200    290.38375   -520.74854    132697.56   -42155.365    3544.5452   -45699.911   0.14714715 
   70300    293.06158    -498.0252    132672.38   -42201.965    3577.2319   -45779.197   0.14716695 
   70400      303.032   -460.71516    132722.92   -42070.448     3698.935   -45769.383   0.14441641 
   70500    295.77736   -508.17683    132711.65   -42173.984    3610.3818   -45784.366   0.14988737 
   70600    293.48864   -504.14319    132703.96   -42174.096    3582.4447   -45756.541   0.14828101 
   70700    291.80421   -489.44642    132697.01   -42181.317    3561.8839   -45743.201   0.14670313 
   70800     290.6508   -505.94588     132698.7   -42207.575    3547.8049    -45755.38   0.14825229 
   70900    287.43326   -514.50871    132713.75   -42244.422    3508.5302   -45752.952   0.14578891 
   71000    291.31611   -515.33919    132699.45   -42208.191    3555.9259   -45764.117   0.14915624 
   71100    290.40901   -475.83306    132660.06   -42263.291    3544.8535   -45808.144   0.14292345 
   71200    290.87201   -463.29672    132676.62   -42187.782    3550.5051   -45738.287   0.14374215 
   71300    287.33961   -517.68209    132669.15   -42295.643    3507.3871    -45803.03   0.15016969 
   71400    290.61257    -504.2121    132684.68   -42231.638    3547.3383   -45778.976   0.14159487 
   71500    291.04015    -523.9139    132667.52    -42186.52    3552.5575   -45739.078   0.15443377 
   71600    297.22386   -451.66937     132674.1    -42173.44    3628.0384   -45801.478   0.14218248 
   71700     293.2281   -468.27483    132672.79   -42202.634    3579.2645   -45781.898   0.14590684 
   71800    291.04015   -513.30466    132677.29   -42303.929    3552.5574   -45856.486   0.14474039 
   71900    290.14018    -481.0697    132654.86   -42310.454    3541.5721   -45852.026   0.14238818 
   72000    285.23825   -518.68893     132658.2   -42292.896    3481.7371   -45774.633   0.14976152 
   72100    296.36191   -478.96902    132689.25   -42161.039    3617.5171   -45778.556   0.14458944 
   72200    296.28855   -523.05266    132713.74    -42031.44    3616.6217   -45648.061   0.15560958 
   72300    298.79583   -545.14503    132747.05   -41969.779    3647.2265   -45617.005    0.1576201 
   72400    300.67343   -485.31974    132721.71   -42118.533    3670.1454   -45788.678   0.14668979 
   72500     300.7883   -517.04925    132716.39   -42137.806    3671.5475   -45809.353   0.14584205 
   72600    301.89569   -486.57707    132731.44   -42059.308    3685.0647   -45744.373   0.14673951 
   72700    288.94465   -551.28557     132695.9   -42173.976    3526.9789   -45700.955   0.15045342 
   72800    296.51101   -507.35391    132686.47   -42159.636     3619.337   -45778.973   0.15090027 
   72900    295.50804   -475.26076    132682.03   -42141.575    3607.0944   -45748.669   0.14536826 
   73000    291.95777   -521.62505    132684.47   -42186.422    3563.7584   -45750.181   0.15374995 
   73100    294.25701     -458.986    132672.48   -42156.128    3591.8238   -45747.952   0.14510164 
   73200    301.68959   -483.47914    132687.41   -42073.922     3682.549   -45756.471   0.15039834 
   73300    303.02131   -500.43448    132694.11   -42022.259    3698.8045   -45721.063   0.14969628 
   73400    298.97442   -496.32795     132705.7   -42027.431    3649.4065   -45676.837   0.15540503 
   73500    302.76444   -495.92897    132724.39   -42005.592    3695.6691   -45701.261   0.15077998 
   73600    295.30618   -523.78397    132710.81   -42040.084    3604.6304   -45644.714    0.1574555 
   73700    296.71279   -506.60073    132689.39    -42153.38    3621.8001    -45775.18   0.14739337 
   73800     291.5324   -569.25787    132693.76   -42238.743    3558.5661    -45797.31   0.15073594 
   73900     289.9528   -473.22649    132675.22   -42197.026    3539.2848   -45736.311   0.14959066 
   74000    293.66868   -497.86619    132679.45   -42178.101    3584.6424   -45762.744   0.15065361 
   74100    303.66469   -484.78999    132729.58   -42021.826    3706.6579   -45728.484   0.15022303 
   74200    295.21265   -516.29424    132730.27   -42126.608    3603.4888   -45730.097   0.15146515 
   74300     292.1779    -528.4403     132688.9   -42188.593    3566.4453   -45755.038   0.14976116 
   74400    298.00289   -512.63608    132700.98   -42160.634    3637.5476   -45798.181   0.15042755 
   74500    288.56243   -492.57338    132677.62   -42218.802    3522.3134   -45741.115   0.14631718 
   74600    297.63906   -507.03321    132675.26   -42172.224    3633.1065   -45805.331   0.14924151 
   74700    297.40518   -498.01771    132706.73    -42115.55    3630.2517   -45745.802   0.14818649 
   74800    296.56797   -522.81934    132654.96   -42177.816    3620.0323   -45797.849   0.14897919 
   74900    293.14133   -513.77322    132648.29   -42139.737    3578.2053   -45717.942   0.15389703 
   75000    289.28556   -525.62725     132617.5   -42188.093    3531.1402   -45719.233   0.15137921 
   75100     296.9252   -458.05554    132657.54   -42093.692    3624.3929   -45718.085   0.15138801 
   75200    300.22273    -480.3262    132663.25   -42106.807    3664.6439   -45771.451      0.14329 
   75300    291.56556   -499.87088    132662.63   -42184.164    3558.9709   -45743.135   0.14929342 
   75400    294.65809   -499.30858    132645.77   -42204.986    3596.7196   -45801.705   0.14638075 
   75500    291.53115    -505.3101    132632.68    -42220.52    3558.5508   -45779.071   0.15119593 
   75600    290.99527   -515.34966    132646.94   -42144.291    3552.0097     -45696.3    0.1544355 
   75700    296.56075   -503.98034    132686.57   -42068.223    3619.9442   -45688.167   0.15507473 
   75800     297.5818   -479.24328    132663.47   -42050.781    3632.4076   -45683.188    0.1508581 
   75900    298.38613   -513.96015    132653.63   -42114.871    3642.2255   -45757.096   0.15072691 
   76000    295.08629   -465.23086    132670.42   -42101.701    3601.9464   -45703.647   0.14924652 
   76100    288.76064   -514.79679    132654.29   -42195.305    3524.7328   -45720.038   0.15299902 
   76200    293.51401   -459.47218       132627    -42250.31    3582.7545   -45833.064   0.14515265 
   76300    294.00749   -489.86832    132632.11   -42204.702     3588.778    -45793.48   0.14793199 
   76400    296.67948   -494.18424    132622.48   -42217.135    3621.3935   -45838.529   0.14657908 
   76500    294.36373   -493.95949     132625.4    -42168.06    3593.1265   -45761.187   0.14906456 
   76600     294.2982    -512.1401    132639.14   -42162.469    3592.3265   -45754.796    0.1496984 
   76700    295.11283   -471.43079    132635.57   -42120.445    3602.2703   -45722.715   0.14921392 
[...]
   81900    298.22392    -510.2569    132691.51   -42237.043    3640.2455   -45877.289   0.14728316 
   82000    296.52748   -483.17445    132699.09   -42167.016    3619.5381   -45786.554   0.15019603 
   82100    294.69746   -531.37619    132723.39   -42118.887    3597.2002   -45716.087    0.1547807 
   82200    299.70869    -477.1293    132711.13   -42075.022    3658.3693   -45733.392       0.1509 
   82300    295.42269   -496.60514    132707.63   -42176.766    3606.0526   -45782.819    0.1516567 
   82400    296.69119   -460.02814    132703.45   -42092.173    3621.5364    -45713.71   0.15032659 
   82500    301.16799   -456.12479    132754.67   -41984.874    3676.1821   -45661.056   0.15583918 
   82600    297.94983   -518.58861    132744.15   -42037.167    3636.8999   -45674.067   0.15426396 
   82700    294.01408   -535.97935    132694.64   -42158.688    3588.8585   -45747.546   0.15675672 
   82800     295.0858   -469.38352     132697.2   -42155.477    3601.9403   -45757.417   0.14644605 
   82900    299.75821   -455.42948    132689.89   -42117.654    3658.9738   -45776.627    0.1554426 
   83000    295.60402   -493.81639    132681.51   -42080.308    3608.2659   -45688.573   0.15566662 
   83100    295.83461   -520.28236    132695.76   -42063.312    3611.0807   -45674.393    0.1618174 
   83200    291.64363   -516.03429    132677.19   -42117.415    3559.9238   -45677.339   0.15489162 
   83300    297.96165   -507.86548    132655.26   -42145.818    3637.0441   -45782.862   0.15467665 
   83400    294.05748   -485.11249    132667.62   -42149.007    3589.3882   -45738.395   0.15017834 
   83500    290.31323   -559.78174     132635.9    -42275.71    3543.6844   -45819.394   0.15267195 
   83600    287.55182   -502.67702    132639.89   -42246.185    3509.9775   -45756.162   0.14931671 
   83700    290.50926   -527.31823    132665.08   -42252.352    3546.0772   -45798.429   0.15247995 
   83800     291.1439   -512.07419    132678.27   -42234.641    3553.8238   -45788.465   0.15231335 
   83900    296.02415   -481.48728    132685.79   -42207.865    3613.3943    -45821.26   0.14811476 
   84000    293.14027   -473.06908     132681.6   -42212.556    3578.1924   -45790.748   0.15082203 
   84100    291.09385   -483.29757    132698.91   -42174.568     3553.213   -45727.782   0.14646897 
   84200    294.29792   -506.13625    132698.79   -42153.617    3592.3232    -45745.94    0.1554459 
   84300    292.47009   -522.72805    132683.37    -42213.56    3570.0119   -45783.572   0.14944991 
   84400    288.84486   -504.50383    132685.69   -42203.841    3525.7609   -45729.602   0.15405908 
   84500    294.38636   -539.45302    132689.91   -42222.813    3593.4027   -45816.216   0.14794664 
   84600    297.61075   -542.78506    132699.59   -42149.073    3632.7609   -45781.834   0.15347527 
   84700     295.4177   -492.74102    132701.87   -42167.498    3605.9917    -45773.49    0.1479549 
   84800    296.39116   -508.55357    132699.39   -42162.033    3617.8741   -45779.907   0.15258001 
   84900     297.2269   -493.02808    132705.45   -42085.002    3628.0755   -45713.078   0.15134579 
   85000    295.39828   -526.91475    132703.62   -42161.673    3605.7546   -45767.427    0.1550264 
   85100    293.99888   -501.86791    132691.42   -42191.599     3588.673   -45780.272   0.14600635 
   85200    298.67841   -490.66717    132697.46   -42166.484    3645.7933   -45812.277   0.15242147 
   85300    295.01856   -489.39534    132702.35   -42171.546    3601.1196   -45772.665   0.14927794 
   85400    293.52252      -535.57     132687.4   -42228.979    3582.8583   -45811.837     0.151421 
   85500    293.37641    -482.3683     132700.9   -42185.758    3581.0748   -45766.833   0.14823729 
   85600    294.53481   -510.47306    132722.04   -42216.836    3595.2148   -45812.051   0.14844068 
   85700    295.19472   -466.71827    132707.53   -42207.022    3603.2699   -45810.292   0.14875356 
   85800     292.9517   -547.43076    132707.81   -42168.772    3575.8907   -45744.663   0.15579243 
   85900    293.19534   -523.50586    132708.21   -42121.262    3578.8646   -45700.126    0.1561332 
   86000    292.33294   -523.47148    132695.52   -42177.463    3568.3378   -45745.801   0.14934535 
   86100    295.94935    -465.1739    132682.38   -42136.744    3612.4813   -45749.225   0.15162496 
   86200    295.89033   -475.54711    132688.49   -42143.965    3611.7608   -45755.726   0.15061428 
   86300    291.64701    -552.3809    132684.11   -42180.311    3559.9651   -45740.276   0.15914802 
   86400    297.38212    -509.0131     132661.6   -42216.367    3629.9703   -45846.338   0.15000669 
   86500     288.4084   -482.51014    132655.37   -42262.386    3520.4333    -45782.82   0.15689701 
   86600    298.67879   -459.23592     132678.9   -42133.969    3645.7979   -45779.767   0.14686648 
   86700    294.69365   -528.15822    132690.71   -42145.378    3597.1536   -45742.532   0.15664965 
   86800     299.1758   -440.22389    132691.84   -42213.626    3651.8646    -45865.49     0.139508 
   86900    289.46672   -512.43115    132666.96   -42166.828    3533.3515   -45700.179   0.15838599 
   87000    298.38587   -474.06291    132679.43   -42135.003    3642.2225   -45777.226   0.14825089 
   87100    295.20281   -473.60149    132656.09   -42174.298    3603.3687   -45777.666   0.15384125 
   87200    291.41657   -500.41029    132671.99   -42128.146    3557.1522   -45685.298    0.1566397 
   87300    300.05277   -508.95311    132695.42   -42106.624    3662.5693   -45769.193    0.1509705 
   87400    298.79516   -528.86329    132650.63   -42152.545    3647.2184   -45799.763   0.15588245 
   87500    296.64384   -539.43715    132663.92    -42120.01    3620.9585   -45740.969   0.15337397 
   87600    290.69346   -488.36637    132672.74   -42147.257    3548.3257   -45695.583   0.15653673 
   87700    295.93509   -485.47365     132670.5    -42135.49    3612.3071   -45747.797   0.15211468 
   87800    289.53924   -476.18228    132657.46   -42170.128    3534.2368   -45704.364   0.15586108 
   87900    287.86602   -500.36365    132653.52   -42228.747    3513.8127    -45742.56   0.15334441 
   88000    294.21236   -490.88635    132661.42   -42181.584    3591.2788   -45772.863    0.1555604 
   88100    299.99926   -484.79106    132656.82   -42150.122    3661.9162   -45812.038   0.15168089 
   88200     291.3772   -501.03868    132665.59   -42239.318    3556.6716    -45795.99   0.15533116 
   88300    296.57478   -460.52919    132669.86   -42209.064    3620.1155   -45829.179   0.14334091 
   88400    292.03413   -519.37006    132690.69   -42150.527    3564.6904   -45715.217   0.16222608 
   88500    297.26325     -505.162    132692.76   -42201.897    3628.5193   -45830.417   0.14513458 
   88600     294.1134    -520.9998    132687.03    -42178.85    3590.0709   -45768.921   0.15949101 
   88700    296.24418   -486.25394    132712.76   -42160.498    3616.0801   -45776.578   0.14473637 
   88800    293.34416   -512.55777    132692.09   -42198.839    3580.6812    -45779.52   0.15681501 
   88900    286.59504   -504.22429    132684.25   -42198.986    3498.2986   -45697.284   0.15234519 
   89000    291.17927   -480.11959    132698.34   -42145.463    3554.2557   -45699.719   0.15443914 
   89100    290.03012   -505.12706    132680.12   -42192.038    3540.2287   -45732.267   0.15477343 
   89200      293.821   -454.36974    132686.34   -42140.208    3586.5017   -45726.709    0.1489762 
   89300    290.64748   -490.49302    132665.65   -42252.044    3547.7644   -45799.808   0.15265625 
   89400    297.10144   -506.80697    132696.46   -42143.496    3626.5441    -45770.04   0.15185658 
   89500    290.25974   -496.65282    132655.95   -42217.698    3543.0314    -45760.73   0.15500779 
   89600    295.14261   -511.33428    132666.62   -42314.303    3602.6338   -45916.937   0.14723969 
   89700     298.7455   -478.45327    132670.95   -42208.585    3646.6122   -45855.197   0.14901213 
   89800    295.57376   -474.97109    132668.56   -42153.917    3607.8966   -45761.813   0.15128073 
   89900    295.48472   -496.68336    132701.88   -42137.769    3606.8098   -45744.579    0.1588932 
   90000    296.37487   -487.91658    132711.28    -42178.43    3617.6753   -45796.105   0.14798963 
   90100    299.54281   -533.60993     132696.3   -42129.343    3656.3445   -45785.687   0.15988818 
   90200    293.64008   -476.95363     132695.7   -42180.337    3584.2934    -45764.63   0.14061908 
   90300    291.99934   -460.29114    132679.56   -42204.712    3564.2658   -45768.978   0.15575586 
   90400    295.07397   -501.74425    132698.81   -42170.016     3601.796   -45771.812   0.14487494 
   90500    292.59866   -503.62661    132698.96   -42171.542    3571.5813   -45743.124   0.16125304 
   90600    301.76836   -471.32927    132712.81   -42143.085    3683.5105   -45826.596   0.14824466 
   90700    293.87207   -517.20455    132698.42   -42186.058    3587.1251   -45773.183   0.15114378 
   90800     290.6594    -529.8307    132681.17   -42225.667    3547.9099   -45773.577   0.15105589 
   90900    295.78399   -472.52251     132700.2   -42158.371    3610.4628   -45768.833   0.15017975 
   91000    292.24291   -508.36446    132713.36   -42252.865    3567.2389   -45820.104    0.1484484 
   91100    287.28864   -558.66655    132691.29   -42317.953     3506.765   -45824.718   0.14949278 
   91200    288.54289   -492.73284    132664.62   -42304.233    3522.0748   -45826.307   0.14571584 
   91300    291.00234    -516.1438    132687.87     -42256.5    3552.0959   -45808.596   0.14975682 
   91400    292.56859   -491.02696    132698.27   -42188.694    3571.2143   -45759.908   0.14936176 
   91500    298.82697   -489.44551    132736.45   -42034.728    3647.6067   -45682.335    0.1544266 
   91600    298.91266   -466.31964    132746.58   -42073.551    3648.6526   -45722.204   0.15674716 
   91700    296.70236   -481.94396    132743.86   -42170.772    3621.6728   -45792.445   0.14189176 
   91800    300.73758   -497.48648    132757.26   -42064.805    3670.9284   -45735.733   0.15808373 
   91900    293.36491   -524.52692    132740.19   -42118.721    3580.9345   -45699.656   0.15071994 
   92000    292.94219    -533.9646    132707.22   -42126.695    3575.7745   -45702.469   0.16345682 
   92100    295.39798   -530.73542     132689.1   -42174.843    3605.7509   -45780.594   0.14785916 
   92200    291.00671   -521.90074    132685.15   -42203.912    3552.1492   -45756.061   0.15162935 
   92300    296.29675   -509.68968    132710.31   -42083.143    3616.7218   -45699.865   0.14931082 
   92400    297.58401   -521.47523    132697.71   -42140.352    3632.4345   -45772.787    0.1595189 
   92500    295.11982   -500.38249    132696.38   -42116.578    3602.3556   -45718.933   0.15188056 
   92600    303.66063   -501.84314    132706.68       -42062    3706.6084   -45768.608   0.15629326 
   92700    298.12353   -488.06966    132702.11   -42147.421    3639.0201   -45786.442   0.14258208 
   92800    298.14932   -478.79887    132690.38   -42140.859    3639.3349   -45780.194   0.15320286 
   92900    296.55375   -499.83501     132655.9    -42165.11    3619.8588   -45784.969   0.15200093 
   93000    294.63635   -486.14945    132658.69   -42183.474    3596.4542   -45779.928   0.15262662 
   93100    296.47101   -456.10642    132659.08   -42170.481    3618.8488    -45789.33   0.15100005 
   93200    295.76257   -471.47143    132675.12   -42160.704    3610.2013   -45770.906   0.15132822 
   93300    293.26044   -498.01011    132631.76   -42216.288    3579.6592   -45795.947   0.15415843 
   93400    285.24754   -525.76705    132624.99   -42272.082    3481.8504   -45753.932   0.15202532 
   93500    291.79395   -492.96947    132634.39   -42233.675    3561.7586   -45795.433   0.15402392 
   93600    297.17146    -493.1623    132637.37   -42202.758    3627.3988   -45830.157   0.14777044 
   93700    292.97916   -482.12215    132659.95   -42183.639    3576.2259   -45759.864   0.15318214 
   93800    291.28263   -536.42817    132647.64   -42229.971    3555.5173   -45785.488   0.14689611 
   93900    291.09243   -485.08235    132660.33   -42265.178    3553.1957   -45818.373   0.15392041 
   94000    289.15235   -517.03841    132638.36   -42269.082    3529.5142   -45798.596   0.14559794 
   94100    295.64289   -463.36581    132670.74   -42156.091    3608.7404   -45764.832   0.15526541 
   94200    298.13235   -515.04618    132703.55   -42110.334    3639.1278   -45749.462   0.14815757 
   94300    291.98861   -469.38204    132685.67    -42136.08    3564.1347   -45700.215   0.15556313 
   94400    292.89573   -519.34362    132678.38    -42174.38    3575.2075   -45749.588   0.15379449 
   94500    298.77952   -476.18002    132716.55   -42090.042    3647.0274   -45737.069   0.15761907 
   94600    295.90328   -517.97342    132678.45   -42200.772    3611.9188   -45812.691   0.15100346 
   94700    286.72007   -483.78852    132675.55   -42202.192    3499.8248   -45702.017   0.15437742 
   94800    295.62594   -492.49088    132690.85   -42191.516    3608.5336    -45800.05   0.14867315 
   94900    294.05858   -530.48075     132686.4   -42250.042    3589.4016   -45839.444   0.14831601 
   95000    292.96938   -513.99931    132670.81   -42206.047    3576.1065   -45782.153   0.15573296 
   95100    290.69133   -464.85671    132686.53     -42193.8    3548.2997     -45742.1   0.15106145 
   95200    297.70713   -434.37652    132699.04   -42160.311    3633.9374   -45794.248   0.15438129 
   95300    295.89027   -471.92792     132683.8   -42177.973      3611.76   -45789.733   0.14893094 
   95400     295.7899   -486.39641    132685.56   -42143.469    3610.5349   -45754.004   0.15904082 
   95500    292.97686   -523.09027    132705.89   -42098.861    3576.1978   -45675.059   0.15537399 
   95600     299.0131   -450.37334    132672.55   -42150.806    3649.8787   -45800.685    0.1544086 
   95700    299.16977   -512.02121    132697.28   -42132.861     3651.791   -45784.652   0.14831028 
   95800    293.30772   -478.72031    132678.64   -42140.799    3580.2364   -45721.035   0.15796987 
   95900     295.4252   -510.54683    132679.83   -42160.013    3606.0832   -45766.096   0.14991089 
   96000    295.09524   -502.80942    132687.38   -42123.351    3602.0556   -45725.406   0.15863171 
   96100    298.22514    -469.0469    132699.22   -42039.344    3640.2605   -45679.605   0.15248881 
   96200    298.08353   -515.47833    132724.01   -42081.295    3638.5319   -45719.827   0.15554586 
   96300     294.3541   -521.13108    132676.34   -42107.281     3593.009    -45700.29   0.15298934 
   96400     290.8917   -502.68705    132688.37   -42152.748    3550.7454   -45703.493   0.15522348 
   96500    296.67007   -485.40488       132677   -42125.006    3621.2787   -45746.285   0.15398264 
   96600    292.92281   -522.63077    132694.23   -42180.546     3575.538   -45756.084   0.15268938 
   96700    296.29703   -445.52166    132686.67   -42152.268    3616.7252   -45768.994   0.14982351 
   96800     292.7276   -514.62499    132684.21   -42179.044    3573.1552   -45752.199   0.15136351 
   96900    293.03763   -532.85578    132677.94   -42225.511    3576.9396    -45802.45   0.15240598 
   97000    289.99243    -514.2197       132661   -42237.893    3539.7686   -45777.661   0.15140968 
   97100    295.45883   -524.22631     132651.3   -42224.174    3606.4937   -45830.668   0.15533247 
   97200    292.74029    -520.9266    132652.61   -42210.132    3573.3101   -45783.443   0.14708248 
   97300    294.28766   -524.88172    132672.32   -42072.949    3592.1979   -45665.147   0.16218964 
   97400    297.81629   -468.50815    132673.84   -42121.458    3635.2698   -45756.728   0.14630381 
   97500    298.09918    -478.1304    132674.52   -42091.551    3638.7229   -45730.273   0.15782375 
   97600    303.77534   -511.43876    132700.26    -42084.24    3708.0085   -45792.248    0.1490541 
   97700      297.717   -457.81109    132699.85   -42066.794     3634.058   -45700.852   0.15739248 
   97800     292.5821   -512.36542    132699.38   -42117.746    3571.3792   -45689.125   0.14961845 
   97900    300.53347   -516.26971       132699    -42111.38    3668.4369   -45779.817    0.1559809 
   98000    294.21431   -525.49955    132687.31   -42155.857    3591.3027    -45747.16   0.15119003 
   98100    290.11866   -553.52872    132675.37   -42151.094    3541.3094   -45692.403    0.1585565 
   98200    294.01151   -506.72077    132671.23   -42177.075    3588.8272   -45765.902   0.15317193 
   98300    297.17046   -489.51495    132681.31   -42081.701    3627.3866   -45709.087   0.15341682 
   98400    299.23486   -498.62215    132675.87   -42120.394    3652.5856   -45772.979   0.15469988 
   98500    293.22454   -503.87066    132676.83   -42135.565     3579.221   -45714.786   0.15383028 
   98600    298.27836   -499.87121    132671.48   -42137.273    3640.9101   -45778.183   0.15350183 
   98700     294.8883   -486.77383    132699.63   -42098.644    3599.5296   -45698.173   0.15469737 
   98800    295.44429   -552.82677    132683.73   -42079.533    3606.3163    -45685.85    0.1600481 
   98900    296.95992    -524.0381    132683.86   -42169.135    3624.8167   -45793.952   0.14932097 
   99000    294.69321   -482.64157    132675.43   -42150.234    3597.1483   -45747.382   0.15450055 
   99100    289.37127   -562.88731    132668.13   -42218.223    3532.1865    -45750.41   0.15023616 
   99200    297.41731   -478.20668    132654.15   -42191.772    3630.3997   -45822.172   0.15766429 
   99300    296.49008   -482.46826    132672.47   -42169.007    3619.0816   -45788.088   0.14866296 
   99400    291.94618   -561.38327    132654.86   -42207.235    3563.6168   -45770.852   0.16113735 
   99500     296.4365   -490.15687    132668.55   -42161.528    3618.4276   -45779.956   0.14755497 
   99600    293.50295   -487.86376    132669.95   -42136.246    3582.6195   -45718.865   0.15893278 
   99700    301.23864   -521.75106    132645.55   -42192.022    3677.0445   -45869.067   0.14997067 
   99800     295.8223   -495.20926    132650.05   -42171.393    3610.9304   -45782.324   0.15417378 
   99900    298.29644   -472.59096    132653.69   -42205.819    3641.1308    -45846.95   0.14676672 
  100000    295.74944    -547.0059    132632.69   -42172.836    3610.0411   -45782.877   0.15631151 
Loop time of 54.3704 on 6 procs for 100000 steps with 4096 atoms

Performance: 794.550 ns/day, 0.030 hours/ns, 1839.237 timesteps/s
97.6% CPU use with 6 MPI tasks x no OpenMP threads

MPI task timing breakdown:
Section |  min time  |  avg time  |  max time  |%varavg| %total
---------------------------------------------------------------
Pair    | 34.839     | 35.792     | 36.878     |  12.9 | 65.83
Neigh   | 5.7396     | 5.8558     | 6.0311     |   5.0 | 10.77
Comm    | 8.5832     | 9.8275     | 10.843     |  27.6 | 18.08
Output  | 0.17015    | 0.17137    | 0.1768     |   0.6 |  0.32
Modify  | 1.9862     | 2.0039     | 2.0161     |   0.8 |  3.69
Other   |            | 0.7198     |            |       |  1.32

Nlocal:        682.667 ave         705 max         669 min
Histogram: 2 1 1 0 0 0 0 1 0 1
Nghost:        1367.33 ave        1394 max        1357 min
Histogram: 2 1 2 0 0 0 0 0 0 1
Neighs:        0.00000 ave           0 max           0 min
Histogram: 6 0 0 0 0 0 0 0 0 0
FullNghs:      19459.7 ave       20084 max       19101 min
Histogram: 2 1 1 0 0 0 0 1 0 1

Total # of neighbors = 116758
Ave neighs/atom = 28.505371
Neighbor list builds = 6239
Dangerous builds = 0

undump              1
unfix               2
unfix               3
unfix               4




################################################
#######         Run Simulation         #########
################################################

reset_timestep      0
log                 log.run_${NAME}
log                 log.run_ice_295K_500atm_ML
