
# Set production fixes - Nose/Hoover
#
fix                 2 all nph iso ${PRES} ${PRES} ${PCOUPL}
fix                 2 all nph iso -500 ${PRES} ${PCOUPL}
fix                 2 all nph iso -500 -500 ${PCOUPL}
fix                 2 all nph iso -500 -500 10000.0
fix                 3 all temp/csvr ${TEMP} ${TEMP} ${TCOUPL} 837492
fix                 3 all temp/csvr 295 ${TEMP} ${TCOUPL} 837492
fix                 3 all temp/csvr 295 295 ${TCOUPL} 837492
fix                 3 all temp/csvr 295 295 5000.0 837492

# Define Order parameter
#
compute             2 all orientorder/atom nnn NULL cutoff 3.5
thermo              200
thermo_style        custom step temp press vol etotal ke pe c_1[4]

# Run 1ns simulation
dump		    1 all custom 400 prod.${NAME}.dump id type x y z vx vy vz c_2[*]
dump		    1 all custom 400 prod.ice_295K_500atm_ML.dump id type x y z vx vy vz c_2[*]
run                 200000
Neighbor list info ...
  update every 1 steps, delay 0 steps, check yes
  max neighbors/atom: 2000, page size: 100000
  master list distance cutoff = 6.0032907
  ghost atom cutoff = 6.0032907
  binsize = 3.0016454, bins = 17 17 17
  2 neighbor lists, perpetual/occasional/extra = 1 1 0
  (1) pair sw, perpetual
      attributes: full, newton on
      pair build: full/bin/atomonly
      stencil: full/bin/3d
      bin: standard
  (2) compute orientorder/atom, occasional, copy from (1)
      attributes: full, newton on
      pair build: copy
      stencil: none
      bin: none
Per MPI rank memory allocation (min/avg/max) = 5.838 | 5.838 | 5.838 Mbytes
Step Temp Press Volume TotEng KinEng PotEng c_1[4] 
       0    295.74944   -545.67518    132632.69   -42172.876    3610.0411   -45782.917   0.15631151 
     200    299.70641   -485.34022    132633.46   -42162.106    3658.3414   -45820.447   0.15070004 
     400    296.50031   -501.02986    132631.69   -42155.668    3619.2065   -45774.875   0.15154022 
     600    294.68493   -453.53126    132627.19   -42191.004    3597.0472   -45788.051   0.14840845 
     800     297.9804   -525.07365    132647.17   -42205.321    3637.2731   -45842.594   0.14896493 
    1000    291.61705    -492.4901    132639.37   -42217.133    3559.5993   -45776.733   0.14851855 
    1200    292.26576   -519.92101    132641.09    -42240.25    3567.5178   -45807.768   0.14658612 
    1400    292.17086   -517.93259    132663.66   -42231.944    3566.3594   -45798.303   0.14561711 
    1600    294.67802   -519.29188    132648.07   -42234.743    3596.9628   -45831.706   0.15032508 
    1800    293.54782   -472.73152    132614.96    -42240.29    3583.1671   -45823.457   0.15123005 
    2000    294.32347   -492.26624    132625.45   -42196.997    3592.6351   -45789.632   0.15388543 
    2200    291.76136   -520.38624    132640.55    -42164.89    3561.3609   -45726.251   0.15348222 
    2400    291.40943    -486.5944     132622.9   -42182.479    3557.0651   -45739.545   0.14971821 
    2600    293.25831   -443.81377       132591   -42225.162    3579.6333   -45804.796   0.15294947 
    2800    291.90779   -478.54895     132623.2    -42241.43    3563.1483   -45804.578   0.15796271 
    3000    292.32433   -600.19638    132715.76   -42251.584    3568.2327   -45819.817   0.15512053 
    3200    294.58698   -478.44415    132651.56   -42199.645    3595.8516   -45795.497   0.14996402 
    3400    292.43528    -460.1042    132594.52    -42238.24     3569.587   -45807.827   0.14892375 
    3600    290.07778   -509.65036    132677.03   -42265.236    3540.8104   -45806.047   0.14711359 
    3800    294.81272   -548.71661    132713.02   -42194.629     3598.607   -45793.236   0.15110723 
    4000    293.48322   -459.19606    132633.76   -42188.992    3582.3786   -45771.371   0.15062415 
    4200    292.49259   -468.81689    132614.08   -42204.924    3570.2865    -45775.21   0.15197237 
    4400     297.1552   -498.43845    132686.27   -42183.349    3627.2003   -45810.549   0.14917579 
    4600    295.29887    -497.4315    132677.07   -42170.387    3604.5412   -45774.928   0.14527863 
    4800    296.70199   -443.29306     132621.2   -42164.792    3621.6682    -45786.46   0.14282892 
    5000    293.17813    -487.0019    132654.27   -42157.196    3578.6546    -45735.85   0.15426467 
    5200     296.5381   -564.24637    132721.69   -42156.632    3619.6678     -45776.3   0.15523432 
    5400    297.18555   -502.87793    132696.03   -42117.605    3627.5708   -45745.176   0.15235536 
    5600    297.78835   -465.51138    132659.28   -42101.058    3634.9288   -45735.987   0.15014415 
    5800    291.84076   -474.00407    132693.09   -42089.528      3562.33   -45651.858   0.14980586 
    6000    301.36612   -527.29001    132723.97   -42076.604    3678.6006   -45755.205   0.15570525 
    6200    299.09717   -526.69553    132678.43   -42070.145    3650.9048    -45721.05   0.16160723 
    6400    299.09768   -470.33746    132654.52   -42038.979     3650.911    -45689.89   0.16126894 
    6600    298.47784   -532.34908    132731.42   -42077.599    3643.3451   -45720.944   0.15447924 
    6800    299.60189   -535.72935    132762.66   -42111.451    3657.0656   -45768.517    0.1504085 
    7000    295.45831   -465.18465    132642.43    -42123.32    3606.4874   -45729.807   0.15422165 
    7200     298.7207   -477.92369    132626.31   -42070.503    3646.3095   -45716.813    0.1574605 
    7400    295.66655   -587.30933    132787.56   -42051.803    3609.0292   -45660.833   0.16092319 
    7600    298.33573   -570.04384    132777.39   -42088.401    3641.6103   -45730.012   0.15546717 
    7800    292.34255   -450.38886    132578.16   -42116.182    3568.4552   -45684.637   0.15362124 
    8000    302.35219   -399.95115    132623.48    -42079.65    3690.6369   -45770.287   0.14764714 
    8200    301.65123    -627.2723    132832.89   -42112.419    3682.0807     -45794.5   0.14854116 
    8400    298.79607   -531.35609    132712.16   -42142.758    3647.2295   -45789.987   0.15317065 
    8600    292.92177   -349.37456    132482.32    -42098.84    3575.5254   -45674.365   0.15528628 
    8800    301.83736   -464.63279    132660.66   -42039.273    3684.3527   -45723.626    0.1540964 
    9000    299.74891   -714.84961    132933.27   -42015.308    3658.8603   -45674.169   0.15648943 
    9200    300.89961   -510.06069    132719.19    -42001.71    3672.9062   -45674.616   0.15762266 
    9400    301.82721   -269.62796    132449.11    -42051.11    3684.2288   -45735.339   0.15237814 
    9600    300.55863   -535.38669     132703.3   -42038.656     3668.744     -45707.4   0.16143166 
    9800    294.10999    -742.4535    132945.19   -42051.982    3590.0292   -45642.011   0.16351591 
   10000     301.4695   -465.99858    132649.82   -42050.708    3679.8625   -45730.571   0.15804669 
   10200    299.63704   -260.34483    132443.73   -42049.674    3657.4947   -45707.169   0.15528706 
   10400    300.52289   -556.61252    132767.62    -42033.98    3668.3077   -45702.288   0.16075276 
   10600    303.48383    -699.4639    132942.52   -42013.795    3704.4502   -45718.246   0.15991407 
   10800    299.69966   -422.84851    132591.22   -42046.814    3658.2591   -45705.073   0.15683053 
   11000    303.78429   -280.70195    132442.26   -42087.541    3708.1178   -45795.659   0.14905094 
   11200    293.93308   -607.35007    132833.04   -42099.342    3587.8697   -45687.212    0.1562641 
   11400    292.89558    -729.7255    132926.53   -42123.363    3575.2056   -45698.569   0.15616168 
   11600     295.9416   -388.22596    132466.21   -42098.652    3612.3867   -45711.039   0.15671086 
   11800     291.9266   -309.32912    132380.72   -42168.939    3563.3778   -45732.316   0.15245421 
   12000    292.76062   -696.02025     132833.4   -42165.332    3573.5582   -45738.891     0.154452 
   12200    291.54096   -754.10627    132848.67    -42142.75    3558.6706   -45701.421   0.15627476 
   12400    297.41684   -194.88851    132357.36   -42114.834    3630.3941   -45745.228   0.14963745 
   12600     294.7237   -369.97686    132472.15   -42124.988    3597.5204   -45722.508   0.15542862 
   12800     299.4641   -772.25368    132960.18   -42130.704    3655.3837   -45786.088   0.15826103 
   13000    295.84958   -628.48325    132775.71   -42112.789    3611.2634   -45724.052   0.15804838 
   13200    300.94111    -148.3385    132316.99   -42089.203    3673.4128   -45762.616   0.15160216 
   13400     298.7279   -430.46068    132636.29   -42106.511    3646.3973   -45752.909   0.15401357 
   13600      295.848   -831.18028    133072.46   -42098.222    3611.2442   -45709.466   0.16112826 
   13800     298.3103    -497.8175     132658.9   -42095.813    3641.2999   -45737.113   0.16382364 
   14000    296.50842   -136.99895    132268.13   -42112.069    3619.3054   -45731.375   0.15798907 
   14200    294.40701    -550.5237    132752.33   -42129.237    3593.6548   -45722.892   0.15229645 
   14400    295.52084   -821.88303    133090.97   -42154.916    3607.2507   -45762.167   0.15381314 
   14600    298.97854   -384.41946    132559.98   -42154.984    3649.4568   -45804.441   0.14893615 
   14800    292.44744   -194.24561    132314.59   -42133.894    3569.7354   -45703.629   0.15291867 
   15000    291.52743   -615.86493    132838.94   -42182.311    3558.5054   -45740.816   0.15378479 
   15200    296.17615   -762.11402    132969.97   -42237.014    3615.2496   -45852.264   0.14763969 
   15400    291.70257   -315.88752    132456.82   -42246.722    3560.6433   -45807.366   0.14404009 
   15600    292.53177   -305.23323    132395.83   -42292.022    3570.7648   -45862.787   0.14492571 
   15800    292.70425   -679.93621     132878.4   -42233.684    3572.8702   -45806.555   0.15037223 
   16000    293.51315   -658.18166    132882.43   -42220.481    3582.7439   -45803.225   0.14966171 
   16200     293.4679   -331.18071    132454.69   -42174.414    3582.1916   -45756.605   0.14935241 
   16400    295.62091   -373.25635    132524.46   -42172.303    3608.4722   -45780.775   0.14873735 
   16600    288.56871   -740.25068    132881.97   -42186.219    3522.3901   -45708.609   0.15529729 
   16800    295.66989   -580.41329    132735.48   -42144.354    3609.0701   -45753.424   0.15559993 
   17000    295.54175   -296.63779    132438.14   -42169.188    3607.5059   -45776.694   0.15219662 
   17200    293.28156   -444.18826    132604.79   -42151.416    3579.9171   -45731.333   0.15701291 
   17400    290.36259   -638.30511     132833.1   -42194.392    3544.2869   -45738.679   0.15364117 
   17600    292.92943   -533.08253    132677.03   -42232.303    3575.6188   -45807.922   0.15100088 
   17800    293.98917   -356.34311    132502.71   -42250.675    3588.5544    -45839.23    0.1453263 
   18000      291.267   -517.22858    132652.14   -42279.785    3555.3265   -45835.111   0.15208416 
   18200    291.35658   -587.75649    132770.48   -42310.755    3556.4199   -45867.175   0.14786977 
   18400    290.32205   -491.48616     132622.1    -42327.77     3543.792   -45871.562   0.14648581 
   18600    295.93332   -400.96892    132527.14   -42289.325    3612.2855   -45901.611   0.14655652 
   18800    294.26043   -500.31301    132683.98   -42230.024    3591.8655   -45821.889   0.14597342 
   19000    295.68454   -619.24656    132783.12   -42245.267    3609.2489   -45854.516   0.14858115 
   19200    292.72541   -458.03099    132609.38   -42226.084    3573.1285   -45799.213   0.14915765 
   19400    299.22335   -349.70632    132533.79   -42224.851     3652.445   -45877.296   0.14322188 
   19600    290.83631   -583.79433    132736.85   -42244.699    3550.0693   -45794.768    0.1513088 
   19800     291.9231   -603.65214    132773.99   -42237.754    3563.3351    -45801.09   0.14852651 
   20000     293.4531   -386.91093    132541.34   -42236.176    3582.0109   -45818.187   0.14769477 
   20200    289.16269   -438.55934    132536.64   -42263.098    3529.6405   -45792.738   0.15205906 
   20400    292.19691   -592.62787     132736.9   -42238.144    3566.6773   -45804.821   0.15033657 
   20600    289.18227   -562.49874    132699.83   -42241.513    3529.8794   -45771.392   0.15210808 
   20800     294.7998    -432.1179    132505.37   -42229.689    3598.4493   -45828.138   0.15357718 
   21000    295.45346   -434.36267       132560   -42231.611    3606.4281   -45838.039   0.15047644 
   21200    292.00499   -633.19874     132776.1   -42217.516    3564.3347   -45781.851   0.15410812 
   21400    293.02797   -543.80202    132704.23   -42214.606    3576.8217   -45791.428   0.15272727 
   21600     296.5279   -384.76023    132525.89   -42172.415    3619.5433   -45791.958   0.15215223 
   21800    295.81746   -516.78616    132651.73   -42129.385    3610.8713   -45740.256   0.15626193 
   22000     298.0677   -649.12655    132859.52   -42135.198    3638.3387   -45773.537   0.15358899 
   22200    299.22727   -493.84803    132704.89   -42093.202    3652.4928   -45745.695   0.15444755 
   22400     297.0506   -328.46043    132518.35   -42073.961    3625.9236   -45699.884   0.15495196 
   22600    300.41759    -501.6667    132716.22   -42077.921    3667.0224   -45744.943   0.15080525 
   22800    298.80225   -695.27416    132907.82    -42121.21    3647.3049   -45768.515   0.15379327 
   23000    290.36726   -480.50269     132629.2   -42136.298    3544.3439   -45680.642   0.15184789 
   23200    295.93551    -346.8407    132485.09   -42122.274    3612.3123   -45734.587   0.15246141 
   23400    295.00917   -611.00061    132812.79   -42133.649     3601.005   -45734.654   0.15489204 
   23600    289.51519   -721.37314    132898.47    -42142.57    3533.9432   -45676.513   0.15405133 
   23800     294.1527   -345.67195    132473.15   -42093.693    3590.5505   -45684.244   0.15510219 
   24000    299.74108   -306.31163    132455.54   -42123.618    3658.7646   -45782.383    0.1478595 
   24200    300.54814   -737.50472    132962.22   -42109.495     3668.616   -45778.111   0.15644178 
   24400     295.6167   -713.03336    132903.32   -42112.479    3608.4208     -45720.9   0.15765968 
   24600    297.80344    -147.5936    132246.16   -42118.871     3635.113   -45753.984    0.1510026 
   24800    294.31539   -293.67628    132409.43   -42043.407    3592.5364   -45635.944   0.15916911 
   25000    292.71014   -942.94696       133194   -42047.156     3572.942   -45620.098   0.16158791 
   25200    300.91245   -668.82295    132920.37   -42077.383    3673.0629   -45750.446   0.15440386 
   25400    293.83396   -25.707322    132114.27    -42134.43    3586.6599    -45721.09   0.15306061 
   25600    297.80803   -323.18467    132494.61   -42158.234     3635.169   -45793.403   0.15029863 
   25800    296.11415    -979.3332    133239.73   -42122.381    3614.4929   -45736.874   0.16139124 
   26000     295.6377   -574.35891    132761.61   -42110.422    3608.6771   -45719.099   0.15423676 
   26200    297.89058   -52.709365    132122.47    -42143.64    3636.1767   -45779.817    0.1449659 
   26400    297.03067    -430.9277    132620.36   -42164.572    3625.6802   -45790.252   0.14941777 
   26600    292.27577   -879.35398    133145.66   -42166.357      3567.64   -45733.997   0.15714794 
   26800    288.41982   -458.64034    132638.07   -42174.127    3520.5726   -45694.699     0.155689 
   27000    298.57663   -166.36478    132235.76   -42179.962    3644.5509   -45824.513   0.14986494 
   27200    295.94451   -567.57758    132706.62   -42172.861    3612.4221   -45785.283   0.14767018 
   27400    294.14473   -822.56956    133018.45   -42138.172    3590.4533   -45728.625    0.1558283 
   27600    293.09596   -465.02721    132564.91   -42151.425    3577.6516   -45729.077   0.15969345 
   27800    299.27212   -218.59234    132354.78   -42138.321    3653.0404   -45791.361   0.15297725 
   28000    299.20676   -577.98229    132796.31     -42129.1    3652.2425   -45781.343   0.15356408 
   28200    291.76016   -768.11832    132939.95   -42139.794    3561.3463    -45701.14   0.15403771 
   28400    294.42282   -375.44112    132520.76    -42143.45    3593.8477   -45737.298   0.15481652 
   28600    292.24675   -343.12215    132459.16   -42160.027    3567.2857   -45727.313   0.15303643 
   28800    299.06684   -604.07547    132846.04   -42171.206    3650.5346    -45821.74   0.14999315 
   29000    288.17363   -653.84025    132840.43   -42212.015    3517.5676   -45729.583   0.15504751 
   29200    290.92138   -317.43789    132451.82    -42250.42    3551.1077   -45801.528   0.15192954 
   29400    288.36537   -394.11344     132507.7   -42251.386     3519.908   -45771.294   0.15290462 
   29600    291.87811   -681.63235    132884.67   -42210.993     3562.786   -45773.779   0.15242617 
   29800    293.03526   -670.26102    132800.83   -42137.001    3576.9107   -45713.912   0.15724979 
   30000    296.06375    -301.8703    132452.79   -42127.927    3613.8776   -45741.804   0.15159837 
   30200    294.72497   -389.98502    132602.06   -42139.578    3597.5359   -45737.113   0.15319417 
   30400     295.3165   -730.45196    132933.47   -42189.833    3604.7564   -45794.589   0.15575316 
   30600    294.64756   -502.20391    132688.95   -42136.233     3596.591   -45732.824    0.1555236 
   30800    300.42869   -255.84629    132388.91    -42104.02    3667.1579   -45771.178   0.15116527 
   31000    298.79114    -509.4049    132695.77   -42093.921    3647.1694    -45741.09   0.15345439 
   31200    297.47026   -751.23577     132979.3    -42093.57     3631.046   -45724.616    0.1564659 
   31400    300.99317   -439.66478    132651.02   -42091.648    3674.0482   -45765.696   0.15246341 
   31600    294.36577   -262.97047    132382.02   -42152.768    3593.1514    -45745.92   0.15630155 
   31800    299.35624   -528.26001    132714.25   -42118.621    3654.0672   -45772.688     0.156426 
   32000    295.30369   -713.72461    132954.63   -42090.313    3604.6001   -45694.913   0.15455456 
   32200    295.43423   -435.02097    132595.12   -42122.972    3606.1935   -45729.165   0.15616751 
   32400    295.20188   -305.82591    132386.72   -42125.665    3603.3573   -45729.023   0.15960133 
   32600    292.73998   -579.53884    132785.11   -42111.035    3573.3064   -45684.341    0.1603071 
   32800    295.65312   -707.36924    132968.02    -42100.44    3608.8653   -45709.306   0.15871846 
   33000    300.10532   -377.50052    132545.64   -42095.794    3663.2108   -45759.004   0.15457244 
   33200    296.64454   -281.46646    132420.51   -42096.664     3620.967   -45717.631    0.1587523 
   33400       297.89   -674.33548    132875.38   -42053.455    3636.1696   -45689.625   0.16102871 
   33600    300.45756    -702.1188     132925.7   -41986.563    3667.5104   -45654.074   0.16229762 
   33800    296.14715   -318.57808    132455.34   -42019.796    3614.8957   -45634.692   0.15612285 
   34000    294.52772   -326.48128     132467.6   -42057.901    3595.1282   -45653.029   0.15648358 
   34200    297.41054   -784.76739    132994.01   -42092.902    3630.3171   -45723.219    0.1610528 
   34400    290.95331   -697.54287    132897.86    -42147.28    3551.4975   -45698.778   0.15668309 
   34600    297.64849   -159.36873    132293.39   -42116.038    3633.2217    -45749.26   0.14751274 
   34800    299.19806   -325.02821    132478.55   -42156.118    3652.1363   -45808.254   0.14824061 
   35000    290.23927   -917.17848    133127.31    -42181.27    3542.7816   -45724.052   0.15872869 
   35200    294.22298   -667.79031    132801.42   -42178.576    3591.4084   -45769.985   0.16363899 
   35400    297.57935   -72.149887    132115.55   -42151.672    3632.3777    -45784.05   0.15422347 
   35600    292.51002   -448.24226    132609.55   -42143.137    3570.4994   -45713.636   0.15309394 
   35800    292.73065   -1042.2681    133333.69   -42134.091    3573.1924   -45707.284   0.15742571 
   36000    297.91168   -511.71325    132710.16   -42140.423    3636.4342   -45776.857   0.15469108 
   36200    293.58881    74.233902    132035.77   -42155.687    3583.6675   -45739.354   0.15188246 
   36400    291.17461   -579.92678    132760.57   -42178.608    3554.1987   -45732.806   0.16134374 
   36600    295.33529   -1017.0885    133272.01   -42146.296    3604.9858   -45751.282   0.16140734 
   36800    289.66307   -408.55479     132474.6   -42193.549    3535.7482   -45729.297   0.16139348 
   37000     297.7418    20.801216     132084.4   -42184.555    3634.3606   -45818.916   0.14586185 
   37200    292.23749   -721.22886    132861.83   -42142.967    3567.1727   -45710.139   0.16043819 
   37400     299.7306   -909.77639    133082.96    -42131.37    3658.6367   -45790.007   0.16100144 
   37600    295.66415   -304.73858    132416.42   -42161.685         3609   -45770.685   0.15602669 
   37800    295.74694   -242.71065    132354.35   -42128.772    3610.0105   -45738.782   0.15541052 
   38000    292.78698   -695.89915     132913.1   -42176.456      3573.88   -45750.336   0.15212021 
   38200    294.58588   -664.18993    132874.56   -42169.437    3595.8381   -45765.275   0.15090095 
   38400    298.81335   -248.87062    132424.58   -42140.142    3647.4404   -45787.582   0.14688441 
   38600    298.11923   -356.44185    132548.71   -42137.446    3638.9677   -45776.413   0.14818975 
   38800    292.26008   -691.79843    132930.96   -42181.934    3567.4485   -45749.382   0.15618582 
   39000    291.40248   -578.08122    132761.57   -42208.693    3556.9803   -45765.673   0.15114294 
   39200    295.97352    -323.9809    132433.65   -42231.219    3612.7763   -45843.995   0.14654764 
   39400    295.14203   -469.36702    132620.98   -42221.391    3602.6268   -45824.017   0.14980909 
   39600    286.35104   -720.20451    132900.76    -42285.42    3495.3203    -45780.74     0.150829 
   39800    291.04718   -517.96702    132654.94    -42276.43    3552.6433   -45829.073   0.15664213 
   40000    291.52463    -327.9833    132435.28   -42296.054    3558.4713   -45854.526   0.14997555 
   40200    289.40735   -540.60295    132718.81   -42271.656    3532.6269   -45804.283   0.14859344 
   40400    293.43644   -674.83551    132885.29   -42259.209    3581.8076   -45841.016   0.14441865 
   40600    293.29499   -448.65891       132590   -42290.653     3580.081   -45870.734   0.14738803 
   40800    287.76528    -338.6317    132457.57   -42304.505     3512.583   -45817.088    0.1555645 
   41000    295.79598   -577.21511    132754.49   -42266.645    3610.6091   -45877.254   0.15186441 
   41200    293.01876   -636.71157    132844.77   -42288.642    3576.7092   -45865.351   0.14301199 
   41400    290.27617   -409.03895    132530.86   -42263.425     3543.232   -45806.658   0.14716677 
   41600    293.14223   -326.97924    132510.44    -42256.88    3578.2164   -45835.096   0.14220734 
   41800    292.54573   -633.16637    132839.41   -42250.458    3570.9352   -45821.393   0.15199791 
   42000    293.10547   -585.09681    132828.58   -42229.259    3577.7677   -45807.027   0.14948901 
   42200    291.54705    -376.0943     132512.3   -42252.905    3558.7449    -45811.65   0.14512041 
   42400    290.88792   -390.66176    132554.72   -42301.271    3550.6993    -45851.97   0.14430534 
   42600    292.28112   -645.18973    132848.43   -42328.793    3567.7053   -45896.498    0.1466106 
   42800    284.20001   -595.31368     132735.7   -42326.416    3469.0639    -45795.48   0.15403302 
   43000    293.52717   -334.76937    132476.21    -42288.38    3582.9151   -45871.295   0.14731674 
   43200    289.40701   -526.24638    132656.56   -42291.489    3532.6227   -45824.112   0.14937248 
   43400    287.00345   -716.36416     132846.5   -42275.859    3503.2839   -45779.143   0.16306465 
   43600      287.985   -485.83369    132612.05   -42277.315    3515.2651   -45792.581   0.15699383 
   43800    293.35485   -297.28866    132465.06   -42246.612    3580.8117   -45827.424   0.15139254 
   44000     293.2488   -588.58401    132782.78   -42264.837    3579.5171   -45844.354   0.15041299 
   44200    288.92424   -707.29707    132886.67   -42318.243    3526.7298   -45844.973   0.15303174 
   44400    289.82614   -360.77951    132497.32   -42300.207    3537.7388   -45837.946   0.15530955 
   44600    289.61901   -311.12241    132448.37   -42232.479    3535.2105   -45767.689   0.15626461 
   44800     298.0339    -732.7414    132942.17   -42192.882    3637.9261   -45830.809   0.15394033 
   45000    292.50797   -738.72143    132921.76   -42220.036    3570.4743   -45790.511   0.15136282 
   45200    290.77159   -191.92706    132294.71   -42241.953    3549.2793   -45791.232   0.15262454 
   45400    284.67976   -304.40714     132400.4   -42292.903      3474.92   -45767.823   0.15441172 
   45600    288.60856   -900.45668    133104.92   -42271.768    3522.8765   -45794.644   0.15782403 
   45800    292.04039    -670.1539    132839.32   -42245.215    3564.7668   -45809.982   0.15127866 
   46000    294.58502   -29.160009    132096.91   -42246.907    3595.8277   -45842.735   0.14776051 
   46200    285.78781   -412.82877    132541.91   -42271.091    3488.4452   -45759.536   0.15341546 
   46400    290.28095   -1055.5446    133262.88   -42249.126    3543.2904   -45792.416   0.15883944 
   46600    287.47555   -510.85826    132639.83   -42259.658    3509.0465   -45768.705   0.15758711 
   46800    289.09414     40.46848    132005.31   -42225.463    3528.8037   -45754.267   0.15726474 
   47000    289.42945   -556.86684    132750.82   -42203.955    3532.8967   -45736.852   0.15587628 
   47200     295.3806    -984.8493    133268.08   -42171.054    3605.5388   -45776.593   0.15846666 
   47400    293.41432   -347.63117    132532.51   -42106.618    3581.5376   -45688.155    0.1570171 
   47600    297.04295   -102.74648    132177.84   -42085.055    3625.8302   -45710.885   0.16122799 
   47800    299.58217    -680.8397    132886.98   -42051.364    3656.8249   -45708.189     0.165853 
   48000    297.49271   -879.32892    133090.34    -42053.42    3631.3201    -45684.74   0.16610259 
   48200    302.31579   -252.78972    132430.18   -42059.672    3690.1927   -45749.864   0.15741425 
   48400    303.21323   -222.40977    132336.84   -42042.622    3701.1472   -45743.769   0.15723003 
   48600     298.5138    -697.7014    132920.47   -42096.223     3643.784   -45740.007   0.15611647 
   48800    298.08166   -710.97033    132924.56   -42041.164    3638.5091   -45679.673   0.16135307 
   49000    302.74943    -199.8978    132386.48   -42020.382    3695.4858   -45715.868   0.15163132 
   49200    297.48509   -361.56055    132479.42   -42056.953    3631.2271    -45688.18     0.159273 
   49400    296.65043   -762.73038    132959.43   -42064.443    3621.0389   -45685.482    0.1591152 
   49600    299.61886   -631.94751    132811.42       -42087    3657.2728   -45744.272   0.15352458 
   49800    301.79282   -243.49719    132404.66   -42069.123     3683.809   -45752.932   0.15096323 
   50000    302.22672   -391.51537    132588.43   -42066.481    3689.1054   -45755.586   0.15182198 
   50200    298.88714   -716.52687    132941.54   -42099.703    3648.3411   -45748.045   0.16227796 
   50400    295.34826   -530.71493    132706.16   -42100.537    3605.1441   -45705.681   0.15950107 
   50600    297.83127    -276.9382     132415.2   -42122.469    3635.4527   -45757.922   0.15229164 
   50800    295.07215   -518.45168     132647.7   -42130.792    3601.7738   -45732.565   0.15949155 
   51000    299.84184   -688.64571    132901.83   -42075.867    3659.9946   -45735.861   0.15814233 
   51200    296.14138   -505.32348    132668.63   -42103.148    3614.8252   -45717.973   0.16090349 
   51400    299.87278   -260.55127    132480.12   -42067.604    3660.3722   -45727.976   0.15302691 
   51600    295.86389   -553.77728    132795.17   -42068.805    3611.4381   -45680.243   0.15298582 
   51800    294.89903   -692.58171    132964.78   -42065.585    3599.6606   -45665.245   0.15879434 
   52000    297.85953   -432.93959    132590.98   -42021.849    3635.7977   -45657.646   0.16087958 
   52200    300.56593    -283.9069    132453.85   -41992.757    3668.8331    -45661.59   0.15815316 
   52400    307.69556   -603.38958    132868.29   -41978.844    3755.8603   -45734.704   0.14923262 
   52600    298.59451   -678.47382    132964.48   -42014.224    3644.7692   -45658.993   0.15205156 
   52800    298.34121   -375.76737    132533.09   -42037.395    3641.6772   -45679.072   0.15957455 
   53000    303.59272   -272.12306    132480.91   -42045.981    3705.7794    -45751.76   0.15433725 
   53200     295.6138   -715.71399    132919.07   -42052.461    3608.3854   -45660.846   0.16104399 
   53400    296.96674   -654.32481    132895.45   -42073.419    3624.8999   -45698.318   0.15199867 
   53600    297.35615   -276.13814    132458.54   -42110.755    3629.6533   -45740.409   0.14930258 
   53800    294.05226    -386.4313    132548.39   -42096.515    3589.3246   -45685.839   0.15504545 
   54000    296.55953   -756.32824     132992.8   -42082.512    3619.9294   -45702.442    0.1609768 
   54200     295.7309   -627.02644    132851.48   -42090.116    3609.8147   -45699.931   0.15498598 
   54400    294.95191   -248.08273    132412.51   -42119.083    3600.3061   -45719.389   0.15120283 
   54600    299.94668   -406.35418    132584.09   -42113.046    3661.2743    -45774.32   0.15194496 
   54800    302.56572   -746.66175    133017.14   -42055.147    3693.2434    -45748.39     0.159116 
   55000    298.58259   -568.13181    132781.24   -42058.293    3644.6236   -45702.916    0.1580723 
   55200     299.3601   -174.99442    132342.41   -42093.379    3654.1143   -45747.493   0.15105382 
   55400    296.62594   -459.51106    132637.59   -42114.086      3620.74   -45734.826   0.15212581 
   55600    292.00486   -834.51707    133049.46   -42142.288    3564.3331   -45706.621   0.15686538 
   55800    295.75448   -473.65941     132643.4   -42117.742    3610.1026   -45727.844   0.15390271 
   56000    294.89909   -175.63364     132290.6   -42105.228    3599.6613   -45704.889   0.14910781 
   56200    293.40963   -645.72791    132823.31    -42129.31    3581.4803    -45710.79   0.14975382 
   56400     293.6065   -864.71239    133119.86   -42129.843    3583.8835   -45713.726   0.15029043 
   56600    301.22643   -314.70199    132494.76   -42140.098    3676.8955   -45816.993   0.14387495 
   56800    294.97545   -142.93132    132282.64   -42099.654    3600.5934   -45700.247   0.14784116 
   57000    294.50628   -678.09716    132992.45   -42089.676    3594.8665   -45684.543   0.15206783 
   57200    295.88017   -860.82917    133128.61   -42123.758    3611.6368   -45735.395   0.15098384 
   57400    297.69499   -167.43768    132368.98   -42150.605    3633.7892   -45784.394   0.14412347 
   57600    294.88471   -191.17212    132352.83   -42117.687    3599.4858   -45717.173   0.15043134 
   57800    294.57925   -866.75077    133127.56   -42126.257    3595.7572   -45722.014   0.15841821 
   58000    294.87848   -743.22837     133004.5   -42139.952    3599.4097   -45739.362   0.15074116 
   58200    292.04043   -107.88178    132240.09   -42185.065    3564.7673   -45749.832    0.1477447 
   58400    295.22754   -296.09202    132408.45   -42179.015    3603.6705   -45782.685   0.14959168 
   58600    293.26323   -816.64081    133065.84   -42153.919    3579.6933   -45733.612   0.15547796 
   58800    289.22248   -679.26522    132830.79   -42187.331    3530.3703   -45717.701   0.15524152 
   59000    291.44892   -165.97147    132268.97   -42214.772    3557.5472   -45772.319   0.14633579 
   59200    291.12424   -379.09045    132536.96   -42215.912    3553.5839   -45769.496     0.145087 
   59400    292.10833   -791.13928    133001.06   -42156.657    3565.5961   -45722.253   0.15235204 
   59600    294.57069   -547.37357    132743.91   -42156.205    3595.6528   -45751.857   0.15230938 
   59800    289.96021   -253.39637     132394.5   -42144.352    3539.3753   -45683.727   0.14635275 
   60000    299.39608   -485.69113    132677.28   -42132.116    3654.5534   -45786.669   0.14191994 
   60200    297.22661   -705.47384    132961.05    -42103.74     3628.072   -45731.812   0.14490825 
   60400     306.4124   -485.74091    132720.02    -42076.46    3740.1975   -45816.658   0.14815118 
   60600    298.95519   -284.27677    132524.71   -42114.899    3649.1717    -45764.07   0.14325564 
   60800    299.77038   -541.78279    132764.39    -42056.05    3659.1223   -45715.172   0.14641233 
   61000    297.43851   -614.06832     132922.8   -42092.327    3630.6585   -45722.985    0.1460596 
   61200    294.02869   -464.69294    132695.44   -42097.682    3589.0368   -45686.719    0.1526311 
   61400     297.9538   -439.24344    132589.13   -42096.966    3636.9483   -45733.914   0.15845407 
   61600    296.51656   -544.04302    132785.56   -42086.361    3619.4048   -45705.766   0.15358409 
   61800    297.24793    -607.7462    132864.41   -42087.101    3628.3322   -45715.433    0.1468684 
   62000    296.68037   -463.54881    132712.71   -42105.865    3621.4043   -45727.269   0.14396253 
   62200    293.48543   -417.27873    132654.29   -42111.526    3582.4056   -45693.932   0.14839681 
   62400    300.31546    -557.6339    132775.32   -42079.552    3665.7758   -45745.327   0.16058734 
   62600    297.24539   -544.88906    132799.57   -42100.878    3628.3012   -45729.179    0.1526485 
   62800    296.57755    -439.5185    132659.59   -42072.639    3620.1493   -45692.789   0.14967253 
   63000    300.22655   -379.44831    132633.03   -42048.004    3664.6905   -45712.695   0.14359831 
   63200    299.60952   -547.01255    132810.68   -42051.449    3657.1587   -45708.608   0.14993259 
   63400    297.32654   -573.47118    132834.18   -42010.147    3629.2918   -45639.439   0.15520938 
   63600    298.95427   -418.04249    132638.21    -41991.93    3649.1606   -45641.091   0.15373494 
   63800    301.12812   -448.80093    132658.21   -42019.146    3675.6954   -45694.842    0.1488222 
   64000    296.67772   -647.37039    132862.77    -42021.69     3621.372   -45643.062   0.15242002 
   64200    298.29839   -561.77241    132789.79   -42026.468    3641.1546   -45667.623   0.15533369 
   64400    299.24212   -308.38924    132561.92   -42011.014    3652.6742   -45663.688   0.14901178 
   64600    296.31472   -450.37262    132679.71   -42061.529    3616.9411    -45678.47   0.15075566 
   64800    298.39501   -645.20953    132915.52   -42071.219    3642.3339   -45713.553   0.15110921 
   65000    298.03118   -570.47363    132786.06   -42068.487    3637.8929    -45706.38   0.15284564 
   65200    297.64725   -356.66293    132524.86   -42093.405    3633.2064   -45726.612   0.15317189 
   65400    300.17139   -499.98023    132682.62   -42113.243    3664.0172    -45777.26   0.14716388 
   65600    301.81582    -718.0374    132965.34   -42137.817    3684.0898   -45821.907   0.14651807 
   65800    296.45283   -457.24649    132706.75   -42111.821    3618.6269   -45730.448     0.150948 
   66000     299.9392   -222.07558    132421.22   -42112.016     3661.183   -45773.199   0.15000793 
   66200    292.27066   -606.29181    132820.46   -42142.799    3567.5776   -45710.376   0.15287191 
   66400    298.46042   -779.56774    133098.12   -42133.957    3643.1323   -45777.089   0.14614422 
   66600    296.31499   -345.42629    132539.59   -42154.787    3616.9444   -45771.732   0.14458729 
   66800    301.91394   -102.76523    132285.34   -42132.245    3685.2874   -45817.533   0.14463997 
   67000     296.5775   -747.32648    132977.99   -42147.661    3620.1487    -45767.81   0.15731951 
   67200    290.93429   -908.12547     133172.5   -42164.768    3551.2653   -45716.033   0.15292762 
   67400    293.22055   -158.08356    132373.39   -42203.205    3579.1724   -45782.378   0.14015842 
   67600    297.21097   -161.06962    132304.04   -42163.207    3627.8811   -45791.088   0.14484014 
   67800    292.91683   -846.72355    133139.89   -42106.837    3575.4651   -45682.302    0.1575081 
   68000    291.55579   -791.75118    133107.13    -42102.46    3558.8516   -45661.311   0.15891618 
   68200    295.98661   -140.66675    132313.96   -42179.003     3612.936   -45791.939   0.14435197 
   68400    294.76216   -218.79932    132417.69   -42125.837    3597.9899   -45723.827   0.14485194 
   68600    297.79665   -881.93216    133158.17   -42106.167    3635.0301   -45741.197   0.15220868 
   68800    297.62701   -708.12561    132931.35   -42077.382    3632.9595   -45710.342   0.16001766 
   69000    297.85571   -159.86817    132275.75   -42125.118     3635.751   -45760.869   0.15110078 
   69200     295.2163   -323.83453    132541.98   -42130.435    3603.5333   -45733.968   0.14811311 
   69400    295.03915   -833.91444    133076.54   -42162.316    3601.3709   -45763.687   0.14951346 
   69600    297.43458   -580.43356    132759.73   -42177.786    3630.6106   -45808.397   0.14596267 
   69800    296.41481   -192.10179    132336.56   -42148.665    3618.1628   -45766.828   0.14862043 
   70000    295.46513   -495.50431     132708.7   -42107.002    3606.5706   -45713.573    0.1517196 
   70200    297.86646   -740.99568    133021.53   -42100.551    3635.8823   -45736.433   0.14954793 
   70400    296.78589   -430.71103    132611.65    -42110.31    3622.6924   -45733.002   0.14852494 
   70600    297.33193   -201.91406    132356.24   -42084.599    3629.3576   -45713.957   0.14688655 
   70800    297.36379   -539.66204    132762.84   -42104.434    3629.7465   -45734.181   0.15473643 
   71000    289.64515   -739.05783     132952.2   -42143.313    3535.5295   -45678.842   0.15284167 
   71200    290.38639    -392.9684    132548.67   -42152.346    3544.5774   -45696.924   0.15133252 
   71400    294.27212   -330.42358    132447.27   -42124.966    3592.0082   -45716.974   0.14984533 
   71600    299.14778   -588.89349    132860.59   -42101.261    3651.5226   -45752.784   0.15021651 
   71800    293.75644    -748.3914     132935.4   -42113.058    3585.7136   -45698.771   0.16107932 
   72000    295.91903     -346.717     132538.2   -42147.875    3612.1111   -45759.986   0.14873641 
   72200    295.72904   -357.19715    132506.99   -42181.234    3609.7921   -45791.026   0.14730038 
   72400    297.19256   -618.91692    132863.96   -42155.766    3627.6563   -45783.423    0.1466735 
   72600    299.48662   -647.97784    132883.11   -42132.677    3655.6586   -45788.336   0.15867934 
   72800    295.86365   -355.40115    132543.53   -42202.336    3611.4351   -45813.771   0.14894431 
   73000    294.27238   -429.16374    132557.19   -42206.832    3592.0115   -45798.844   0.14768179 
   73200    287.88711   -636.62045    132861.12   -42224.478    3514.0701   -45738.548   0.14565788 
   73400    294.70084   -613.71208    132807.68   -42204.642    3597.2414   -45801.883   0.14973259 
   73600     296.1647   -359.61659       132531   -42192.194    3615.1099   -45807.304   0.15104858 
   73800      292.484   -467.42771     132630.7   -42192.952    3570.1817   -45763.133    0.1471254 
   74000    294.71005   -598.53248    132874.26    -42226.07    3597.3538   -45823.424   0.13718427 
   74200    289.85699   -509.93593    132737.83   -42233.516    3538.1154   -45771.631   0.14426423 
   74400    291.95766   -403.25504    132519.15   -42204.523     3563.757    -45768.28   0.15440497 
   74600    288.80576   -514.95096    132673.69   -42214.297    3525.2836   -45739.581   0.15252872 
   74800    291.21699   -628.87343    132859.16   -42225.839     3554.716   -45780.555   0.14423469 
   75000     299.1704    -525.2198    132666.45   -42196.689    3651.7987   -45848.487   0.14185776 
   75200    293.23512   -366.69475    132478.39   -42174.436    3579.3501   -45753.786   0.14835883 
   75400    293.68996   -565.66278    132694.12   -42168.357    3584.9021   -45753.259   0.15701567 
   75600    297.39055   -627.69467    132860.71   -42139.786    3630.0731    -45769.86   0.15358942 
   75800    294.06916   -511.56931    132672.02   -42114.176    3589.5308   -45703.707    0.1506412 
   76000    294.19466    -389.6675    132525.39   -42110.881    3591.0628   -45701.944    0.1521213 
   76200      294.047    -520.7608     132734.3   -42132.231    3589.2603   -45721.492   0.15124316 
   76400    298.94356   -638.05498    132879.05   -42103.379    3649.0298   -45752.409   0.15560242 
   76600    294.24061   -452.99346    132639.86   -42092.206    3591.6236   -45683.829   0.15471497 
   76800    296.25825   -366.51174    132512.01    -42088.03    3616.2518   -45704.282    0.1531337 
   77000    294.34326   -587.17302     132812.4   -42095.649    3592.8767   -45688.526    0.1552785 
   77200    293.12036   -701.70463    132925.98   -42139.834    3577.9494   -45717.784   0.15425206 
   77400    298.26942   -327.65128    132532.92   -42119.976     3640.801   -45760.777   0.14935729 
   77600    294.29375   -318.00728    132442.11   -42147.782    3592.2722   -45740.054   0.14888587 
   77800    295.88035    -736.9976    132935.16   -42154.012     3611.639   -45765.651   0.15265859 
   78000    295.19288    -750.1852    132963.65   -42155.287    3603.2475   -45758.534   0.15284367 
   78200    298.45788   -201.78433    132343.31    -42148.97    3643.1014   -45792.071   0.14682023 
   78400    295.27739   -263.72747    132418.21   -42177.961     3604.279    -45782.24   0.14591738 
   78600    289.50997   -873.02593     133111.1   -42178.095    3533.8795   -45711.974   0.15376434 
   78800    300.64726   -679.96956    132920.71   -42158.911    3669.8259   -45828.737   0.14741067 
   79000    299.40899   -68.164361    132192.92   -42158.163    3654.7111   -45812.874   0.14692129 
   79200    294.06508   -357.24368    132515.74    -42162.29     3589.481   -45751.771   0.15358323 
   79400    300.38287   -939.48097    133238.95   -42109.916    3666.5986   -45776.514   0.15480528 
   79600    294.97612   -568.25591    132819.46   -42110.752    3600.6015   -45711.353   0.14722051 
   79800    295.61552   -103.23549    132189.83   -42135.304    3608.4063    -45743.71   0.15066584 
   80000    295.39719   -502.98229    132689.47   -42113.944    3605.7413   -45719.685   0.15335547 
   80200    299.22799   -906.49812    133213.29   -42062.971    3652.5017   -45715.473   0.16389803 
   80400    301.48607   -503.54686    132674.11   -42054.693    3680.0648   -45734.758   0.15416489 
   80600    296.50278   -118.71937    132277.89   -42076.438    3619.2366   -45695.675    0.1506376 
   80800    297.58152   -563.10153    132823.16   -42023.983    3632.4041   -45656.387   0.14874241 
   81000    295.53241   -850.27066    133113.71   -42073.417    3607.3918   -45680.809   0.15855423 
   81200       300.46   -392.97422    132554.49   -42058.519    3667.5401   -45726.059   0.15716905 
   81400    305.60367   -216.78467    132359.96    -42031.39    3730.3259   -45761.716   0.14885226 
   81600    292.61641   -696.18495    132869.35   -42044.305     3571.798   -45616.103    0.1528683 
   81800    299.63836    -766.6393    132950.73     -42049.7    3657.5108    -45707.21   0.15501066 
   82000    297.64866    -311.7299    132490.64   -42023.229    3633.2238   -45656.453   0.15565972 
   82200    298.13946    -330.1374    132474.86   -42069.487    3639.2146   -45708.701    0.1536551 
   82400    301.18275   -605.43844    132858.82   -42075.251    3676.3623   -45751.614   0.14648813 
   82600    300.72876   -620.26912    132797.55   -42101.321    3670.8207   -45772.141    0.1479278 
   82800    294.15542    -330.9999    132453.91   -42142.886    3590.5838    -45733.47   0.15357337 
   83000    298.92284   -412.54066     132567.3    -42129.83    3648.7768   -45778.607   0.15331737 
   83200    296.41308   -687.38651    132843.35     -42141.8    3618.1418   -45759.942   0.15468382 
   83400    293.18145   -559.90516     132667.6    -42168.75    3578.6951   -45747.445   0.14620186 
   83600    296.35398   -365.94409    132434.23   -42182.669    3617.4203   -45800.089   0.14811537 
   83800    299.12886   -545.17824    132627.66   -42129.801    3651.2916   -45781.092   0.15932027 
   84000    292.84598   -660.65981    132854.56   -42152.642    3574.6002   -45727.243   0.15760877 
   84200    296.05085   -494.43835    132621.88   -42138.075    3613.7202   -45751.795   0.15158088 
   84400    290.59653   -375.38751    132473.55   -42156.297    3547.1425    -45703.44   0.14722703 
   84600    290.10005    -562.0148    132725.53    -42144.63    3541.0822   -45685.712   0.14964399 
   84800    292.67256   -632.23396    132808.77   -42161.615    3572.4834   -45734.098   0.15466842 
   85000    299.24103   -404.33977    132566.62   -42123.359    3652.6609   -45776.019   0.14887918 
   85200    297.20805   -379.42185    132546.47   -42093.761    3627.8454   -45721.607   0.14794275 
   85400    296.79007   -625.81749     132812.9   -42073.122    3622.7434   -45695.866   0.14733774 
   85600    295.20029   -596.15901    132787.21   -42080.829    3603.3379   -45684.167   0.15075833 
   85800    300.70218   -347.01376    132529.38   -42088.164    3670.4963    -45758.66   0.14820341 
   86000     298.6011   -424.54223    132604.83   -42050.299    3644.8496   -45695.148   0.14949276 
   86200    302.87613   -637.28051    132883.05   -42059.086    3697.0324   -45756.118   0.14548749 
   86400     299.9808    -563.7174    132770.26   -42057.205    3661.6908   -45718.896   0.14881701 
   86600    301.07734   -270.63525    132480.54   -42042.515    3675.0756   -45717.591    0.1492517 
   86800    297.12612   -459.97467    132656.22   -42080.881    3626.8454   -45707.726   0.15197707 
   87000    300.14064   -687.92452     132954.6   -42097.198    3663.6419    -45760.84   0.14557154 
   87200    297.44401   -541.70566    132729.02   -42076.065    3630.7257   -45706.791   0.15084334 
   87400    296.78334   -305.33191    132464.51    -42048.57    3622.6613   -45671.231   0.15212502 
   87600    298.02213   -535.41019    132733.64   -42096.497    3637.7824   -45734.279   0.15281283 
   87800    296.96074   -727.12695    132935.61   -42108.248    3624.8267   -45733.075   0.15054363 
   88000    300.14112   -415.49901    132595.16   -42071.386    3663.6477   -45735.033   0.14750902 
   88200    304.53442    -265.2227    132464.06   -42097.297    3717.2742   -45814.571   0.14391755 
   88400    295.93206   -664.76982    132853.69   -42082.091    3612.2702   -45694.362   0.15057191 
   88600    298.30169   -725.53253    132916.64   -42100.913    3641.1949   -45742.108    0.1549058 
   88800    298.35401   -354.74828     132473.7   -42100.877    3641.8336    -45742.71   0.14760964 
   89000     289.6282   -351.60099    132452.92   -42113.604    3535.3227   -45648.927   0.14935466 
   89200    299.86688   -719.95489       132936   -42085.649    3660.3002   -45745.949   0.15047054 
   89400    299.52526   -684.98126    132920.81   -42053.164    3656.1302   -45709.295   0.15368828 
   89600    302.22564   -298.45801    132458.31    -42086.39    3689.0922   -45775.482     0.150155 
   89800     297.7743   -319.85539    132544.32   -42105.241    3634.7573   -45739.998   0.14642473 
   90000    296.56142   -743.96594    132965.75   -42114.881    3619.9523   -45734.833   0.15152494 
   90200    293.51924   -606.39603     132806.5   -42160.027    3582.8183   -45742.846   0.14980089 
   90400    294.91226   -268.30203    132394.31   -42189.687     3599.822   -45789.509   0.14913318 
   90600    291.02462    -433.9692    132622.08   -42175.019    3552.3679   -45727.387   0.15052705 
   90800    293.56034   -800.78358    133042.14   -42186.761      3583.32   -45770.081   0.14903326 
   91000    297.03608    -512.4178    132750.81   -42189.127    3625.7463   -45814.874   0.14664903 
   91200    295.29848   -208.54734    132333.03   -42203.665    3604.5364   -45808.202   0.14538139 
   91400    293.66282   -454.06473    132640.49   -42195.129    3584.5709     -45779.7   0.14762851 
   91600    297.08729   -801.10578    133024.07    -42198.18    3626.3713   -45824.551   0.14862967 
   91800    294.40227   -468.06008    132676.51   -42173.753    3593.5969    -45767.35   0.14263006 
   92000    288.98324   -231.56246    132327.85   -42190.068      3527.45   -45717.518   0.14661584 
   92200    292.21825   -523.26921    132668.06   -42208.868    3566.9379   -45775.806     0.150463 
   92400    293.75306   -735.05109    132957.02    -42161.52    3585.6723   -45747.193   0.15558169 
   92600    287.21673   -438.63519    132610.75   -42217.167    3505.8872   -45723.054   0.15109819 
   92800    289.52957   -268.38312    132381.63   -42193.998    3534.1187   -45728.117   0.14468038 
   93000    298.99015   -577.08206    132778.33   -42124.751    3649.5984   -45774.349   0.14538496 
   93200    294.95011   -761.23427    132967.22   -42123.631    3600.2841   -45723.915   0.15726806 
   93400    293.81573   -392.97998    132522.33   -42126.387    3586.4374   -45712.825     0.155839 
   93600    298.15325   -244.38437    132386.59   -42109.756     3639.383   -45749.139   0.15395693 
   93800    296.70845   -651.51138    132847.92    -42106.67    3621.7471   -45728.417   0.15186111 
   94000    294.12851   -762.42561    132951.75   -42108.762    3590.2553   -45699.017   0.15448657 
   94200    291.32198   -363.44518    132463.45   -42188.156    3555.9977   -45744.154   0.15306559 
   94400    298.07238   -264.04377     132422.6   -42173.708    3638.3958   -45812.104   0.14709172 
   94600    297.15664    -648.7223    132919.54   -42164.472    3627.2179    -45791.69   0.14701573 
   94800    292.67178   -693.68122    132908.34   -42218.878    3572.4739   -45791.352   0.15072641 
   95000    291.59857   -303.52781    132419.09   -42229.438    3559.3737   -45788.812   0.14838709 
   95200    289.94546   -350.60176    132465.85   -42231.381    3539.1952   -45770.577   0.15030292 
   95400    291.06785   -702.51996    132928.36   -42244.132    3552.8956   -45797.027   0.14156157 
   95600    297.44549   -625.99653    132826.45   -42203.658    3630.7438   -45834.402   0.14406459 
   95800    297.13803   -236.85787    132407.92   -42173.052    3626.9907   -45800.043   0.14591378 
   96000    293.69421    -408.3306    132559.28   -42168.349     3584.954   -45753.303   0.15421601 
   96200    295.17389   -705.19001     132920.4   -42194.157    3603.0157   -45797.173   0.15452561 
   96400    293.93653   -600.66557    132713.29   -42190.196     3587.912   -45778.108   0.14671969 
   96600    294.62452   -261.15263    132370.63   -42205.352    3596.3098   -45801.661   0.14576379 
   96800    291.55424   -475.93704     132586.3    -42255.75    3558.8327   -45814.583   0.14967646 
   97000    291.32612   -656.76837    132845.49   -42238.316    3556.0482   -45794.364   0.15225969 
   97200    288.81431   -521.15445    132618.45   -42229.955     3525.388   -45755.343   0.15347438 
   97400    294.95433   -341.51634    132443.15   -42188.342    3600.3355   -45788.677   0.14813647 
   97600    296.77035   -538.30085    132681.08    -42161.02    3622.5027   -45783.523     0.150561 
   97800    295.46335   -642.35391    132828.24   -42154.299    3606.5489   -45760.848   0.15422917 
   98000    296.27867   -454.50492     132593.2   -42129.226     3616.501   -45745.727   0.15830015 
   98200    294.80417    -359.6519    132498.04   -42140.975    3598.5027   -45739.477   0.15154132 
   98400    297.42889    -552.4012    132728.56   -42072.217    3630.5411   -45702.758   0.15385532 
   98600    298.08794   -623.72993    132785.72   -42117.451    3638.5858   -45756.037    0.1519486 
   98800    300.51959   -412.23815    132566.22   -42083.325    3668.2675   -45751.592   0.15183838 
   99000    297.62923   -401.20056    132579.48   -42086.266    3632.9866   -45719.253   0.14875602 
   99200    296.92092   -586.33213    132761.34   -42152.421    3624.3407   -45776.762   0.15003856 
   99400    293.31203   -488.35738    132682.94    -42237.49     3580.289   -45817.779   0.14216106 
   99600    291.38832   -419.12839    132518.63   -42260.682    3556.8074   -45817.489   0.14467772 
   99800    295.47393   -430.86388    132614.88   -42227.724     3606.678   -45834.402   0.14773522 
  100000    291.32993   -618.88473    132779.55   -42233.033    3556.0946   -45789.127   0.15092634 
  100200    290.33242   -492.01768    132676.88   -42195.804    3543.9186   -45739.723   0.14742057 
  100400    294.45093   -408.32823    132549.58    -42178.67    3594.1909   -45772.861   0.14926767 
  100600    291.34666   -463.77436    132670.23   -42134.208    3556.2988   -45690.506   0.15269557 
  100800    290.04098   -661.80957    132790.18   -42163.608    3540.3612    -45703.97    0.1611834 
  101000      297.752   -494.47713    132646.14   -42157.535    3634.4851    -45792.02   0.15365707 
  101200    294.14495   -393.14855    132563.63   -42123.917     3590.456   -45714.373   0.14925248 
  101400    293.03013   -579.50888    132756.53   -42145.035     3576.848   -45721.883   0.14866684 
  101600    294.30986   -614.65125    132821.43   -42152.266    3592.4689   -45744.735   0.15251796 
  101800    290.81548   -435.45707    132622.27   -42123.606    3549.8151   -45673.421   0.15281173 
  102000     296.7657   -415.22053    132578.54   -42135.329    3622.4459   -45757.774   0.14884449 
  102200    298.55445   -575.01425    132802.25   -42116.907    3644.2802   -45761.187   0.14488088 
  102400    292.22238   -603.48686    132803.99   -42066.635    3566.9883   -45633.624   0.15034119 
  102600    295.35233   -421.76734    132602.96    -42071.04    3605.1937   -45676.234   0.15093387 
  102800    296.08926   -443.40121    132629.82   -42089.488     3614.189   -45703.677   0.14919525 
  103000    301.25328   -592.15867    132837.13   -42081.943    3677.2232   -45759.166   0.14784007 
  103200    298.48349   -544.01126    132757.04   -42064.016     3643.414    -45707.43   0.14823715 
  103400    297.43459   -420.20206    132558.47    -42095.23    3630.6107   -45725.841   0.14843667 
  103600    300.20296   -486.89118    132654.11   -42100.883    3664.4026   -45765.286   0.14993298 
  103800    295.34413   -636.07571    132839.35   -42095.144    3605.0936   -45700.237   0.14878206 
  104000    294.82765   -543.39111    132733.14   -42108.544    3598.7893   -45707.333   0.15116445 
  104200    296.07133   -375.46486    132552.97   -42118.462    3613.9702   -45732.432   0.15165979 
  104400    297.79763    -456.5732    132661.88    -42138.34    3635.0421   -45773.383   0.14855039 
  104600    294.21295    -600.4381    132816.95   -42126.743     3591.286   -45718.029   0.15277065 
  104800    299.62492   -467.09169    132664.14   -42122.831    3657.3468   -45780.178    0.1456788 
  105000    297.57701   -350.55279    132526.87    -42154.41    3632.3491   -45786.759   0.14685815 
  105200    296.33499   -537.74663    132706.42   -42150.973    3617.1885   -45768.161   0.15265189 
  105400     295.5674   -607.18555    132826.12   -42142.014     3607.819   -45749.833   0.15468385 
  105600    297.51328   -478.02393    132650.99    -42138.94    3631.5713   -45770.512   0.14893907 
  105800    295.00625   -416.92384    132543.99    -42160.47    3600.9694   -45761.439   0.14695924 
  106000    291.60719   -494.87158    132720.12   -42118.574    3559.4791   -45678.053   0.14704247 
  106200    296.13209   -629.24346    132816.61   -42100.763    3614.7118   -45715.475   0.14972978 
  106400    293.14334    -484.5029    132654.43   -42131.969    3578.2299   -45710.199   0.14847991 
  106600    292.63388   -415.73362    132575.92   -42134.074    3572.0112   -45706.086   0.15195402 
  106800    301.47205   -557.03795    132718.69   -42127.502    3679.8936   -45807.396   0.14696951 
  107000    300.64008   -603.57389    132774.62   -42084.726    3669.7382   -45754.465    0.1499845 
  107200    298.48428   -419.82361    132638.98   -42074.824    3643.4236   -45718.248   0.14912861 
  107400    298.64267    -488.9299    132614.46   -42081.606     3645.357   -45726.963   0.15136887 
  107600    299.28849    -554.3626    132764.52   -42059.258    3653.2402   -45712.498   0.15287288 
  107800    300.27456   -584.78238     132792.8   -42079.832    3665.2766   -45745.109   0.15078756 
  108000    298.87753   -409.50575    132652.99   -42056.484    3648.2238   -45704.708   0.15381212 
  108200    297.70463    -472.4073    132628.32   -42090.728    3633.9069   -45724.635    0.1548645 
  108400    302.35146   -512.11073    132756.94   -42088.095    3690.6281   -45778.723    0.1497635 
  108600    304.48184   -512.15666    132794.75   -42065.384    3716.6324   -45782.017   0.14820261 
  108800    294.94697   -461.89871    132702.37   -42082.066    3600.2457   -45682.312   0.15121125 
  109000     295.1574   -493.59914    132688.81   -42117.165    3602.8143    -45719.98   0.15183684 
  109200    297.17588   -550.96094    132745.96   -42126.683    3627.4527   -45754.136   0.15126222 
  109400    296.62235   -545.88326    132744.07   -42104.418    3620.6962   -45725.114   0.14704715 
  109600    297.81313   -513.13776    132712.71   -42071.806    3635.2313   -45707.037   0.14847279 
  109800    297.99758    -489.4808    132742.03   -42123.907    3637.4827   -45761.389   0.14188838 
  110000     294.2145   -538.75419    132773.68   -42057.473     3591.305   -45648.778   0.15215869 
  110200    301.10937   -507.77201    132729.99   -42046.846    3675.4666   -45722.313    0.1511284 
  110400    296.77156     -477.314    132671.52   -42098.081    3622.5174   -45720.599   0.14575196 
  110600    290.44044    -528.0139    132725.04    -42169.38    3545.2371   -45714.617   0.14829933 
  110800    288.45671   -564.07472    132762.49    -42164.11     3521.023   -45685.133   0.14800046 
  111000    295.46561   -479.43158    132680.68   -42167.516    3606.5765   -45774.092   0.14785871 
  111200    300.22378   -458.32155    132649.39   -42151.264    3664.6567    -45815.92   0.14812826 
  111400    300.05629    -500.8976    132743.35   -42200.922    3662.6123   -45863.535     0.142052 
  111600    291.34572   -567.61263    132760.85   -42244.156    3556.2873   -45800.443     0.144724 
  111800    291.09179   -483.54589    132644.22   -42277.798    3553.1878   -45830.986   0.14413947 
  112000    292.11429   -420.56204    132625.74   -42277.425    3565.6689   -45843.094   0.14710673 
  112200    292.90405   -560.46088    132746.25   -42229.508     3575.309   -45804.817   0.14970334 
  112400    294.41266   -563.55542    132763.75   -42208.671    3593.7237   -45802.395   0.14625551 
  112600    297.51858   -480.86827    132633.82   -42184.354    3631.6359    -45815.99   0.14329482 
  112800    287.97606   -465.97593    132612.65    -42201.44    3515.1559   -45716.595    0.1498585 
  113000    298.31352   -543.21214    132747.78   -42180.111    3641.3392    -45821.45   0.14792762 
  113200    296.35796   -585.21735    132748.05   -42211.831    3617.4689     -45829.3   0.14432665 
  113400    294.17283   -450.08799    132595.18   -42195.099    3590.7963   -45785.895   0.14548201 
  113600    295.96146   -426.18747    132639.68   -42198.346    3612.6291   -45810.975   0.14100507 
  113800    295.44495   -586.72422    132814.96   -42180.064    3606.3243   -45786.388   0.14280875 
  114000    299.39622   -525.82171    132751.74   -42166.918    3654.5552   -45821.473   0.14351533 
  114200    295.10889   -421.65188    132567.76   -42180.477    3602.2222   -45782.699   0.14409983 
  114400    297.54303   -447.92553    132673.35   -42123.664    3631.9344   -45755.599   0.14636188 
  114600    294.86507   -620.31161    132900.78   -42097.492    3599.2461   -45696.738   0.14840372 
  114800    297.69274   -486.54757    132768.19   -42069.636    3633.7618   -45703.397   0.14975111 
  115000    300.80489   -342.95856    132517.95   -42095.746      3671.75   -45767.496   0.14632286 
  115200    296.41541   -520.05401    132697.77   -42121.644    3618.1701   -45739.814   0.14929478 
  115400     296.1133   -653.48382    132915.66   -42135.616    3614.4824   -45750.098   0.14902727 
  115600    302.98409   -475.71383    132668.17   -42115.353    3698.3502   -45813.703   0.14884478 
  115800    299.63452   -267.46941    132453.56   -42134.743    3657.4639   -45792.207   0.14640487 
  116000    296.08605   -518.92936    132763.42   -42122.821    3614.1498   -45736.971    0.1468838 
  116200    292.54831   -739.94084    132981.63   -42135.886    3570.9667   -45706.852   0.15303077 
  116400    294.51332   -489.06445    132626.58   -42188.248    3594.9524     -45783.2   0.14801516 
  116600    296.86375   -245.96302    132427.32   -42206.416    3623.6428   -45830.059   0.14345469 
  116800    296.71872   -601.01588    132845.94   -42152.068    3621.8724   -45773.941   0.14504699 
  117000     293.2687   -740.44012    133010.16   -42171.227    3579.7601   -45750.987   0.14722823 
  117200    297.77362    -321.1062    132520.23   -42172.369     3634.749   -45807.118   0.14265263 
  117400    291.07348   -270.45493    132393.57   -42185.895    3552.9644   -45738.859     0.150548 
  117600    294.96086    -691.2215    132916.72   -42155.811    3600.4153   -45756.226    0.1497355 
  117800    299.97493   -753.47619    132988.85   -42118.295    3661.6191   -45779.914   0.14574645 
  118000    300.60612   -278.58237     132416.9   -42111.762    3669.3237   -45781.085   0.14604549 
  118200    298.45081   -244.29768    132400.22   -42152.881    3643.0151   -45795.896   0.14435284 
  118400    298.88242   -776.68153    133007.94   -42182.701    3648.2835   -45830.984   0.15016084 
  118600    293.12551   -701.91774    132937.99   -42209.425    3578.0123   -45787.438   0.14874404 
  118800    294.06806   -177.96324    132291.11   -42252.201    3589.5174   -45841.718    0.1423207 
  119000    291.33803   -244.59294    132433.39    -42261.58    3556.1936   -45817.774   0.14300401 
  119200     298.1953   -839.31674    133070.47   -42259.046    3639.8962   -45898.942   0.14379075 
  119400    290.98358   -603.60623    132812.16   -42292.154    3551.8669   -45844.021   0.14880374 
  119600    291.47158   -80.935031    132220.09   -42234.946    3557.8237    -45792.77   0.14932185 
  119800    286.39863   -489.75598    132596.24   -42226.687    3495.9012   -45722.588   0.15151518 
  120000     290.1776   -842.24062       133112   -42248.439    3542.0288   -45790.468   0.14945658 
  120200    294.87587   -496.07849    132676.92   -42225.133    3599.3779   -45824.511   0.14244217 
  120400    295.52995   -146.43004    132279.07   -42263.863    3607.3619   -45871.225   0.14260466 
  120600    289.78637   -550.20121    132742.92   -42247.651    3537.2533   -45784.904   0.14652417 
  120800    288.47204   -819.41102    133038.29   -42243.546      3521.21   -45764.756   0.14974364 
  121000    292.23953   -423.21911     132557.1   -42235.229    3567.1976   -45802.427   0.14705513 
  121200    290.37873   -289.30734    132347.86   -42244.608    3544.4839   -45789.091   0.14369988 
  121400    291.35608   -606.96516    132768.66    -42232.98    3556.4138   -45789.394   0.14626646 
  121600    293.58672    -678.7046    132894.86    -42222.85     3583.642   -45806.492   0.14932711 
  121800     290.6465   -426.25615     132561.8   -42221.661    3547.7524   -45769.414   0.14662623 
  122000    292.40522   -368.42739    132503.27   -42203.164      3569.22   -45772.384   0.15025532 
  122200    294.48761   -631.79156    132780.74   -42173.794    3594.6386   -45768.432   0.14940595 
  122400    291.75032   -645.68612    132785.77   -42131.573    3561.2261   -45692.799   0.15467887 
  122600    298.55416    -371.8947    132564.12   -42051.901    3644.2766   -45696.178    0.1531031 
  122800    300.04037   -461.24797    132614.66   -42048.944    3662.4179   -45711.362   0.15498483 
  123000    295.95081   -564.79257    132793.32   -42084.664    3612.4991   -45697.163   0.15536728 
  123200    296.56097   -525.50758    132759.74   -42109.444    3619.9469   -45729.391   0.15179799 
  123400     291.7124   -414.78748    132605.63   -42190.509    3560.7633   -45751.272   0.14762013 
  123600    296.73212   -435.63844    132638.48   -42150.401    3622.0361   -45772.437   0.15096977 
  123800    298.36065    -571.5467    132771.09    -42161.29    3641.9146   -45803.204   0.15123145 
  124000    299.87175    -513.4369    132737.22   -42141.668    3660.3597   -45802.027    0.1547758 
  124200     298.8407   -431.28249    132636.68   -42132.219    3647.7743   -45779.994   0.15048774 
  124400    294.69354   -477.29427    132685.41   -42152.671    3597.1523   -45749.823   0.15184455 
  124600    289.99544   -585.06121    132775.01   -42164.751    3539.8053   -45704.556   0.15092589 
  124800    292.83551   -512.67401    132730.65   -42172.537    3574.4724    -45747.01   0.15025457 
  125000    294.16591   -459.08575    132656.72   -42185.186    3590.7118   -45775.898   0.14976823 
  125200    292.51737   -533.53885    132642.83     -42173.8     3570.589   -45744.389   0.15200397 
  125400    295.30299   -531.24899    132662.45   -42227.079    3604.5914   -45831.671   0.15072203 
  125600    294.02093   -464.65046    132662.92   -42237.467    3588.9422   -45826.409   0.14695568 
  125800    290.01669   -515.91925    132624.99   -42210.615    3540.0647    -45750.68   0.15464726 
  126000    293.54676   -451.20262    132600.02   -42197.701    3583.1542   -45780.855   0.15088439 
  126200    292.01254   -481.13095    132688.27   -42170.395    3564.4269   -45734.822   0.15099701 
  126400    292.43241   -548.80492    132744.59   -42201.098     3569.552    -45770.65   0.15196462 
  126600    292.61197    -461.5033     132629.2   -42209.879    3571.7438   -45781.623   0.15152714 
  126800    290.74715   -440.30041    132569.63   -42190.341     3548.981   -45739.322   0.15511448 
  127000    290.52388    -507.1299    132660.52   -42210.255    3546.2556    -45756.51   0.15651573 
  127200    289.92213   -558.05167     132689.8   -42242.717    3538.9104   -45781.628   0.15333261 
  127400      296.801   -446.87681    132612.53   -42236.252    3622.8769   -45859.129   0.14800603 
  127600    291.87143   -464.26825    132609.89   -42232.159    3562.7044   -45794.863   0.15080886 
  127800    292.77797   -543.80923    132710.57   -42232.494    3573.7701   -45806.264    0.1544138 
  128000    291.69895   -548.07246    132721.18   -42210.216    3560.5991   -45770.815   0.15465473 
  128200    298.03556   -419.71442    132618.54    -42178.65    3637.9463   -45816.596    0.1495306 
  128400    293.32023   -437.31609    132618.92   -42212.257    3580.3891   -45792.646   0.14799639 
  128600    293.92489   -589.19061    132730.73    -42229.53    3587.7699     -45817.3   0.15077899 
  128800    287.60677   -588.89766    132682.42   -42286.594    3510.6482   -45797.243   0.15594948 
  129000    289.99272   -395.59792    132505.25   -42306.471    3539.7721   -45846.243   0.15159649 
  129200     292.4771   -450.54999    132559.66    -42284.37    3570.0975   -45854.468   0.14912119 
  129400    291.29426   -632.31714    132738.41   -42272.607    3555.6592   -45828.266   0.14677379 
  129600    294.36038    -514.2764    132637.26   -42256.535    3593.0856   -45849.621   0.14562916 
  129800     294.9552   -368.63011     132478.9    -42268.16    3600.3462   -45868.506    0.1493466 
  130000    291.83565   -519.17099    132616.84    -42290.36    3562.2677   -45852.628   0.15217649 
  130200    290.97242   -699.37498    132783.47    -42290.43    3551.7307   -45842.161    0.1523167 
  130400    287.24167   -543.07358    132627.17   -42287.676    3506.1916   -45793.867   0.14785913 
  130600    295.31733   -367.08014    132491.71   -42245.328    3604.7665   -45850.095   0.14602007 
  130800    294.01776    -499.2344    132713.16   -42264.567    3588.9034    -45853.47   0.14805529 
  131000    287.95386   -674.99141    132828.78   -42288.531    3514.8849   -45803.416   0.15039791 
  131200    292.62772   -410.17504    132567.59   -42258.504     3571.936    -45830.44   0.14922314 
  131400     287.6965   -348.55399     132465.3   -42267.897    3511.7434    -45779.64   0.14892765 
  131600    286.76806   -596.98761    132749.25   -42252.254    3500.4105   -45752.664   0.15310739 
  131800    293.54765   -659.40717     132847.8   -42228.408    3583.1651   -45811.573   0.14931802 
  132000    296.75718   -391.25605     132555.2   -42182.754    3622.3419   -45805.096   0.14551392 
  132200    291.97274   -383.25926    132519.54   -42202.025     3563.941   -45765.966   0.15337651 
  132400    292.37514   -657.03742     132826.1   -42207.915    3568.8529   -45776.768    0.1532397 
  132600    290.69535   -636.19906    132820.84   -42167.417    3548.3487   -45715.766   0.15327875 
  132800    295.55774   -305.87522    132495.46   -42148.649    3607.7011    -45756.35   0.14494671 
  133000    297.43606   -411.82585    132601.92   -42136.558    3630.6286   -45767.187   0.14743214 
  133200    300.57507   -733.10442    132951.24   -42106.272    3668.9447   -45775.217   0.15287866 
  133400    298.41171    -558.6688    132764.61   -42083.175    3642.5378   -45725.712   0.15591112 
  133600      300.124   -232.82962    132429.65   -42090.702    3663.4387   -45754.141   0.14832616 
  133800    297.70804   -497.99767    132704.16   -42115.799    3633.9486   -45749.748   0.14936958 
  134000    299.14845   -756.62709    133007.36    -42067.59    3651.5308    -45719.12   0.15399122 
  134200    301.16585   -470.13616    132690.36    -42081.13     3676.156   -45757.286   0.14947219 
  134400    294.39643   -227.80406     132424.6   -42072.867    3593.5257   -45666.392      0.15464 
  134600    298.47669    -580.1283    132839.66   -42094.374     3643.331   -45737.705   0.15089435 
  134800    299.79535   -770.79305    133068.58   -42124.021    3659.4271   -45783.448   0.15209471 
  135000    296.39065   -382.87104    132559.41   -42198.935    3617.8679   -45816.803   0.14647985 
  135200    288.79213   -230.64037    132340.92   -42184.181    3525.1172   -45709.299   0.15157921 
  135400    289.45943   -663.95796    132890.02   -42198.144    3533.2626   -45731.407   0.15385327 
  135600    291.50187    -821.3272    133056.21   -42168.519    3558.1934   -45726.712    0.1557964 
  135800    291.72945    -308.3838    132460.41   -42248.188    3560.9713   -45809.159   0.14552298 
  136000     292.7372   -216.35608    132350.49   -42273.705    3573.2724   -45846.977   0.14271149 
  136200    289.63809   -793.66329    132968.03   -42265.149    3535.4433   -45800.593   0.14582496 
  136400    292.30839   -749.63978    132970.62   -42232.903    3568.0381   -45800.941   0.14889706 
  136600    298.04178   -207.19361    132368.07   -42180.687    3638.0223   -45818.709   0.14372651 
  136800    294.15807   -298.45492     132496.6   -42194.087    3590.6161   -45784.703   0.14544393 
  137000    291.16878   -859.32411    133104.76   -42194.755    3554.1276   -45748.882   0.14796391 
  137200    290.41555   -624.28286    132862.55    -42221.75    3544.9333   -45766.683   0.14186852 
  137400    291.29157    -132.7758    132282.94    -42190.75    3555.6264   -45746.377   0.14713591 
  137600    295.12876   -450.40917    132622.75   -42180.928    3602.4647   -45783.392   0.14879408 
  137800    298.87679   -816.26968    133134.13   -42140.868    3648.2148   -45789.083   0.14983514 
  138000    297.63131   -542.23988    132773.25    -42166.07    3633.0119   -45799.082   0.14732703 
  138200    290.83261   -177.77912    132347.79   -42209.765    3550.0242   -45759.789   0.14451571 
  138400    298.36701   -477.68871    132681.79   -42186.064    3641.9921   -45828.056   0.14803491 
  138600    295.27906   -763.37814    132993.18   -42199.558    3604.2993   -45803.858   0.15114016 
  138800    291.33531   -493.96559    132664.98   -42132.661    3556.1603   -45688.821   0.15165461 
  139000    296.09122   -312.03033    132470.71    -42146.35     3614.213   -45760.563   0.14889703 
  139200    295.10608   -562.91088    132758.17   -42141.945    3602.1879   -45744.133   0.15326129 
  139400    293.35693   -666.54763    132861.74   -42168.762     3580.837   -45749.599    0.1572474 
  139600    293.22698   -477.52766    132628.41   -42153.943    3579.2509   -45733.193   0.15440492 
  139800    297.78994   -414.35211    132581.61   -42109.817    3634.9482   -45744.765   0.15234578 
  140000    299.45915   -563.92955     132777.7   -42089.528    3655.3233   -45744.851   0.15122387 
  140200    296.69583   -570.74468    132790.39    -42122.59     3621.593   -45744.183   0.15180556 
  140400    294.23558   -435.03866    132609.16   -42150.012    3591.5622   -45741.575   0.15255136 
  140600    297.26788   -420.86807    132594.51   -42152.039    3628.5757   -45780.614    0.1484504 
  140800    288.49321   -590.09876    132778.23    -42141.82    3521.4684   -45663.288    0.1580368 
  141000    289.45211     -562.384    132761.08   -42180.435    3533.1732   -45713.609   0.15462116 
  141200    297.92784   -417.67445    132567.14   -42137.586    3636.6315   -45774.218   0.14905768 
  141400    299.09902   -426.39125    132598.67   -42130.981    3650.9274   -45781.908     0.143948 
  141600    299.45453   -545.44583    132797.21   -42109.505     3655.267   -45764.772    0.1476229 
  141800    293.39102    -542.1613    132776.14   -42172.543    3581.2532   -45753.797   0.15332032 
  142000    293.76053   -443.29957    132586.86   -42174.488    3585.7636   -45760.251   0.15705073 
  142200    296.66554   -499.26424    132662.97   -42190.974    3621.2234   -45812.198   0.14703091 
  142400    290.93776   -596.96458    132833.98   -42185.279    3551.3077   -45736.587    0.1482727 
  142600    295.47151   -502.85073    132722.87   -42156.933    3606.6485   -45763.582   0.14730481 
  142800    291.74105     -429.797    132568.46   -42182.712    3561.1129   -45743.825   0.15705745 
  143000    293.14586   -547.43525    132705.96   -42212.546    3578.2607   -45790.807   0.15710311 
  143200    294.35753   -625.43696    132807.01   -42200.628    3593.0508   -45793.679   0.15290182 
  143400    300.70618   -426.58459    132634.03   -42179.441    3670.5451   -45849.986   0.14787696 
  143600    294.43363   -417.14415    132591.65   -42158.802    3593.9798   -45752.782   0.14957097 
  143800    297.68277   -556.37687    132767.84   -42164.371    3633.6401   -45798.011   0.15035474 
  144000    296.09544   -552.99755    132792.18   -42146.506    3614.2645   -45760.771   0.15515117 
  144200    298.58054   -417.84826    132610.89   -42126.702    3644.5987     -45771.3   0.15470036 
  144400    292.96808    -405.9965    132600.35   -42123.314    3576.0907   -45699.404    0.1537045 
  144600    297.98553     -549.036     132790.8   -42100.727    3637.3357   -45738.063   0.14764604 
  144800    299.77631   -609.26554     132823.1   -42084.273    3659.1947   -45743.468   0.15416689 
  145000    296.43865   -432.92354    132627.77   -42128.126    3618.4538   -45746.579   0.15696157 
  145200    292.12173   -407.93577    132594.78   -42157.669    3565.7597   -45723.429   0.15772663 
  145400    299.55677    -630.4008    132803.06   -42153.941     3656.515   -45810.456   0.15460038 
  145600    295.49982   -569.40324    132766.89   -42175.097    3606.9941   -45782.091   0.14677036 
  145800     294.0059   -371.46195    132504.54   -42197.374    3588.7587   -45786.132    0.1466964 
  146000    290.50295   -403.65263    132558.18   -42176.865    3546.0002   -45722.865   0.15789741 
  146200    291.83396   -695.47296     132883.8   -42206.892    3562.2471   -45769.139   0.16025862 
  146400    296.04782   -562.87506    132768.69    -42160.52    3613.6832   -45774.203   0.15370276 
  146600    298.19532   -211.49616    132410.25   -42114.583    3639.8965   -45754.479   0.14856097 
  146800    298.77543   -443.13915    132629.21   -42077.228    3646.9775   -45724.206   0.15055248 
  147000    303.03529   -783.40399     133013.5    -42073.93    3698.9752   -45772.905   0.16056816 
  147200    301.88371   -499.91636    132673.82   -42052.025    3684.9185   -45736.943   0.15962489 
  147400    307.05678   -207.60327    132307.46   -42107.784    3748.0631   -45855.847   0.15165619 
  147600    295.97459    -548.2039    132680.01    -42133.82    3612.7894   -45746.609   0.15613692 
  147800    300.60425   -756.78267    132977.59   -42171.989    3669.3009    -45841.29   0.14831659 
  148000    291.90131   -404.37087    132537.52   -42140.891    3563.0692   -45703.961   0.15371023 
  148200    289.16409    -233.5604     132310.1   -42194.909    3529.6576   -45724.566   0.15690058 
  148400    292.03854   -675.99023    132822.22   -42213.686    3564.7442    -45778.43   0.15696082 
  148600    291.13797   -783.87264    132969.36    -42183.03    3553.7515   -45736.782   0.15775458 
  148800    293.01421   -296.19804    132437.35   -42200.865    3576.6537   -45777.519   0.14617889 
  149000    299.70283   -282.85226    132356.35   -42209.039    3658.2977   -45867.337   0.14803684 
  149200    296.20467   -672.76689    132864.83   -42225.313    3615.5978   -45840.911   0.15049929 
  149400     288.2056   -721.33364    132889.37   -42243.333    3517.9578   -45761.291   0.15906716 
  149600    291.01859   -312.27892    132384.98   -42228.043    3552.2943   -45780.337   0.15672373 
  149800    292.24482   -324.04718    132420.28   -42241.659    3567.2621   -45808.921   0.14636692 
  150000    297.91295   -698.76847    132900.75   -42178.851    3636.4497     -45815.3   0.14695307 
  150200    298.33408   -683.76709    132829.65   -42124.282    3641.5902   -45765.872    0.1576385 
  150400     292.8529   -293.41953    132402.26    -42129.38    3574.6846   -45704.065   0.15848416 
  150600    294.55561   -388.89047    132540.96   -42140.956    3595.4687   -45736.425   0.15647312 
  150800    294.01678   -729.76274     132928.1   -42128.068    3588.8915   -45716.959   0.15454945 
  151000    288.81206   -578.55179    132742.81   -42155.311    3525.3605   -45680.672   0.15323998 
  151200    298.80052   -234.51839     132389.2   -42144.736    3647.2838   -45792.019   0.14952515 
  151400    296.25229   -471.41155    132664.46   -42069.494     3616.179   -45685.673   0.15849478 
  151600    296.14883   -771.94806    133016.01   -42050.378    3614.9161   -45665.294   0.15988715 
  151800    303.73301   -466.08853     132711.1    -42021.41    3707.4919   -45728.902   0.15260563 
  152000     302.9672   -204.85983    132401.73   -42048.531     3698.144   -45746.675   0.14929967 
  152200    293.92883   -522.05862    132763.39   -42066.794     3587.818   -45654.612   0.15507683 
  152400    294.94066   -740.79023    133010.19   -42103.707    3600.1687   -45703.876   0.15694882 
  152600    296.75827    -413.0883    132616.41    -42096.98    3622.3552   -45719.335   0.15326906 
  152800     305.6891   -230.60101    132438.97       -42040    3731.3686   -45771.368   0.14883927 
  153000     297.1407    -628.0404    132890.28    -42088.18    3627.0233   -45715.204   0.15255317 
  153200    303.84449   -732.06849    132984.29   -42029.554    3708.8526   -45738.407   0.15326054 
  153400     295.0994   -327.52835    132496.34   -42080.451    3602.1063   -45682.557   0.15254365 
  153600    295.41472    -332.5693    132455.93   -42121.779    3605.9553   -45727.734   0.15428956 
  153800    295.45392   -712.62227    132906.61   -42125.223    3606.4338   -45731.657   0.15835153 
  154000    291.76002    -654.4835    132889.75   -42157.744    3561.3445   -45719.089   0.15478834 
  154200    302.28354    -294.4183    132467.18   -42114.694    3689.7989   -45804.493   0.15090412 
  154400    291.67954   -380.20304    132541.17   -42095.327    3560.3622   -45655.689   0.15465437 
  154600    293.59776   -747.91951    132929.95   -42111.583    3583.7767    -45695.36   0.15926864 
  154800    296.37134   -537.36538    132737.29   -42144.381    3617.6322   -45762.013   0.15574008 
  155000     296.2207   -245.37962    132358.82   -42119.509    3615.7934   -45735.303   0.15195189 
[...]
  163000    294.55019   -607.46948    132839.58   -42187.237    3595.4024   -45782.639   0.14668699 
  163200    294.83077   -560.23901    132727.86   -42179.229    3598.8274   -45778.056   0.15092568 
  163400    291.69023   -375.12762    132495.63   -42208.375    3560.4926   -45768.868   0.15049974 
  163600    294.03527   -476.77215    132594.93     -42174.6    3589.1172   -45763.717    0.1502064 
  163800    290.77776   -616.62053    132761.75   -42234.573    3549.3547   -45783.928    0.1458802 
  164000    291.18279    -498.0347    132670.55    -42230.71    3554.2986   -45785.009    0.1469344 
  164200    291.93026   -386.16982    132561.51   -42243.136    3563.4225   -45806.558   0.14479507 
  164400    290.05148   -518.57939    132666.69   -42196.785    3540.4893   -45737.275   0.14888495 
  164600    293.12112   -551.64443     132760.8   -42160.891    3577.9587   -45738.849   0.14581207 
  164800    292.75527   -473.74025    132660.63   -42208.413     3573.493   -45781.906   0.14908644 
  165000    295.54611   -438.27849    132581.63   -42197.607    3607.5591   -45805.166   0.14773234 
  165200    294.93118   -472.40572    132690.26   -42182.806    3600.0531   -45782.859   0.14299608 
  165400    292.94258   -553.66163    132760.64   -42197.212    3575.7794   -45772.992   0.14378754 
  165600    292.16412   -454.16235    132666.81    -42153.69    3566.2771   -45719.967   0.14652511 
  165800     294.7794   -455.99436    132640.13   -42158.586    3598.2003   -45756.786   0.15221642 
  166000    296.97606   -498.65309    132744.53   -42122.706    3625.0137    -45747.72   0.15021181 
  166200    292.11384   -556.21742    132759.86   -42166.633    3565.6634   -45732.297   0.14566992 
  166400    288.94417   -442.65764    132634.74   -42161.231    3526.9731   -45688.204   0.14643789 
  166600    299.43936   -431.19692    132650.83   -42161.112    3655.0817   -45816.194   0.14226906 
  166800    290.63963   -518.75025    132750.78   -42224.761    3547.6686    -45772.43   0.14623792 
  167000    288.76184   -513.58833    132699.32   -42214.098    3524.7474   -45738.846    0.1492573 
  167200      293.085   -426.63531    132604.36    -42178.77    3577.5177   -45756.288   0.14675569 
  167400    292.66039   -557.68255     132664.4   -42204.645    3572.3348   -45776.979   0.14941836 
  167600    294.78606   -537.98442    132702.25   -42200.349    3598.2816    -45798.63   0.14664536 
  167800    291.54632   -470.35675    132619.28   -42244.637     3558.736   -45803.373   0.14201861 
  168000    290.54242   -453.54203    132600.69   -42259.639     3546.482   -45806.121    0.1428205 
  168200    291.23791   -532.17821     132681.4   -42247.077    3554.9714   -45802.048   0.14608901 
  168400    294.76045    -565.9169    132700.74   -42225.051    3597.9691    -45823.02   0.14918179 
  168600    299.03529   -493.93957    132658.52   -42182.932    3650.1495   -45833.081   0.14742422 
  168800    294.15883   -470.45355    132683.46   -42249.734    3590.6253   -45840.359   0.13890516 
  169000    292.25143   -525.45325     132691.9   -42241.611    3567.3429   -45808.954   0.14671188 
  169200    291.67263   -480.96147    132645.14   -42222.151    3560.2778   -45782.429   0.14642086 
  169400    289.90053    -486.1467    132640.24   -42238.321    3538.6468   -45776.968   0.15109691 
  169600    291.26742   -508.62682    132683.93   -42251.251    3555.3316   -45806.583   0.14996214 
  169800    288.06538   -509.27545    132660.42   -42248.343    3516.2463    -45764.59   0.14458051 
  170000    293.22535   -446.30845    132606.87   -42288.023     3579.231   -45867.254   0.14595643 
  170200    293.02654   -425.38965     132610.6   -42293.725    3576.8041   -45870.529   0.13901998 
  170400    292.79764   -495.94573    132685.11   -42281.235    3574.0101   -45855.246   0.14322477 
  170600    294.48315   -494.62984    132673.69   -42254.431    3594.5841   -45849.015   0.14397152 
  170800     288.8569   -466.40217    132607.84   -42286.963    3525.9078   -45812.871   0.14273452 
  171000    289.16189   -494.84752    132628.05   -42268.933    3529.6307   -45798.563    0.1465225 
  171200    288.06643   -529.65991    132674.91   -42288.196    3516.2591   -45804.455   0.14241088 
  171400    291.21733   -492.55631    132665.22   -42292.465    3554.7202   -45847.185   0.14054652 
  171600    288.80459   -472.71859    132615.64   -42263.577    3525.2693   -45788.846   0.14493422 
  171800      290.975   -466.44807    132623.81   -42233.743    3551.7623   -45785.505    0.1424702 
  172000     287.5234   -549.96364    132691.74   -42235.407    3509.6305   -45745.038   0.14508144 
  172200    292.65526   -509.60008    132650.97    -42268.99    3572.2722   -45841.262   0.14415415 
  172400     292.5305   -421.32299    132597.77    -42242.18    3570.7493   -45812.929   0.14302328 
  172600    296.76978   -499.54829    132686.54   -42208.895    3622.4958   -45831.391   0.14832033 
  172800    294.41224   -624.06361    132789.91   -42215.685    3593.7187   -45809.404   0.14569407 
  173000    295.63996   -470.48647    132642.46   -42225.893    3608.7046   -45834.597   0.14114944 
  173200    290.37392   -386.82937    132499.85   -42261.121    3544.4252   -45805.546   0.14626634 
  173400    288.62899   -500.15397    132672.29   -42260.853    3523.1259   -45783.979   0.14694228 
  173600    294.14608   -596.16501    132816.33   -42213.256    3590.4697   -45803.726   0.14753611 
  173800    291.36265   -515.48446    132648.93   -42205.211     3556.494   -45761.705   0.14729409 
  174000    291.54671   -370.58815    132542.09   -42172.329    3558.7408    -45731.07   0.14381861 
  174200    294.20403   -592.41438    132768.21   -42159.845    3591.1772   -45751.022   0.14846342 
  174400     296.7598    -611.1237    132891.38   -42147.647    3622.3739    -45770.02   0.14421101 
  174600    297.72204   -454.84986    132630.83   -42154.411    3634.1194    -45788.53   0.14644904 
  174800    294.40094    -360.7711    132523.27   -42138.647    3593.5807   -45732.228   0.14732757 
  175000    297.12774   -597.10774    132812.06   -42168.054    3626.8652   -45794.919    0.1447086 
  175200    301.11126   -649.65667    132883.94   -42169.886    3675.4897   -45845.376   0.14338891 
  175400    290.66854   -370.93558    132546.62    -42187.41    3548.0214   -45735.431   0.14334795 
  175600    295.05062   -347.66301    132512.82   -42197.219     3601.511    -45798.73   0.14278922 
  175800    296.80084   -603.75549    132875.22   -42165.944    3622.8749   -45788.819   0.14670822 
  176000    297.77502   -672.32044    132892.01   -42173.564    3634.7662    -45808.33   0.14577664 
  176200    300.05074    -334.5949    132518.95   -42124.674    3662.5445   -45787.219   0.14204836 
  176400    292.32755   -414.86353    132587.32   -42139.028     3568.272     -45707.3   0.14757605 
  176600    301.77454   -655.19805    132953.38   -42124.874     3683.586    -45808.46   0.14620234 
  176800    292.90416    -626.9594    132793.56    -42145.68    3575.3103   -45720.991   0.15405061 
  177000    299.45486   -237.01806    132398.83   -42140.596     3655.271   -45795.867   0.14546506 
  177200    297.47675   -458.05073    132632.76   -42174.222    3631.1253   -45805.347   0.14117465 
  177400    291.56274   -803.05698    133004.31   -42231.632    3558.9365   -45790.569   0.14851524 
  177600    289.69395   -501.46253    132664.93   -42226.652    3536.1252   -45762.777   0.14810889 
  177800    292.06954    -213.5062    132327.62   -42192.239    3565.1226   -45757.361   0.14741083 
  178000    293.33921   -586.77133    132768.66   -42166.617    3580.6208   -45747.238   0.14879266 
  178200    292.90966   -774.95868    133065.78   -42169.772    3575.3775   -45745.149   0.14377969 
  178400    292.82066   -388.02953    132559.61   -42184.297    3574.2912   -45758.588   0.14332509 
  178600    294.84444   -123.26901    132298.32   -42171.529    3598.9942   -45770.523    0.1394363 
  178800     292.9203   -623.25995     132886.2   -42155.032    3575.5074   -45730.539   0.14966976 
  179000    293.87627   -811.49032     133114.2   -42117.069    3587.1764   -45704.245   0.15542589 
  179200    296.57874   -341.56203    132500.92   -42152.007    3620.1638    -45772.17    0.1448107 
  179400    296.51543   -184.76184    132352.29   -42139.478     3619.391   -45758.869   0.14678514 
  179600    297.82505   -717.74335    132979.01   -42139.126    3635.3768   -45774.503   0.14518271 
  179800    287.84039   -769.72133    133035.44   -42151.903    3513.4999   -45665.403   0.15518514 
  180000    297.21428   -244.07528    132414.82   -42141.592    3627.9214   -45769.514   0.14919318 
  180200     295.2344   -256.77245    132490.59   -42091.786    3603.7543    -45695.54   0.14879652 
  180400     294.4801   -839.73333    133102.48   -42063.276     3594.547   -45657.823   0.15798696 
  180600    299.80111   -619.07021    132915.99   -42112.116    3659.4974   -45771.614   0.14472862 
  180800    296.29999   -162.02687    132342.73   -42110.155    3616.7613   -45726.916   0.14892633 
  181000     296.4967   -412.17299    132601.23   -42147.291    3619.1624   -45766.453   0.14902554 
  181200    298.04254    -804.8737    133091.08   -42125.488    3638.0316   -45763.519   0.14989366 
  181400    297.31923   -550.85198    132774.72   -42167.432    3629.2025   -45796.635   0.14946964 
  181600    296.62994   -212.35851    132349.06   -42187.684    3620.7888   -45808.473   0.14457712 
  181800      291.748   -424.72192    132683.69   -42179.599    3561.1979   -45740.797   0.14510306 
  182000    294.45151   -744.26949     133045.1   -42152.313    3594.1979   -45746.511   0.14601874 
  182200    292.91794   -507.99166    132734.44   -42166.895    3575.4786   -45742.374   0.14487933 
  182400    295.89347   -279.88399    132461.81   -42177.109    3611.7991   -45788.908   0.14265883 
  182600    300.14741   -468.77693    132718.97   -42154.994    3663.7245   -45818.719   0.14259838 
  182800    295.43286   -672.46362    132928.62   -42124.437    3606.1767   -45730.614   0.14725892 
  183000    296.32696    -516.2504    132708.71   -42099.856    3617.0905   -45716.946   0.14975102 
  183200    301.17219   -356.56341    132570.87    -42091.76    3676.2334   -45767.993   0.14606446 
  183400    294.67969   -539.53742    132767.59   -42098.038    3596.9832   -45695.021   0.14970399 
  183600    295.41492    -623.3226    132857.31   -42134.129    3605.9578   -45740.087   0.14694555 
  183800    300.11412   -403.81286    132629.78   -42145.819    3663.3181   -45809.137   0.14187167 
  184000    294.36016   -408.26603    132562.53   -42177.555    3593.0829   -45770.638   0.14772998 
  184200    291.20646   -578.43539    132789.38   -42217.545    3554.5876   -45772.133   0.14891195 
  184400    295.04428   -624.65171    132821.86   -42202.132    3601.4335   -45803.566   0.15114536 
  184600    289.58564   -440.96691    132582.55   -42231.158    3534.8032   -45765.961   0.14678552 
  184800    291.82988   -364.76397    132546.62   -42212.497    3562.1973   -45774.695   0.14259913 
  185000    290.12432   -589.79412    132805.54   -42210.439    3541.3784   -45751.818   0.14890405 
  185200    292.04091   -612.86162    132818.76   -42253.867    3564.7731    -45818.64   0.14856446 
  185400    293.70038   -394.11253    132541.32   -42234.873    3585.0293   -45819.902   0.14881617 
  185600    290.41165   -424.73744    132553.59   -42243.018    3544.8857   -45787.904   0.14619884 
  185800    290.67011   -625.22026    132813.67   -42195.994    3548.0407   -45744.035   0.14573816 
  186000    293.38712   -569.93912    132746.84   -42190.601    3581.2056   -45771.806   0.14999064 
  186200     292.1717   -344.71508    132505.02   -42172.598    3566.3697   -45738.968   0.14645847 
  186400    296.65939   -426.26094    132605.84   -42136.883    3621.1483   -45758.031   0.15163492 
  186600    296.95284   -628.37221    132828.47    -42147.28    3624.7302    -45772.01   0.14723758 
  186800    292.17492   -506.28758    132704.34   -42174.317     3566.409   -45740.726   0.14535141 
  187000    296.61174   -403.74038    132540.94   -42136.625    3620.5667   -45757.191   0.14970349 
  187200    295.52252   -495.86562    132691.87   -42168.468    3607.2711   -45775.739   0.14794971 
  187400    295.92599   -634.25355    132846.97    -42149.39    3612.1961   -45761.586   0.15049248 
  187600    294.51083   -514.11796    132660.23   -42193.425    3594.9221   -45788.347    0.1511802 
  187800    292.81351   -335.22654    132493.41   -42194.731    3574.2038   -45768.934   0.14846271 
  188000    293.85544   -536.33237    132703.23   -42164.324    3586.9221   -45751.246   0.14875384 
  188200    296.15002   -624.38499    132849.66   -42135.494    3614.9307   -45750.424   0.15096102 
  188400    291.29935   -458.77886    132581.35   -42126.001    3555.7214   -45681.723   0.15989814 
  188600    295.35231   -367.80752    132491.46   -42135.906    3605.1936   -45741.099   0.15367774 
  188800    300.08614   -587.64246       132797   -42143.973    3662.9766    -45806.95   0.14985124 
  189000    299.72832   -659.41714    132851.13   -42142.186    3658.6089   -45800.795   0.14850789 
  189200    300.84613     -344.031    132486.84   -42147.032    3672.2534   -45819.285   0.14702017 
  189400     294.6586   -350.92314     132460.9   -42136.202    3596.7258   -45732.927   0.15181189 
  189600    293.40839   -721.19565    132917.98   -42126.093    3581.4652   -45707.559   0.15615318 
  189800    295.00419   -684.95473    132875.55   -42168.059    3600.9442   -45769.003   0.15036507 
  190000    300.46368   -186.73926    132308.69   -42194.437    3667.5851   -45862.022   0.14075458 
  190200    296.09196   -298.23354    132427.24   -42174.356     3614.222   -45788.578   0.14290935 
  190400    292.81871   -841.79358    133087.32   -42173.125    3574.2673   -45747.393   0.14993942 
  190600    298.46094   -661.03916    132892.51   -42125.111    3643.1387   -45768.249   0.14583654 
  190800    297.42089    -96.03325    132212.69   -42123.813    3630.4434   -45754.256   0.14690366 
  191000    299.19403    -383.4975    132517.77     -42166.4    3652.0872   -45818.487   0.14614448 
  191200    295.22754   -956.37251    133182.22   -42167.963    3603.6705   -45771.633   0.15262371 
  191400    291.17726   -583.46362    132780.19   -42181.286    3554.2311   -45735.517   0.14979465 
  191600    295.53202   -39.597776    132148.02   -42130.516    3607.3871   -45737.903   0.14465044 
  191800    293.38072   -497.69769       132654   -42165.304    3581.1275   -45746.432   0.15004862 
  192000    291.41245    -934.8285    133163.63   -42172.656     3557.102   -45729.758    0.1530151 
  192200      297.005   -425.44232    132602.02   -42142.531     3625.367   -45767.898    0.1468676 
  192400     296.0394   -100.63672    132229.86   -42147.317    3613.5804   -45760.898   0.14486192 
  192600    294.41982   -640.84434    132818.82   -42185.499    3593.8111    -45779.31   0.14503358 
  192800    292.15577   -839.46474    133092.81    -42157.15    3566.1752   -45723.325   0.15041094 
  193000    293.05441   -372.71265    132477.15   -42153.208    3577.1443   -45730.352    0.1460876 
  193200    293.16656   -178.77506    132298.51   -42124.881    3578.5134   -45703.394   0.14316397 
  193400    298.29045   -695.70726    132940.23   -42107.414    3641.0576   -45748.472   0.14389918 
  193600     296.4867   -765.57149    133024.21   -42129.251    3619.0404   -45748.291   0.14527404 
  193800    295.72384   -285.08344    132396.48   -42158.799    3609.7286   -45768.528   0.14829771 
  194000    295.24875   -225.36262    132391.28   -42197.606    3603.9295   -45801.535   0.13986237 
  194200     290.5329   -761.63691    132980.17    -42166.28    3546.3658   -45712.645   0.14873561 
  194400    295.72607   -648.42436    132895.94   -42160.423    3609.7558   -45770.179   0.14393678 
  194600    296.01354   -237.02591     132381.2    -42166.38    3613.2647   -45779.644   0.14218195 
  194800    293.96927   -384.61344    132582.67    -42171.63    3588.3115   -45759.941   0.14428634 
  195000     290.1698   -803.12968    133052.58   -42146.046    3541.9336   -45687.979   0.15100291 
  195200    299.89364   -556.16289    132791.91   -42119.037    3660.6268   -45779.664   0.14446013 
  195400    297.45376   -214.73989    132353.91    -42143.58    3630.8447   -45774.425   0.14494326 
  195600     294.6636   -469.49505    132620.57   -42148.637    3596.7868   -45745.424   0.14684245 
  195800     297.4752   -767.27104    132981.94   -42183.943    3631.1064   -45815.049   0.14708603 
  196000     294.0071   -506.08503    132693.94   -42168.704    3588.7733   -45757.478   0.14235586 
  196200    299.32353   -257.17325    132406.13   -42134.401    3653.6679   -45788.069   0.14424562 
  196400    293.78994   -573.13529    132722.43   -42156.718    3586.1225    -45742.84   0.14782743 
  196600    296.79489   -707.08954    132908.04   -42202.211    3622.8022   -45825.013   0.14407421 
  196800    295.37477   -370.32826    132546.75   -42191.422    3605.4676   -45796.889   0.14121179 
  197000    296.57071   -316.02027    132437.81   -42200.742    3620.0658   -45820.808   0.14432206 
  197200     293.5602   -571.46411    132783.81   -42234.672    3583.3183   -45817.991   0.14407138 
  197400    294.03262   -646.84112    132816.33   -42229.306    3589.0848   -45818.391   0.14547214 
  197600    292.70916   -400.94458    132496.45   -42163.327    3572.9301   -45736.257   0.14875674 
  197800    298.15419   -411.76947    132556.73   -42129.886    3639.3944    -45769.28   0.14644398 
  198000    290.54491   -645.67768    132841.23   -42151.334    3546.5123   -45697.846   0.14993101 
  198200    290.79261   -574.05274    132717.72   -42176.742    3549.5359   -45726.278   0.15403688 
  198400    297.15461   -331.57465    132471.79   -42117.428    3627.1932   -45744.621   0.14881295 
  198600    300.64778   -495.34534    132658.23   -42094.035    3669.8323   -45763.867   0.14665625 
  198800    294.30081   -696.05551    132880.47   -42128.425    3592.3584   -45720.784   0.15109264 
  199000    299.73496   -476.13819    132685.62   -42119.824      3658.69   -45778.514   0.14285411 
  199200    294.00165    -340.2642    132508.65   -42128.972    3588.7068   -45717.679   0.14892966 
  199400    296.61055   -544.16416    132709.03   -42135.635    3620.5521   -45756.187   0.14785879 
  199600    296.17641    -617.5406    132851.85   -42159.806    3615.2529   -45775.059   0.14545234 
  199800    293.26361   -481.12294    132664.05   -42140.063     3579.698   -45719.761   0.14978035 
  200000    300.00336   -376.38845    132548.72   -42146.236    3661.9661   -45808.202   0.14374422 
Loop time of 106.312 on 6 procs for 200000 steps with 4096 atoms

Performance: 812.703 ns/day, 0.030 hours/ns, 1881.256 timesteps/s
97.8% CPU use with 6 MPI tasks x no OpenMP threads

MPI task timing breakdown:
Section |  min time  |  avg time  |  max time  |%varavg| %total
---------------------------------------------------------------
Pair    | 67.744     | 69.838     | 72.11      |  21.3 | 65.69
Neigh   | 11.112     | 11.307     | 11.69      |   7.7 | 10.64
Comm    | 12.508     | 15.133     | 17.416     |  51.4 | 14.23
Output  | 2.8753     | 2.8768     | 2.8828     |   0.2 |  2.71
Modify  | 5.6403     | 5.6676     | 5.7064     |   0.9 |  5.33
Other   |            | 1.491      |            |       |  1.40

Nlocal:        682.667 ave         704 max         664 min
Histogram: 1 1 1 1 0 0 0 0 0 2
Nghost:        1377.33 ave        1403 max        1356 min
Histogram: 1 1 0 2 0 0 0 0 0 2
Neighs:        0.00000 ave           0 max           0 min
Histogram: 6 0 0 0 0 0 0 0 0 0
FullNghs:      19438.7 ave       20035 max       18906 min
Histogram: 1 1 1 1 0 0 0 0 0 2

Total # of neighbors = 116632
Ave neighs/atom = 28.474609
Neighbor list builds = 12580
Dangerous builds = 0

Total wall time: 0:02:40
