LAMMPS data file via write_data, version 29 Oct 2020, timestep = 800000

4175 atoms
1 atom types

-0.03181269502990247 50.03181269503058 xlo xhi
-0.03181269502990247 50.03181269503058 ylo yhi
-0.03181269502990247 50.03181269503058 zlo zhi

Masses

1 18.015

Atoms # atomic

3796 1 1.4144794202593636 2.767355437107045 1.348130581151961 0 1 0
3677 1 49.31767558176334 0.9969993903362699 0.7856771888033944 0 2 1
1972 1 48.07622657163999 0.6195866570508548 10.163442741488382 -1 1 0
1275 1 49.59696859861194 24.802120546372212 8.951856541143092 -1 -1 -1
2698 1 9.059964812299881 0.7349197070794607 4.875182364273388 1 1 0
1138 1 44.052098403986776 0.07996473589245397 11.726713050454384 0 0 0
190 1 18.48479623993075 1.087195391795164 0.6570599324908075 0 0 0
476 1 14.01989813771391 1.2939418411797814 2.0487084596666554 1 1 0
3337 1 34.58249505942766 3.0679851873250885 15.645079521095544 0 1 1
3858 1 33.31664107520734 2.829968123968358 1.7112592556607176 1 1 0
4011 1 35.478699575000334 0.6315955313130291 1.0632183822454178 -1 1 1
443 1 43.67573755576167 1.8149475601374414 0.5915406799782746 0 0 0
2805 1 12.960320983127332 4.328782044348306 1.13844068047352 0 0 1
2628 1 48.79027901273963 1.5742591808135886 3.5606658205517108 -1 0 0
1316 1 4.394018564359825 6.482132819080144 0.1771974802352202 1 1 0
3425 1 6.775491300667201 4.717786133077664 4.394299205200644 0 1 0
3419 1 7.695929612245181 4.435826986358604 1.8122227508258162 1 1 1
1464 1 35.60122057191816 11.315408240206922 1.7833566288719687 0 0 1
1410 1 17.386519256829274 24.560896056177288 7.895187318031881 0 -1 1
4075 1 8.133394309067123 8.908360275631658 0.6740434981142995 -1 1 1
1306 1 19.796148441646412 3.9743325043583253 1.5800021004283797 0 1 1
386 1 0.9444767530675688 24.18302247573865 1.233857255757672 1 -1 -1
434 1 22.157956429457315 4.338130325123868 3.8571280906655794 0 2 0
3466 1 26.816687947990502 4.671074324149614 2.8316096717700714 -1 0 0
3482 1 28.33757377945561 6.6243171782875985 2.7379192461554975 0 1 1
3781 1 31.64338960642231 2.797784729375609 3.8097923014597614 0 1 1
3221 1 35.81945493205647 2.793250642624689 3.2953110632938505 0 1 1
460 1 7.941288198832799 16.126618038239226 0.903854988806336 1 1 2
3262 1 43.657664180953475 11.885670295905825 0.5548018373177037 -2 0 0
1276 1 46.25913884017693 0.9970155444022626 1.71685859286735 -1 0 2
1901 1 42.801914250515125 3.4371033009937886 2.721867080957764 -1 1 1
1190 1 44.53967875598153 7.905927254602748 3.561064469475511 0 1 0
342 1 44.84244891691681 2.6154834990623588 4.818289453939305 -1 0 0
2784 1 47.025081062669216 3.711874988357914 3.0619484930118666 -1 1 0
3028 1 46.457028354044354 5.912359290669059 1.1863783044816334 -2 -1 1
1669 1 -0.010516548396822145 6.876185431478925 16.01408967783338 1 -1 0
2196 1 0.3381517979093146 6.595545140410927 3.9097347560179707 2 1 1
2571 1 4.193416113774138 8.88667899110838 1.6513465382712786 0 1 -1
3728 1 3.3609149158507763 6.393190181212062 7.588537915248237 -1 0 1
1612 1 39.677893625564096 24.54139449629094 14.378539773605985 2 -1 0
2622 1 12.667241149557107 7.91858125308419 1.543123607921542 0 1 0
1486 1 10.510181350181355 5.974976344845032 2.2519915288309713 0 1 0
1743 1 45.45677126070966 15.758996958832354 0.34445756698756297 0 0 0
3506 1 1.7043943617341912 5.638561843349843 1.41634637536236 0 1 0
2172 1 20.667072188287264 8.32410954164673 3.573242549735889 1 1 0
3215 1 25.053477153441 7.613376407359694 3.3051933155749538 -1 0 -1
1607 1 30.919911262763883 9.01307906269955 1.5728733655593672 0 0 0
295 1 11.91852333023887 13.16783005454642 0.8239041017477841 1 0 0
3238 1 37.92444478433596 4.522122763521236 2.0956308069431833 0 0 1
2467 1 29.318544499255395 0.04001945639321204 9.534469880710471 -1 1 0
3951 1 42.375959653360894 6.255248398445047 2.863862354830895 0 1 0
2561 1 40.00460404040743 7.50362227700154 1.3352644157868727 1 0 1
1910 1 37.71667814900205 24.223317983584028 0.6354479020724948 0 0 1
3646 1 43.29719208949332 10.29260182383039 2.974123525532292 0 0 1
3817 1 46.75533628532966 8.618063727222093 2.0368747229079207 -1 0 1
2752 1 4.938201102443813 8.57738080887517 4.292706756765163 1 0 0
2933 1 5.316761867668716 11.104456335832571 5.239309673697005 0 0 0
2777 1 9.157317322864492 8.315596680144274 3.197048695301299 0 1 -1
1404 1 7.801787831701402 11.064086940973958 3.8169776213665934 1 0 0
4159 1 10.330353999500202 12.480968850014523 3.0846755024840333 -1 0 1
3084 1 36.939580402162406 23.866380293290046 14.172976883817508 -1 0 -1
4146 1 18.974522915801654 10.507486020963235 2.833314857870425 0 -1 0
2011 1 14.849874732930676 6.426142217064911 1.0822330749416362 0 1 0
701 1 2.2994938695349982 12.308234530705882 0.04716782290927597 0 0 1
3414 1 21.09385375946092 6.833695393563223 1.2594614270063813 0 2 1
1518 1 23.299616864053093 13.25469785129293 1.3699375483692162 0 0 2
3864 1 27.799652393780956 12.29721673294707 1.010863108532984 0 1 1
4131 1 21.931742392938894 24.746776073011414 12.127757010143956 0 0 1
2685 1 35.21330719919189 8.54659241307267 2.366177898019195 -1 1 0
1470 1 38.422449607850936 10.482900131264492 4.420354815386075 -1 0 0
2278 1 9.422740378772447 2.250934060614441 1.3560984620464278 0 1 1
387 1 42.66184811485826 14.165325241879017 3.4684642407257877 0 0 0
2705 1 48.20585965025255 14.949454776253681 5.363824434486209 0 2 0
1484 1 46.23820436216863 11.076231342964835 1.102986328508289 -1 -1 0
3062 1 1.7281909860163225 10.351716861194026 1.7105210346832092 1 1 0
2762 1 2.1935935605824777 14.030884548452356 4.962633671159212 0 0 0
3243 1 4.571304215417328 13.424164627276383 4.03700375564703 0 0 -1
4069 1 18.450823675487136 15.303630840622924 3.9311589682861974 1 0 1
53 1 18.578882294013084 24.88274041621465 5.47474213412583 0 -1 2
912 1 22.477464453725418 15.319029770232449 2.8128218913747487 0 1 1
1912 1 15.045892986798155 15.680719061569116 0.9534331340044191 1 1 2
262 1 28.94315310598631 14.828576910589275 2.123746814598891 -1 -1 1
2583 1 5.81114655475214 24.673646112011863 2.5255364237477846 0 1 -1
15 1 30.670868816949415 11.851914490848369 1.291067858844264 0 -1 0
2337 1 20.20763160051695 19.272073943816906 0.523260024490868 0 0 0
3094 1 39.2820257322405 15.52517695857066 2.2659700626334884 -1 1 1
3930 1 40.77931903814536 10.15155145620172 0.9954175287056874 -2 1 1
886 1 27.732421664262265 7.767576519898695 0.16463377339693483 -1 0 1
4153 1 22.45442581802468 2.4122592956725883 1.3279941646248883 0 1 1
557 1 46.621319417720485 12.687154173584599 3.1718395444435687 0 -1 1
3892 1 49.500681365195135 8.519523546897458 1.9433928183951397 0 0 0
4171 1 3.4002895478544874 21.196878221871955 1.692754859638031 2 1 2
965 1 1.9779379307083258 23.968361012564063 14.875562976048986 0 0 -1
3895 1 6.624688108031046 17.336645199172864 3.220307653477206 0 0 1
1561 1 12.236866559578354 16.93393062394303 3.0396056675968603 1 -1 0
4169 1 9.582571267089698 17.269673347512885 4.100116639573989 0 1 1
1816 1 15.655923823079188 18.533105501078477 1.2035142387074287 0 0 1
2309 1 15.548290700619374 14.735808226461442 3.4945353312007055 0 -1 -1
2265 1 20.0231665273109 16.22158211490003 1.7525727683772927 0 0 0
3501 1 24.942810183474716 16.87608568779269 3.02776229533711 -1 1 0
2544 1 37.073084031158345 6.280080528930688 0.36260062213016736 0 0 0
3198 1 29.557700603640384 17.288167944728855 1.3732923407349802 -1 0 1
1804 1 35.5395067825566 18.418053555325198 2.740900226509724 0 -1 1
3937 1 37.20245065795129 17.06998618953436 0.8881734104679309 0 0 1
3422 1 41.46028450815331 16.997220056219806 3.9953749687546996 -1 0 2
3054 1 11.817479805442169 23.929934416919735 14.199891372022872 1 1 0
2588 1 2.7939816797494346 18.445693967247994 2.693893462418091 1 1 0
2130 1 0.20326865745948838 17.479353369560247 3.16749020824081 2 0 0
3673 1 33.26622683146324 0.2781144341753674 6.751456177034009 -2 0 0
3010 1 46.05748004045007 19.180049620102725 2.671903037538879 0 0 0
2952 1 5.814896492441932 20.240549665116816 2.1667827109571687 0 1 -1
3701 1 6.989931778852469 22.46134045945572 3.353167452655378 -1 -1 1
3666 1 8.75302298279801 19.598866204392962 2.3957460171839866 0 1 2
3750 1 11.823384552807019 19.13436509876625 1.6777232226212089 1 2 1
1800 1 13.901790833372067 20.78812180212409 3.2638165101368672 0 0 0
2228 1 17.810501431413083 20.33087540322113 1.3680077533186925 0 -1 0
754 1 23.275554586715224 19.065115063131856 1.6901507633898896 -1 0 0
3006 1 24.61498140339764 21.56452298544075 1.7774126510870907 0 0 1
3755 1 27.171923857686917 18.614018388135253 1.8624434182261191 1 1 1
673 1 31.279196048379177 20.619833680044728 0.4841022894048884 0 0 0
1887 1 32.26934356268319 18.40209661641201 1.8419578078940864 1 1 1
1759 1 7.838389655083003 13.22024586269423 1.4649990932575228 1 1 2
1880 1 49.13656069831944 0.4977513463435145 12.737135980663382 -1 0 1
2518 1 42.80291971026432 19.98965320793552 1.8331414903527325 0 1 0
1593 1 6.0856372743718135 10.548063634141489 0.9739255910603006 1 -1 1
3406 1 48.75604692727079 19.73257380024366 2.493710073256862 0 0 1
1040 1 40.90656233685151 13.449126815817953 1.3665224181600935 0 1 0
2414 1 41.13513377372939 17.99821089080407 1.438971793184766 0 0 1
252 1 8.729828134002187 22.734826862726955 0.8873968405140831 1 -1 -1
2977 1 20.960135508291916 0.230892979033257 1.11709023215233 0 0 1
1576 1 24.158467622825576 14.052794745683633 16.320394342492428 0 1 0
456 1 15.274093769027305 22.57102766386648 1.80604185277931 2 -1 0
3461 1 47.427647291754724 24.643849422027113 5.794381153400701 -1 1 1
1124 1 17.410144246399557 20.990339818750556 4.0137279838856115 -1 -1 0
382 1 17.684863322528106 24.477889989235134 1.316857642814312 0 -1 0
873 1 20.40367182552023 23.313900522713325 1.8806238846819143 1 0 1
4062 1 23.48012451195447 24.172303406727643 1.6297090881477578 0 0 2
1726 1 2.523618831674312 15.401768920747083 16.614274680690087 0 0 -1
744 1 28.58854889087694 23.96329822322961 0.4193561220331772 0 0 0
3885 1 32.77101781065099 22.88585224444728 0.8748150384574663 0 0 0
1065 1 37.70363476872146 24.402308109157065 3.8564368181132536 -1 -1 2
3278 1 14.765464029884066 12.511475365228488 1.343279009880144 0 1 2
802 1 43.28322947724898 24.444397138325975 1.78493412579597 -1 -1 0
2486 1 28.494529465111082 0.23698524803133297 12.670552256017244 0 2 0
521 1 44.62621315069421 21.488945782901016 5.349946216992088 0 0 -1
892 1 2.949949206678037 3.341693538410412 8.259250260209816 1 0 0
2025 1 3.06229332504032 2.3081356032534788 5.812299172793925 2 1 1
1493 1 6.112527099057376 1.3698134557579742 4.844639159995124 1 0 1
2433 1 9.199138475858797 3.5423523801056365 5.070157639720204 0 1 0
4040 1 15.706494445027344 3.2592156772707743 4.306864988022999 1 2 1
3444 1 46.47525274319054 24.20874732491748 3.048529249179122 0 1 0
2501 1 16.702409809715917 1.033279509540417 2.8741603636845685 0 0 1
3143 1 19.162207212356403 2.349493852934455 4.000216857452767 0 0 2
4070 1 25.268079831397543 1.0186371472431595 4.169171243670183 0 0 1
1618 1 5.837685783902474 0.598143597014844 2.304572179253 0 0 1
3043 1 22.596060820164503 24.55853372323379 4.408428502869054 0 0 1
3788 1 1.6776112142317927 0.07317919132657384 4.905941856392338 0 1 0
3981 1 22.572186761516658 1.5415465018808308 4.514292645698433 0 2 0
3547 1 36.024176224313635 1.2966585039098952 14.160795992472247 -1 1 2
1537 1 42.18325555396842 0.008222606717936287 7.7752748138507926 -2 1 1
3390 1 24.45055107043369 18.502064329710844 16.342877942595575 0 1 1
1553 1 44.3819572008143 4.058435623830049 7.253905360389041 0 0 0
3542 1 0.7947674809094827 5.842334469535009 8.44476468280081 1 0 1
1381 1 3.987015372916442 4.634942029667957 3.877776580470206 1 -1 0
482 1 7.361984094023389 7.365617471486601 4.943512551338229 1 0 0
3577 1 11.954445166181698 2.3498864542553326 3.260515251459081 1 1 1
630 1 11.720719301032256 5.099746600790685 4.7326811288316 0 0 1
4109 1 18.01873981367698 5.2977626372595035 4.0065570814037645 0 1 1
3782 1 26.196025285516697 3.2333346280895703 5.096607480770341 0 1 1
3558 1 23.914350033770432 4.356611263057267 6.112373989253836 -1 1 1
405 1 29.185003931249934 3.728612370666142 5.479694934324032 1 0 1
4124 1 30.896971253705562 5.540016840075786 3.115591425075252 -1 1 0
2161 1 34.23327666892088 2.760027805711276 5.738188847977392 -1 0 -1
156 1 39.912167676795534 2.719602367618928 3.8408496249137642 -1 -1 1
831 1 37.67238379717661 6.236696927809707 5.6246370738212494 -1 0 1
2555 1 40.46391655433467 6.585317292755713 5.054464236685538 0 0 -1
1456 1 47.76256617612047 5.742897178552286 4.978528016994967 -1 1 1
199 1 49.29985905533313 4.1913583744312755 6.71455882942124 0 1 -1
3261 1 0.7435784504949109 3.487536192142258 4.373873124140876 1 1 1
567 1 6.346602873981066 5.810069956175032 7.437924149271278 2 0 1
3283 1 8.892526357489515 9.06001521148733 6.632734457422691 0 0 0
3016 1 14.285407457294426 5.589724654567256 3.929719639350845 0 1 -1
1207 1 17.108963337728618 7.125610011873249 2.111748508884142 -1 0 1
21 1 20.3008273700346 6.011086433212908 5.195771310503294 0 0 0
2038 1 24.13253133694969 5.405762520037508 1.9884300629252363 0 1 1
2491 1 27.31829282689899 7.9354764791067485 5.180096287336581 1 1 0
2516 1 27.819689450224814 7.609721697055733 7.895161522519074 1 0 0
2110 1 32.58829631872372 8.827223528804547 3.6898070413777173 -1 1 -1
2859 1 37.959263083895806 7.812096099247942 3.1456554136283152 0 0 1
3420 1 40.93933036600612 9.230892014730568 4.107980719347047 1 0 0
140 1 44.940684334218645 6.991809695214732 6.098282261078386 0 1 1
3842 1 49.83942984923631 8.163261496835814 6.510883086571651 1 0 3
1130 1 47.720656629488445 9.035684838017989 4.895979324180337 1 -1 1
329 1 1.1486078874770915 11.397928666895696 4.143194276587734 1 0 1
1546 1 2.8315033876774174 7.051936759078947 5.1375025276162685 1 1 1
3732 1 8.007079043375482 11.68476495544165 6.97348002107669 1 0 1
2856 1 11.548652977157085 9.578162370137925 6.024450483423768 0 0 0
1106 1 11.76311102142421 9.839832108865746 3.23454982368229 1 0 1
910 1 16.63943688599218 9.399973839749961 3.6531674151481655 0 0 -1
33 1 19.600275499260633 12.903583073208287 4.315661396038977 -1 0 -2
3799 1 19.481428686657768 7.553700629538408 7.482543823521278 1 1 1
3718 1 23.159054356033657 9.300955852774129 4.277527524170299 0 2 0
677 1 28.611088257865237 10.103839063044681 3.6658499925451777 1 1 0
2649 1 29.818496945135482 12.550352919037017 5.271180743902242 0 0 -1
719 1 34.474340107816516 11.979353034332817 4.204364104968419 0 1 -1
3653 1 37.76481681084043 12.968798520178083 3.4830212228781483 0 1 0
28 1 40.1518147626053 13.527761897057195 4.8909947362964665 0 1 0
1224 1 44.26269038182534 12.00557477002242 4.984044048889084 0 1 0
114 1 46.24636125114495 13.552237174389417 6.656570968303975 0 0 -1
2227 1 48.5667282510375 11.562729428980466 5.091593117516148 -2 2 -1
3045 1 2.152121923678953 9.873259908681584 6.3612172932436675 1 0 1
2844 1 4.6226240681360125 15.975274076811818 8.206939923720318 0 1 0
3391 1 7.797017579482454 16.07118636205388 6.387167807669574 0 0 1
4152 1 11.901047173070147 14.256903960200143 4.8625900279808825 0 0 2
4135 1 14.411715726866928 10.734713318826564 3.454653295481661 -1 0 1
3002 1 14.3181945632103 12.703724073139318 5.04105937764206 1 0 1
851 1 18.489066668906375 12.034649399327563 6.424444089837487 0 0 2
3775 1 24.251485123663826 11.382840965308915 3.231471185029594 1 0 1
101 1 26.836774118040168 15.20330484895519 4.025268178233443 0 0 -1
2935 1 26.499680013804433 12.117406142476359 4.279839119344759 0 1 1
2224 1 31.881304460051027 12.837771292181019 3.3649236359601638 -1 1 1
1831 1 35.57745222498639 14.41492587999995 4.775916353133211 1 0 1
2208 1 45.39090053135793 15.128837532124507 2.970446731323788 -1 0 0
418 1 50.016218214244574 14.273912660364326 7.205162421260135 -1 0 0
3914 1 4.517514179149444 13.182637266399995 9.376223330654607 0 0 2
999 1 5.313192620984243 18.608558797571174 9.47299120145406 1 0 0
843 1 5.364463022713185 15.706304132299797 5.447314702013186 1 0 1
811 1 7.351375378082914 20.380244740339894 8.055572537548267 0 0 1
2057 1 8.928669715730914 18.85570527131826 6.6957072433297435 1 0 2
1415 1 14.961151751205447 17.929928486653576 3.749735346797791 0 0 0
4142 1 22.507833951773343 12.9805773100734 4.980778241257554 0 0 -1
2476 1 23.430449629373648 15.659503013198702 5.714288414564032 -1 0 1
124 1 27.94169521673567 17.08022628747471 6.13298071499929 0 1 0
1297 1 32.250236187622804 19.322146955039752 4.586085919567262 0 0 0
2134 1 31.074516335778167 15.287878292779062 4.041237532059848 -1 1 1
3413 1 33.905587194587056 16.41159492349163 3.8529900390524077 0 1 1
326 1 37.64685257972742 19.147075495622364 4.58275943882556 0 0 0
4148 1 39.76526606911405 18.087777683982445 5.968374133750165 0 1 1
520 1 46.78575500498698 17.104962809418456 4.510389743596875 -1 0 -1
4157 1 49.389718852927274 17.92314656168489 5.846270745711093 -2 1 1
2489 1 49.39438605737416 20.716466087948803 5.277838940318892 0 1 1
1027 1 5.607056439181189 20.74722865521393 5.711632924555629 0 1 1
146 1 7.558169744369913 23.33476022749726 6.328903750073794 0 0 0
981 1 14.72125217129137 17.63857500210032 7.105476197494467 0 0 1
1808 1 19.07760119751108 18.38100327323863 3.560073936801416 0 0 1
2579 1 21.169886969435108 17.223080839152693 7.0743651957209766 0 1 -1
1744 1 21.93050285473767 18.468140987535186 4.334432689014254 0 -1 0
3218 1 23.762923901370154 22.623059304843522 5.618988598395407 1 1 1
3779 1 25.608592196155282 21.138042811543187 4.169017239988988 0 0 1
264 1 28.32415759012327 20.134981393280125 4.040147190673423 0 -1 0
2557 1 33.101452822384076 21.79172411681144 4.677573763865866 0 0 0
3476 1 35.0261288649788 21.431332106095514 1.7785376347494322 1 0 1
218 1 35.9358629555486 21.856485867475744 4.8294495448617685 0 0 0
294 1 38.38577457863522 21.34209076232353 2.596131477980952 0 0 0
3912 1 41.292268025208756 22.42409110275454 2.6690872360804376 0 1 1
3230 1 41.44075340473556 20.913266025592986 5.215308317106644 -1 1 -1
500 1 44.05289691440706 24.039198336141407 5.654378945782599 0 1 0
1545 1 2.633877762140642 21.26649680283171 4.919811093549371 0 0 0
2556 1 9.392176721641109 21.46288715929617 4.650919863243196 0 0 0
377 1 1.4125615005977536 2.8200386395844537 16.19446651409671 0 2 -1
469 1 11.445034696588321 22.726557941591537 3.641546681858528 0 -1 -1
2067 1 14.316445820169792 22.28896925275966 5.556957090984561 0 0 1
2808 1 16.858779608545447 19.00184030843026 6.083935160962305 1 0 1
3244 1 19.700537436765977 22.544806044674026 4.321483776502634 0 0 0
358 1 6.899994043660791 20.097177034989425 13.773458487017198 1 0 0
1673 1 3.8176970869881166 0.5460650694931203 14.120453950824697 0 0 1
2297 1 29.35324491476878 21.744645184028318 1.976482096033139 0 1 -1
505 1 31.312534790577484 23.48941993614184 3.21261051804 -1 1 0
2194 1 24.533407292478742 10.207534602080344 16.423153641525207 -1 1 0
838 1 12.189307737350314 16.09025433375955 0.13887426395668495 0 1 1
487 1 4.717930473686891 13.610422061278486 1.2717920808457452 1 0 0
3629 1 3.0383720173058486 0.729468782257245 2.0277253438021563 0 1 0
3110 1 46.51128839073719 24.422446576172458 10.207884099225701 0 0 0
3242 1 0.871708252395489 2.2180487378727745 9.807961003639319 2 0 1
3142 1 44.041474202091806 5.869185759377189 0.15324057398224955 0 1 1
2730 1 1.7587625167678589 14.969711229357232 2.3702176597720612 0 1 1
2065 1 11.457155426579682 0.900526880044869 8.66158789232651 0 0 0
337 1 12.126221844104712 0.8910238184143591 5.868383801541997 1 1 0
1396 1 14.675276253670846 1.958522014628404 6.442144419415633 0 0 0
1169 1 31.11343453759738 8.18284432528138 16.27568755598043 -1 -1 0
1799 1 32.59613433752354 5.51814795379651 1.000197928194074 -1 1 0
3717 1 21.426200411774424 24.89565710523977 8.695583837781896 -1 1 0
2702 1 23.52053676891483 24.207194082615697 14.660112219261816 -1 0 0
1526 1 40.29183652056376 0.1543697580022477 11.084844781430554 0 -1 1
1935 1 37.95763330581663 0.5364943691631137 6.832609722430527 -1 0 0
3947 1 4.243722042181095 16.412302471195908 1.4731202470802767 0 0 0
2490 1 38.67008044383333 3.196224853559308 6.473646251977322 -1 0 -1
1645 1 40.76155476624933 4.082812333035171 8.370379380595475 0 -2 1
2726 1 42.807110124375626 2.3462834536789847 8.966910287031062 0 1 0
153 1 45.9428995736513 2.0687322537448525 12.01942555886192 -2 -1 0
499 1 47.19551973117473 2.902121359137724 8.104494396402854 0 2 1
2801 1 3.169136649874283 5.5084757035216505 13.353646925140549 1 0 0
889 1 5.724317027312456 3.8398569278779386 9.217765848626765 1 -1 1
3014 1 7.835699382527381 2.201911350796799 9.367472063000847 0 0 0
3056 1 9.721629726683481 3.085943683468695 7.812300451068572 0 0 -1
3362 1 10.474559860176726 5.382172971621933 8.948241228848051 -1 1 0
3438 1 14.33110217219789 4.092436197836631 8.527937245239388 1 1 0
1499 1 12.681077976605307 5.469953322130914 7.250259401376942 1 0 1
1287 1 15.827444976475455 7.079293623526475 5.713287518116539 0 0 0
2715 1 18.393442248213983 2.970670454710216 6.610933954317454 -1 3 1
3168 1 21.35340199833045 4.736826494545472 7.608098676712945 0 1 1
3928 1 22.7896357850542 4.859421709483077 10.073516745187256 -1 1 1
4066 1 28.00845265474088 4.8548774687562615 9.444891350402369 0 -1 1
1721 1 33.202610924041124 2.340998878242747 9.140550661981333 0 1 0
2905 1 36.03979086954391 4.1389502423632685 7.423409392456327 1 2 0
1643 1 36.80694827186424 7.5182784260978295 10.080707434448918 0 0 2
4151 1 42.27420918834055 6.219471737560217 7.315640666883981 -1 0 0
2697 1 46.781550366428405 4.267240740591615 10.538909495704237 -1 0 0
1097 1 49.433252301011024 4.549057957347281 11.010199739112915 0 0 0
967 1 49.339553731178796 7.489390452463135 10.615894686505811 -1 -1 -1
2263 1 2.015289678861268 7.557908692618746 11.93518677977612 1 0 0
1330 1 3.9549727570258493 8.304078379597321 9.533003975132406 0 0 0
4081 1 8.355322860179038 7.2855151732602605 8.726742399717438 1 1 0
2817 1 6.115052917318977 7.25420603644266 10.720962710074456 0 -1 1
1598 1 12.665260105812758 8.695828163543665 9.659004654667847 1 0 0
3340 1 10.178903634537084 8.066562657389147 10.868800934718356 1 0 0
2293 1 13.542443366457443 8.10598798599905 7.053819590085712 0 0 1
1050 1 15.611676166663582 9.492694941259288 8.228746329061666 1 0 0
2206 1 18.094606426601082 6.292139964680556 9.71287547971144 0 1 0
4057 1 24.967900570496823 6.716261100798186 6.961899652606688 0 0 1
139 1 25.329289858051673 6.025657774241467 9.605347503422493 0 0 0
1889 1 29.849181267439217 5.696865447180941 7.245888130673084 -1 1 1
3285 1 32.2157420487935 5.124153813318122 8.837533056795516 0 1 1
219 1 31.97026814599126 6.736509301165902 5.583913300521553 -1 0 1
1504 1 34.28408928459328 6.646509190024716 7.153168668158176 -1 0 1
1056 1 36.806203467862886 8.114679418470757 7.478224400452536 0 1 0
1303 1 40.42665361760827 10.286876687414273 8.27593641595866 -1 1 1
1131 1 41.9517474876027 8.282560000725228 9.080578873381059 0 1 -1
523 1 44.358462006383036 9.158779088112448 9.409115998233167 1 0 0
2754 1 47.6637393986434 8.17336237340807 8.422857513025551 -1 1 0
1585 1 4.7572819344016954 10.756962927556554 7.994739737348732 1 -1 0
3070 1 7.587783052374999 7.846512873563321 13.284864850106745 -1 1 1
2474 1 6.5555873576101975 12.146538227907225 11.521646117562888 0 1 1
2364 1 9.112800617984899 10.429123955720906 11.904660689239646 -1 1 0
4125 1 12.916946577108284 11.403912552385773 9.48587265958491 0 0 1
1408 1 17.785158571962324 9.538647922529535 6.21360330899247 -1 -1 1
3847 1 21.633987599922765 9.109214469575393 8.59029746181768 1 0 1
1225 1 23.89250946885817 9.433055898190144 7.014399484030491 0 -1 1
352 1 28.48085343455426 10.38715534525846 7.769822562165501 -1 0 0
2180 1 30.77429504913754 10.00118005946997 6.151435229792955 0 1 0
636 1 33.15038126829798 11.016561962083879 7.919027231667152 -1 1 0
2849 1 34.664184916677655 9.783757587053719 5.85401386625126 0 1 0
1828 1 37.6554996146284 10.662002877074608 7.110490034155207 -1 0 0
1897 1 41.43113600839676 11.274198014895285 6.029862738141687 1 -1 1
2325 1 45.42013244397013 9.595450052751488 6.748086769319047 0 1 0
2846 1 41.460706626410214 12.136708952322612 10.196119643886021 0 1 1
2764 1 47.695237476134125 11.336084233849904 8.195801772298898 0 0 1
908 1 0.3811673240952365 14.846132953429075 10.032533858986612 0 0 0
2292 1 2.4019016547373297 13.457326420057882 11.575208636659445 1 1 0
3216 1 7.27403059057553 10.553661948371806 9.392238641644008 0 -1 0
2969 1 9.454092941041488 13.940452487910992 6.930628654975564 0 0 1
3831 1 11.942119475812882 11.954297282510998 7.035136166478581 1 1 1
2390 1 15.50401617737101 12.15521329657726 9.525612223404787 0 0 -1
1920 1 16.11474038280214 13.199572392014533 7.129952410706892 -1 0 1
2690 1 20.365580192270055 11.51661500900226 8.399554770847114 0 1 0
2465 1 22.644432380157703 12.645849013676273 7.759834333510342 0 0 -1
34 1 26.071689532229268 11.222896000260917 6.927611817584406 1 0 0
2840 1 25.759514065683085 14.326147950216333 6.999276645719034 -1 1 0
3856 1 28.53401531743866 14.215455946033236 7.4730029171646155 0 1 0
3776 1 31.00451902551496 16.011420010718133 6.636959652899514 0 0 1
144 1 32.52556717844257 14.018794386899087 8.051539595911713 1 0 0
1286 1 35.598589592384414 12.440785151681284 8.594828450636026 0 1 1
3418 1 39.173745544012675 15.246033910015734 7.0000699125929495 0 1 0
1322 1 36.54813841370829 14.706471205263156 7.2489712196872125 -1 -1 0
1127 1 40.48297609659397 14.80590089180041 9.378773563033914 -1 0 1
2188 1 45.64584797022994 14.27239402810192 9.333879216833026 -1 1 -1
2089 1 47.789626918955236 14.73216912159979 11.01388695377463 0 0 0
2447 1 0.4252297958656002 11.746254248747002 7.7184975929278234 0 0 0
880 1 3.9461798271810316 18.209476399697927 5.397764241015739 0 0 1
1766 1 1.6642630121108388 16.671503231284877 6.806648365771947 1 1 0
3273 1 2.74632759309888 19.40995518114041 8.047524688190663 0 0 0
1293 1 8.83797270655799 22.70717948772759 9.00667308712436 1 -1 0
449 1 11.084038414478304 18.271161365358854 8.317886775715193 0 1 1
837 1 18.526473305354656 16.790852601233343 6.264991477500964 1 -1 0
2335 1 16.60908238563008 15.731364527928388 8.018747375855988 1 0 1
1846 1 22.38554568679875 15.377564272045495 8.747986958540793 0 0 1
473 1 24.89882075388516 18.61998417149358 5.442462748312162 -1 0 1
1402 1 24.788195694938576 16.17692772444422 10.05012220346149 0 1 0
2793 1 29.812075444340813 19.13716043484382 6.150422009931771 1 0 0
1833 1 33.36924060699991 18.051146813832997 6.5058605363142785 0 0 1
3654 1 35.97106151112078 19.525228477736576 6.783157089154442 0 0 1
442 1 34.53377099358518 15.814063647488577 9.19063370558574 0 0 -1
3991 1 41.97626439185457 17.197581797153944 9.666507309128123 -2 0 1
2680 1 46.075897650373534 18.052161954772128 6.9172962035205305 -1 0 -1
1938 1 44.761494823916195 16.93289935351347 9.305276162781817 0 -1 0
1368 1 48.618299031336676 22.47878636565278 11.366984362159666 0 0 0
1551 1 2.294140984917451 22.20370227539141 7.565188583074382 0 -1 1
3226 1 11.239687762849153 20.663176845668747 9.736758249377012 0 0 0
1052 1 10.608483477412005 24.338055348081294 6.472669306266199 0 0 0
2768 1 13.816262693510938 18.634598227908608 9.460564378427764 0 1 1
3820 1 12.395658960277206 22.119189005262168 7.640128829065634 0 0 1
1394 1 18.747797653944783 19.09925076350238 10.008181286758898 0 1 1
3353 1 30.37480266963507 22.342554667759977 6.118512681159808 0 0 -1
2015 1 35.637312478479444 23.940705762940404 6.660714681733598 -1 -1 0
1845 1 40.95107894059794 23.706148815963306 5.922750196945329 0 -1 0
2538 1 39.78794939104806 20.642588651302354 9.595315928916108 -1 0 0
762 1 37.171760641342416 19.51543766859196 9.416743765794855 1 0 0
4114 1 41.38985275650626 19.27167153180707 7.938935395859447 1 0 0
1497 1 43.54961294856743 18.86461840316118 4.476215945205485 0 0 1
3303 1 48.050910050890764 18.626356681046254 8.958971138433617 -1 1 1
4005 1 47.04921828801305 21.788421767971414 6.830229717084826 -1 0 0
3199 1 0.03612511121332318 23.104330605989286 6.266179513827151 1 1 0
3934 1 26.85313464826526 5.346093271521921 16.0619992997512 1 0 1
1302 1 4.893428209620542 23.66031078013164 6.932254374393398 1 0 1
3360 1 6.122895623995772 24.041001995530642 9.51349376572895 1 1 1
3119 1 16.198052345161 21.709883351028008 7.555850781997588 -1 1 1
3409 1 46.18321085117152 0.6219105828072616 6.464950592911081 0 0 1
167 1 13.533420133976156 24.07551598236624 9.465496909474146 -1 0 1
148 1 21.6217680253222 20.90318224777381 5.880715703666833 1 0 0
1959 1 19.329921794145868 23.055511010639133 9.335590673155298 -1 -1 0
2435 1 24.38860147780955 23.696599668965245 7.884892107610837 0 1 0
2305 1 27.65502858511035 23.228147500402056 5.338837214770095 0 0 0
44 1 27.421193070126613 23.328191653360932 8.054896504387726 -1 -2 -1
3780 1 34.5397174880398 24.066554096759162 9.218347587325932 1 1 1
3180 1 37.651576583715425 0.9408551576681978 3.843633202146318 0 2 0
3270 1 42.06875844137579 24.242279581067088 8.420186029315454 -1 0 0
2294 1 44.569650023795006 23.067692688010055 8.563802684873535 -1 0 -1
2774 1 44.1341528934374 19.98744161589677 7.70976211383398 -2 0 -1
2864 1 47.172179770236966 21.082494486428192 9.631270838523735 -2 0 1
1814 1 3.6301164105082804 1.8825290538112898 11.574961250793203 1 0 1
2168 1 46.183030786520234 9.794644517066976 14.821825733297043 0 1 -1
1503 1 37.854237541969056 0.777758967179133 9.631173111823824 0 0 1
249 1 9.577771458165666 22.134493003104037 14.581422577730281 -1 0 1
3590 1 20.42384628777202 2.5390252014966057 11.054432274816868 -1 1 2
2232 1 23.417090842919663 2.385441169001335 11.349271747215061 0 1 0
3608 1 25.10152945201671 0.5731784911474758 10.560795226496344 0 2 1
2666 1 16.329051992419206 0.5515717867849054 10.018615660103144 1 0 0
1064 1 27.335693929506416 1.9026059398577782 10.16254666800212 1 -1 0
3102 1 30.02644486984668 21.225503223724832 13.581400699032379 1 0 0
1184 1 31.419079021838492 1.396541765870754 11.058725017502564 -1 0 -1
3704 1 19.251517155455495 1.0492587031613156 15.956700038366813 1 1 2
2519 1 35.70742693387149 0.5804781550763282 11.703080776748612 1 2 -1
3027 1 48.689676902825354 14.877722110546843 2.0926198836349013 0 1 1