
# Create simulation box of size 50 x 50 x 50 Angstrom
#
lattice	            sc 1
Lattice spacing in x,y,z = 1.0000000 1.0000000 1.0000000
region 	            all block 0 50 0 50 0 50 units box
create_box          1 all
Created orthogonal box = (0.0000000 0.0000000 0.0000000) to (50.000000 50.000000 50.000000)
  1 by 2 by 3 MPI processor grid

# fill box with 4175 randomly distributed atoms
#
create_atoms        1 random 4175 63782 all
Created 4175 atoms
  create_atoms CPU = 0.000 seconds
mass                1 18.015

# Define potential
#
pair_style          sw
pair_coeff          * * ML_mW.sw mW
Reading sw potential file ML_mW.sw with DATE: 2019-02-27

# Run minimization
#
minimize            1.0e-8 1.0e-8 10000 1000
WARNING: Using 'neigh_modify every 1 delay 0 check yes' setting during minimization (../min.cpp:187)
Neighbor list info ...
  update every 1 steps, delay 0 steps, check yes
  max neighbors/atom: 2000, page size: 100000
  master list distance cutoff = 6.0032907
  ghost atom cutoff = 6.0032907
  binsize = 3.0016454, bins = 17 17 17
  1 neighbor lists, perpetual/occasional/extra = 1 0 0
  (1) pair sw, perpetual
      attributes: full, newton on
      pair build: full/bin/atomonly
      stencil: full/bin/3d
      bin: standard
Per MPI rank memory allocation (min/avg/max) = 4.255 | 4.258 | 4.261 Mbytes
Step Temp E_pair E_mol TotEng Press 
       0            0    7792709.3            0    7792709.3    5898794.3 
     630            0   -45180.336            0   -45180.336   -154.07449 
Loop time of 1.16862 on 6 procs for 630 steps with 4175 atoms

98.9% CPU use with 6 MPI tasks x no OpenMP threads

Minimization stats:
  Stopping criterion = max force evaluations
  Energy initial, next-to-last, final = 
      7792709.32924461  -45180.0188663597   -45180.336116598
  Force two-norm initial, final = 2.0191930e+08 4.9721331
  Force max component initial, final = 1.0948746e+08 0.73126211
  Final line search alpha, max atom move = 0.053306038 0.038980685
  Iterations, force evaluations = 630 1000

MPI task timing breakdown:
Section |  min time  |  avg time  |  max time  |%varavg| %total
---------------------------------------------------------------
Pair    | 0.90425    | 1.0013     | 1.0746     |   5.4 | 85.68
Neigh   | 0.024374   | 0.024939   | 0.026036   |   0.3 |  2.13
Comm    | 0.047646   | 0.12181    | 0.21898    |  15.4 | 10.42
Output  | 0          | 0          | 0          |   0.0 |  0.00
Modify  | 0          | 0          | 0          |   0.0 |  0.00
Other   |            | 0.02059    |            |       |  1.76

Nlocal:        695.833 ave         704 max         685 min
Histogram: 1 1 0 0 1 0 0 1 0 2
Nghost:        1494.17 ave        1515 max        1468 min
Histogram: 1 1 0 0 0 0 1 1 1 1
Neighs:        0.00000 ave           0 max           0 min
Histogram: 6 0 0 0 0 0 0 0 0 0
FullNghs:      19997.0 ave       20462 max       19320 min
Histogram: 1 1 0 0 0 0 0 2 0 2

Total # of neighbors = 119982
Ave neighs/atom = 28.738204
Neighbor list builds = 26
Dangerous builds = 0

# Add velocity/set timestep
#
velocity            all create ${TEMP} 120598 rot yes dist gaussian
velocity            all create 230 120598 rot yes dist gaussian
timestep            5.0

# Define output
#
compute	            1 all msd
thermo	            100
thermo_style        custom step temp press vol etotal ke pe c_1[4] density

# Neighbor lists
#
neigh_modify        delay 0 every 1 check yes

# Set fixes
#
fix                 1 all momentum 10 linear 1 1 1 rescale
fix                 2 all nve
fix                 3 all temp/csvr ${TEMP} ${TEMP} 500.0 928347
fix                 3 all temp/csvr 230 ${TEMP} 500.0 928347
fix                 3 all temp/csvr 230 230 500.0 928347
fix                 4 all press/berendsen iso ${PRES} ${PRES} 1000.0 modulus 20000
fix                 4 all press/berendsen iso 350 ${PRES} 1000.0 modulus 20000
fix                 4 all press/berendsen iso 350 350 1000.0 modulus 20000

# Run 0.5 ns equilibration
#
dump                1 all custom 1000 eq.${NAME}.dump id type x y z vx vy vz
dump                1 all custom 1000 eq.liquid_density_MLmW.dump id type x y z vx vy vz
run                 100000
Per MPI rank memory allocation (min/avg/max) = 3.506 | 3.508 | 3.511 Mbytes
Step Temp Press Volume TotEng KinEng PotEng c_1[4] Density 
     630          230    892.42114       125000   -42318.699    2861.6373   -45180.336 2.7295415e-33   0.99914793 
     700    146.23355    222.34757    125184.81   -41439.884    1819.4234   -43259.307   0.27464233    0.9976729 
     800     180.1872    79.077865    124852.35   -40642.283    2241.8713   -42884.154   0.65917474    1.0003295 
     900    200.52553    338.58017    124421.73   -40195.679    2494.9188   -42690.597    1.1331525    1.0037917 
    1000    211.18338    302.43172    124577.78   -39899.504    2627.5228   -42527.027    1.5487567    1.0025343 
    1100    217.80897    663.84063    124451.11   -39706.492    2709.9577    -42416.45    2.0341735    1.0035547 
    1200    223.93508    231.76006    124575.67   -39744.561    2786.1781   -42530.739    2.4955036    1.0025512 
    1300    220.36532    427.93761     124515.3   -39692.216    2741.7635   -42433.979    2.9449144    1.0030373 
    1400    221.42664    375.75277    124520.57   -39689.113    2754.9684   -42444.081    3.3996053    1.0029949 
    1500    226.41495    411.98785    124428.46   -39619.766    2817.0325   -42436.799    3.8065637    1.0037373 
    1600    233.11293    317.00984    124724.37   -39507.832     2900.368     -42408.2    4.3463619     1.001356 
    1700    228.09252    263.72152    124713.75   -39527.898    2837.9046   -42365.803     4.760403    1.0014413 
    1800    226.25455    331.68957    124762.81   -39607.106    2815.0368   -42422.142    5.1847884    1.0010475 
    1900    227.71839    556.72295    124738.84   -39589.942    2833.2496   -42423.192    5.5533956    1.0012398 
    2000    231.52116    184.66877    125020.55   -39554.009    2880.5634   -42434.572    6.0568665   0.99898371 
    2100    230.94799    323.94204    125102.78   -39509.134     2873.432   -42382.566    6.5692758   0.99832703 
    2200    234.72049    180.34643    125141.11   -39549.992    2920.3691   -42470.361    6.9517315   0.99802128 
    2300    232.22441    430.77107    125050.05   -39527.217    2889.3132    -42416.53    7.3393008   0.99874804 
    2400    231.43467    291.03512    125108.68   -39558.851    2879.4873   -42438.338    7.8145545   0.99827996 
    2500     227.1245    379.88744    125117.44   -39498.368    2825.8606   -42324.228    8.3124301   0.99821012 
    2600    234.36566    311.33519    125295.58   -39428.658    2915.9543   -42344.612     8.762428   0.99679087 
    2700    235.29891    118.08079    125111.36   -39460.316    2927.5658   -42387.882    9.3042752    0.9982586 
    2800    235.47897    292.74049    124937.16   -39440.132    2929.8061   -42369.938    9.7581753   0.99965048 
    2900    235.10781    299.16909    125191.78   -39505.181    2925.1881   -42430.369    10.272046   0.99761734 
    3000    231.49485    284.74782    125072.61   -39529.947     2880.236   -42410.183     10.67904   0.99856791 
    3100    230.66423    6.7112321    124991.55   -39482.181    2869.9016   -42352.083     11.09475   0.99921544 
    3200    231.34055    355.88826     124938.5   -39537.943    2878.3162    -42416.26    11.626142   0.99963979 
    3300    230.86401    407.08565     124858.2   -39535.368    2872.3872   -42407.755    12.125405    1.0002827 
    3400    227.80817   -41.492681    124871.65    -39561.36    2834.3668   -42395.727    12.531622    1.0001749 
    3500    228.61711    396.81118    124649.61   -39596.101    2844.4315   -42440.533    12.982676    1.0019566 
    3600    226.63253    305.85153    124590.45   -39640.074    2819.7395   -42459.814    13.430038    1.0024323 
    3700    226.93906    418.96136    124632.56   -39706.122    2823.5534   -42529.676    13.774259    1.0020936 
    3800    227.64245    570.94809    124795.24   -39646.417    2832.3048   -42478.722    14.079659    1.0007873 
    3900    224.47092    434.33962    124759.39   -39682.697     2792.845   -42475.542    14.496932    1.0010749 
    4000    229.93246    264.85597    124890.19   -39688.971     2860.797   -42549.768    14.948273    1.0000264 
    4100    227.15407    492.01784    125012.46   -39660.809    2826.2285   -42487.038    15.299341   0.99904836 
    4200    225.16795    438.68223    125241.54   -39672.301    2801.5174   -42473.819    15.725015   0.99722096 
    4300    231.06213    513.00199    125360.51    -39680.55    2874.8521   -42555.402    16.006963   0.99627463 
    4400    229.30028    104.76245    125478.38   -39656.811    2852.9315   -42509.742    16.538555   0.99533872 
    4500    225.11664    265.18038    125264.22   -39667.237     2800.879   -42468.116    16.988523   0.99704046 
    4600    229.83531    219.68706    125473.98   -39734.187    2859.5882   -42593.775    17.366185   0.99537362 
    4700    236.16948    374.26539     125365.9   -39670.992    2938.3974   -42609.389    17.756638   0.99623178 
    4800    228.62671    592.73632    125511.99   -39736.079    2844.5509   -42580.629    18.091295    0.9950722 
    4900    230.03999    251.70838    125653.46   -39609.437    2862.1348   -42471.572    18.485729   0.99395184 
    5000    231.68254    289.29753    125511.83   -39549.132    2882.5713   -42431.704    18.806288   0.99507348 
    5100    231.21242     218.2004    125386.89    -39623.02    2876.7221   -42499.743     19.15479   0.99606497 
    5200    231.47233    175.08161    125321.32   -39689.547    2879.9559   -42569.503    19.505887   0.99658615 
    5300    233.31203    524.03458    125557.48   -39664.815    2902.8452    -42567.66     20.10717   0.99471167 
    5400    227.63212    201.00556    125746.43    -39705.75    2832.1763   -42537.926     20.48351   0.99321702 
    5500     232.1314    347.62948    125597.81   -39709.882    2888.1559   -42598.038    20.982045   0.99439224 
    5600    226.14236    467.55357    125755.14   -39710.431    2813.6409   -42524.072    21.351718   0.99314824 
    5700    227.66226    237.19149    125722.99   -39693.752    2832.5514   -42526.303    21.667079    0.9934022 
    5800    225.99743    229.62441    125525.22   -39721.187    2811.8377   -42533.025    21.861526   0.99496733 
    5900    225.27224    183.35478    125344.41   -39755.516    2802.8149   -42558.331    22.311428   0.99640257 
    6000    228.62394    530.82158    125198.36   -39753.332    2844.5164   -42597.848    22.868227   0.99756493 
    6100    231.43009    237.54539    125236.15   -39685.534    2879.4303   -42564.965    23.209715   0.99726386 
    6200    227.92384    364.40002    125193.37   -39742.472    2835.8059   -42578.278    23.496556    0.9976047 
    6300    227.37739    349.55627    125104.17   -39718.731     2829.007   -42547.738     23.88298     0.998316 
    6400    228.75169    331.65342    125083.13   -39694.906    2846.1059   -42541.012     24.33853   0.99848388 
    6500     228.8026    365.35759    125073.67   -39640.629    2846.7394   -42487.368    24.685552    0.9985594 
    6600    228.16987    477.71161    125031.56   -39711.542     2838.867   -42550.409    25.056929   0.99889575 
    6700    224.77923    386.21074    125304.99   -39782.006     2796.681   -42578.687    25.495468   0.99671604 
    6800    229.47768    405.34464    125114.81   -39708.873    2855.1386   -42564.011    26.163755   0.99823106 
    6900    229.17005    353.62119    124942.84   -39645.996    2851.3112   -42497.307    26.716191   0.99960504 
    7000    235.73723    218.71388    125184.09   -39634.944    2933.0194   -42567.964    27.369839    0.9976786 
    7100    230.61586    206.96037    125134.01   -39642.083    2869.2998   -42511.383    28.041946   0.99807789 
    7200    227.28681    236.33641    125029.01   -39683.938      2827.88   -42511.818    28.207579   0.99891608 
    7300    223.37629    187.25537    125028.89   -39736.713    2779.2257   -42515.939    28.493832   0.99891709 
    7400    228.98419    204.82046    124921.32    -39769.02    2848.9987   -42618.019    28.612153   0.99977721 
    7500    225.93631    308.93662     124920.3   -39749.201    2811.0772   -42560.278    29.045264   0.99978539 
    7600    225.46779    606.93023    125116.86   -39839.525    2805.2479   -42644.773    29.363354   0.99821475 
    7700    225.50166    310.71731    125289.25   -39737.307    2805.6693   -42542.976    30.024133   0.99684126 
    7800    229.62221    306.19873    125308.15   -39721.123    2856.9368    -42578.06    30.481283   0.99669089 
    7900    225.08101    282.13937    125482.88   -39784.279    2800.4356   -42584.714    30.883153   0.99530302 
    8000    227.31456    270.24212     125411.8    -39743.76    2828.2253   -42571.985    31.191034   0.99586712 
    8100    223.14825    363.58019    125362.83   -39813.478    2776.3885   -42589.866    31.590212   0.99625616 
    8200    226.46019    460.71654    125156.29   -39845.004    2817.5953     -42662.6     31.79592   0.99790021 
    8300    228.77231     300.0767    125300.19   -39820.897    2846.3624   -42667.259    31.882523   0.99675418 
    8400    231.16497    250.90963    125225.54   -39773.126    2876.1317   -42649.258    32.451261   0.99734841 
    8500    230.15442    562.26582    125345.21   -39705.603    2863.5585   -42569.162     32.74588   0.99639623 
    8600     224.4945    258.45037    125486.54   -39716.715    2793.1384   -42509.853    32.978539     0.995274 
    8700    230.47906    373.87722    125386.17   -39695.665    2867.5977   -42563.262     33.17608   0.99607071 
    8800    230.55491    462.43836     125404.2   -39722.289    2868.5414    -42590.83    33.771419   0.99592753 
    8900     224.4501    187.22986    125471.04   -39793.339     2792.586   -42585.925    33.936855   0.99539695 
    9000    225.36121     518.5657    125589.77   -39737.907    2803.9219   -42541.829    34.125797   0.99445596 
    9100    223.21628    509.97106    125577.72   -39809.896    2777.2349   -42587.131    34.479049   0.99455137 
    9200      230.833    197.56352       125590   -39714.553    2872.0014   -42586.555    34.839425    0.9944541 
    9300     228.3431    330.85399    125674.73   -39772.798    2841.0223    -42613.82    35.114821   0.99378368 
    9400    225.07574    394.05519    125829.89   -39744.468    2800.3701   -42544.838      35.2725   0.99255823 
    9500    228.68109    458.48092    125792.82   -39747.747    2845.2275   -42592.975     35.48048   0.99285073 
    9600    232.29764    414.41641    125882.85   -39706.777    2890.2243   -42597.001    35.635207   0.99214064 
    9700    232.07773    330.81878    126020.14   -39660.914    2887.4882   -42548.402    36.025494   0.99105981 
    9800    233.95846    221.36039    126097.95   -39755.063     2910.888   -42665.951     36.43737   0.99044821 
    9900    230.90072    318.02925    126002.97   -39847.541     2872.844   -42720.385    36.754431   0.99119483 
   10000    227.62923    264.03311    125910.13    -39863.93    2832.1403    -42696.07    37.005279   0.99192572 
   10100    226.56579     139.7043    125848.56   -39831.947    2818.9092   -42650.856    37.291618   0.99241096 
   10200    227.72154     427.6967    125958.82   -39877.839    2833.2889   -42711.128    37.551465   0.99154225 
   10300    226.12885    315.21206    125783.99   -39870.763    2813.4728   -42684.236    37.729373   0.99292039 
   10400    231.34801    259.64787     125884.9   -39807.999    2878.4091   -42686.408    38.064995   0.99212448 
   10500    229.22605     465.7573       125712   -39780.456    2852.0079   -42632.464    38.465794   0.99348901 
   10600    230.77008    314.59313    125749.91    -39699.29    2871.2185   -42570.508    38.650299   0.99318951 
   10700     226.5299    102.60989    125820.86   -39668.489    2818.4626   -42486.951    39.124486   0.99262941 
   10800    234.51777    351.03442     125759.6   -39651.113    2917.8469   -42568.959    39.607294   0.99311295 
   10900    232.62073    301.15144    125565.97   -39676.943    2894.2441   -42571.187    39.825315   0.99464441 
   11000    234.09575    197.59827    125616.96   -39675.758    2912.5962   -42588.354    40.181391   0.99424066 
   11100     229.3726    125.85819    125495.69   -39714.444    2853.8313   -42568.275    40.366664   0.99520142 
   11200    229.31236    199.57647    125484.47   -39712.824    2853.0817   -42565.906    40.580528   0.99529041 
   11300    230.78087    174.13786    125380.22   -39698.589    2871.3528   -42569.941     41.01739     0.996118 
   11400    229.34922    343.19873    125572.45   -39698.526    2853.5403   -42552.066    41.671918   0.99459311 
   11500    225.19265    177.92483     125358.5   -39700.897    2801.8246   -42502.721    42.142554   0.99629057 
   11600     225.5169    622.46438    125103.11   -39686.755     2805.859   -42492.614    42.524256    0.9983244 
   11700    231.12437    242.33703    125347.08   -39575.005    2875.6266   -42450.631    43.131345   0.99638134 
   11800    233.68554    222.19622    125387.48   -39660.261    2907.4923   -42567.753     43.40124   0.99606028 
   11900    228.90146    337.86706    125529.98   -39683.382    2847.9694   -42531.351    43.832893   0.99492955 
   12000    226.63548    189.90411    125785.78   -39693.517    2819.7762   -42513.293    44.266207   0.99290629 
   12100    230.86153    428.11513    125626.26   -39633.896    2872.3564   -42506.253    44.478614   0.99416704 
   12200    231.65491    249.38567    125515.41   -39640.901    2882.2275   -42523.128     44.90544   0.99504511 
   12300    230.60625    245.11912    125601.16   -39655.016    2869.1801   -42524.196    45.572746   0.99436575 
   12400    231.77551    223.39594    125426.74   -39645.843     2883.728   -42529.571    46.187583   0.99574849 
   12500     229.0339    231.95551    125286.02   -39745.648    2849.6171   -42595.266    46.576284   0.99686694 
   12600    229.82661    568.65351     125275.2   -39652.698      2859.48   -42512.178    46.922479   0.99695305 
   12700    227.55069    349.35846    125475.67   -39614.558    2831.1632   -42445.721    47.296203   0.99536019 
   12800    233.49959    286.57652    125140.71   -39588.874    2905.1789   -42494.053    47.290578   0.99802447 
   12900    227.92127    481.36354    125348.52   -39631.407    2835.7739   -42467.181    47.897411    0.9963699 
   13000    232.27225     509.3802    125579.91   -39564.943    2889.9084   -42454.851    48.133915     0.994534 
   13100    229.44938     391.7148    125530.96   -39559.022    2854.7864   -42413.809    48.624826   0.99492183 
   13200    236.53329    357.92862    125224.41   -39485.903    2942.9238   -42428.827    49.290113   0.99735741 
   13300    238.40383    307.39202    125367.98   -39541.877    2966.1969   -42508.074    49.722718   0.99621521 
   13400    232.30191    346.80447     125130.4    -39617.89    2890.2774   -42508.167    50.037622   0.99810669 
   13500    229.27841    255.61247    125061.96   -39656.995    2852.6593   -42509.655    50.629147   0.99865288 
   13600    226.48155     389.3781    124777.86   -39687.933     2817.861   -42505.794    50.806592    1.0009267 
   13700     228.7868    429.06765    125038.18   -39688.065    2846.5427   -42534.608    51.089715   0.99884281 
   13800    232.35202    627.57435    125298.77   -39588.125    2890.9008   -42479.026    51.239177   0.99676551 
   13900    229.67099    610.03905    125310.69   -39646.739    2857.5437   -42504.283    51.298172   0.99667068 
   14000    232.39339    425.15851    125143.89    -39635.52    2891.4156   -42526.936    51.567647   0.99799913 
   14100    227.21949    405.71099    125108.08   -39658.189    2827.0424   -42485.232    51.960386   0.99828481 
   14200    228.85251    273.48176     125130.4   -39715.235    2847.3604   -42562.596    52.208992   0.99810672 
   14300    227.49507    287.16674    125048.38   -39761.505    2830.4712   -42591.976    52.582511   0.99876133 
   14400    229.45582    386.20343    125229.29   -39712.341    2854.8666   -42567.207    53.205226   0.99731857 
   14500    228.01044    446.26014    125252.41   -39659.145    2836.8833   -42496.029    53.520855    0.9971344 
   14600    232.51782    92.357395    125274.52   -39659.716    2892.9638    -42552.68    53.964819   0.99695842 
   14700    226.09719    524.20831    125183.75   -39722.552    2813.0789    -42535.63    54.050377   0.99768132 
   14800    232.96309     500.4584    125234.53   -39781.398    2898.5037   -42679.901    54.302853   0.99727683 
   14900    231.06589     205.3321     125416.1   -39880.094     2874.899   -42754.993    54.828227   0.99583296 
   15000    228.17205    322.04756    125291.41   -39882.873     2838.894   -42721.767    55.166417   0.99682405 
   15100    220.01173    284.72997    125257.58   -39897.162    2737.3641   -42634.526    55.235829   0.99709332 
   15200    226.21996    179.65263    125204.61   -39804.307    2814.6064   -42618.913    55.207407   0.99751513 
   15300     224.0762    482.35374    125393.78   -39781.685    2787.9339   -42569.619    55.799161   0.99601023 
   15400    230.32462    318.09111    125288.44    -39773.88    2865.6762   -42639.557    56.002338   0.99684768 
   15500    231.34924    152.36413    125365.52   -39755.043    2878.4243   -42633.467    56.552091   0.99623476 
   15600    231.71988     373.7154    125458.85   -39695.825    2883.0359   -42578.861    56.990195   0.99549366 
   15700    228.42603    256.16547    125421.15   -39780.833     2842.054   -42622.887    57.444387   0.99579289 
   15800    229.32951    519.95739     125442.7   -39772.569    2853.2952   -42625.864    57.710673   0.99562185 
   15900     225.8403    478.00527    125498.49    -39812.22    2809.8827   -42622.103      58.1848   0.99517927 
   16000    230.00282     282.2443    125702.99   -39767.571    2861.6724   -42629.243    58.617826   0.99356021 
   16100    230.36442    354.99011    125555.62   -39716.421    2866.1713   -42582.593    59.054302   0.99472639 
   16200    231.53529    504.22265    125470.46   -39774.849    2880.7392   -42655.589    59.378085   0.99540158 
   16300    229.95018    462.89431    125601.99   -39792.843    2861.0174   -42653.861    59.811553   0.99435918 
   16400     230.4444    403.57998     125565.3   -39671.624    2867.1664    -42538.79    60.127212   0.99464972 
   16500    233.78101    251.95993    125529.01   -39656.601    2908.6802   -42565.281     60.30668   0.99493729 
   16600    230.54308    352.67955    125405.96    -39627.85    2868.3942   -42496.244    60.450247   0.99591356 
   16700    232.44464    433.57253    125134.78   -39652.397    2892.0533   -42544.451     60.77288   0.99807175 
   16800    234.37151    370.05579    125385.69   -39637.077    2916.0272   -42553.104    61.089058   0.99607449 
   16900    240.09032    307.32897    125377.13   -39614.552      2987.18   -42601.732    61.620879    0.9961425 
   17000    232.21794    459.02801    125539.76   -39640.975    2889.2327   -42530.208    61.952379   0.99485209 
   17100    234.15159    446.39388    125625.79   -39573.634     2913.291   -42486.925     62.43673   0.99417078 
   17200     233.1564    216.90292     125581.3   -39604.675    2900.9089   -42505.584    62.824976   0.99452299 
   17300    233.81565     405.2279    125719.78     -39666.9    2909.1112   -42576.011    63.227389   0.99342751 
   17400    229.62848    354.63976    125885.88   -39698.206    2857.0149   -42555.221    63.578054   0.99211673 
   17500    231.38777    221.35332    125863.81   -39695.098    2878.9038   -42574.002    64.052056   0.99229076 
   17600    229.19771    392.96714    126068.78   -39667.425    2851.6552   -42519.081     64.70506    0.9906774 
   17700    230.68989    203.50398    126131.74   -39681.034    2870.2208   -42551.255    64.964323   0.99018293 
   17800    231.11016    398.87702    126255.52   -39692.897    2875.4498   -42568.347    65.439585    0.9892121 
   17900    230.16396    199.39654    126337.21   -39653.239    2863.6773   -42516.916    66.044899   0.98857246 
   18000    236.20133     91.18883    126013.28    -39599.07    2938.7936   -42537.864     66.52626   0.99111369 
   18100    228.37712    407.46695    125573.62   -39707.548    2841.4456   -42548.994    66.619509    0.9945838 
   18200    229.27634    456.32402    125507.53   -39709.832    2852.6336   -42562.466    66.847863   0.99510752 
   18300    233.08505    170.33122     125524.9   -39629.036    2900.0212   -42529.058    67.259597   0.99496989 
   18400    232.23407    260.16893    125311.59   -39691.389    2889.4333   -42580.822    67.785728   0.99666351 
   18500    232.00868    456.87109    125404.68    -39658.48    2886.6291   -42545.109    68.310595   0.99592371 
   18600    232.33315    346.99958    125507.66   -39716.236    2890.6661   -42606.903    68.270256   0.99510651 
   18700    232.41213    469.27015    125644.09   -39689.223    2891.6487   -42580.872    68.595117   0.99402597 
   18800    230.95104    434.55079    125786.23   -39666.485      2873.47   -42539.955    69.394122   0.99290276 
   18900    230.01134    400.75687    125712.98   -39694.959    2861.7784   -42556.738    69.573069   0.99348124 
   19000    233.42584     337.8117    125836.89   -39663.612    2904.2612   -42567.874    70.092275   0.99250302 
   19100    228.90349    320.65166    125819.78   -39738.138    2847.9946   -42586.133    70.589045   0.99263799 
   19200    232.61716    169.74085    125835.53     -39710.2    2894.1997     -42604.4    70.897705   0.99251376 
   19300      233.327    227.31428    125882.65   -39654.608    2903.0315    -42557.64    71.173467   0.99214224 
   19400    231.10451     500.1947    125641.89   -39651.904    2875.3795   -42527.284    71.485836   0.99404338 
   19500     235.1622     458.9404    125861.37   -39638.085    2925.8648    -42563.95    71.669985   0.99230995 
   19600    232.77106    470.36222    125853.31   -39670.997    2896.1145   -42567.112     71.73899   0.99237349 
   19700    234.76364    293.01183    125772.92   -39652.076     2920.906   -42572.982    71.993533   0.99300782 
   19800    230.44389    260.46691    125917.87   -39683.975    2867.1602   -42551.135    72.496782   0.99186472 
   19900    232.22776     238.3235    125905.98   -39682.693    2889.3549   -42572.048    72.944492   0.99195835 
   20000    228.49381    281.41811    125773.65   -39728.168    2842.8974   -42571.065    73.202116   0.99300203 
   20100     230.4806    437.11203    125723.85    -39683.41    2867.6169   -42551.027    73.695532    0.9933954 
   20200    227.93832    369.22079    125658.62   -39725.193     2835.986   -42561.179    73.995702   0.99391107 
   20300    226.32954    194.47458    125567.43   -39734.425    2815.9698   -42550.394    74.313857   0.99463282 
   20400    225.33818    463.42481    125251.54   -39707.517    2803.6353   -42511.153     74.36114   0.99714134 
   20500    229.12422    343.62336    125282.41   -39667.406    2850.7409   -42518.147    75.152329   0.99689567 
   20600    226.47937    300.98218    125527.31   -39697.699    2817.8339   -42515.533    75.771415   0.99495078 
   20700    231.45816    369.23169    125708.61   -39654.693    2879.7796   -42534.473    76.546025   0.99351578 
   20800    232.99914    437.56836    125578.62   -39674.491    2898.9522   -42573.443    77.116001   0.99454425 
   20900    229.71828    258.68972    125526.75   -39736.928    2858.1322    -42595.06    77.154665    0.9949552 
   21000    224.76817     322.1409     125574.9    -39834.71    2796.5434   -42631.253    77.481509   0.99457369 
   21100    227.42671    422.12665     125510.8   -39865.913    2829.6206   -42695.533    77.446719   0.99508163 
   21200    226.79797    284.86282    125677.64   -39838.055    2821.7979   -42659.853    77.207385   0.99376061 
   21300    224.97046    468.78076    125776.09   -39859.265    2799.0602   -42658.325    77.321808   0.99298278 
   21400    229.89397    275.11402    126047.79   -39828.095     2860.318   -42688.413     77.78332   0.99084239 
   21500    231.06327    410.25091    126080.23   -39823.032    2874.8663   -42697.899    78.088847   0.99058743 
   21600    232.29116    385.42535    126188.47    -39769.01    2890.1437   -42659.154     78.81231   0.98973775 
   21700    228.52016    328.11367    126197.56   -39743.014    2843.2253    -42586.24    79.473002   0.98966642 
   21800    228.19259    310.94992    125922.14   -39727.099    2839.1497   -42566.249    79.983128    0.9918311 
   21900     231.2002     356.0715    125820.57   -39749.163    2876.5701   -42625.733    80.210077   0.99263173 
   22000     226.5638     240.1198    125947.34   -39783.677    2818.8844   -42602.561    80.610726   0.99163262 
   22100    231.69357    451.56852    125897.11   -39717.605    2882.7085   -42600.313    80.934088   0.99202826 
   22200    231.04325    366.67402    125805.97   -39731.108    2874.6173   -42605.725    81.641867   0.99274696 
   22300    231.25184     313.4247    125932.81    -39710.24    2877.2125   -42587.453    81.846253   0.99174706 
   22400    227.46964    297.60944     125826.7   -39668.375    2830.1548    -42498.53    81.887546   0.99258339 
   22500    230.37221    330.10941    125753.23   -39649.904    2866.2682   -42516.172    82.551203   0.99316332 
   22600    230.75755    192.88522    125679.55   -39606.521    2871.0626   -42477.584    82.973824   0.99374551 
   22700    234.46325    536.34801    125523.08   -39623.949    2917.1686   -42541.118    83.334875    0.9949843 
   22800    234.70466    420.07439    125545.51   -39609.459    2920.1722   -42529.631     83.52172    0.9948065 
   22900    232.19893    446.55173    125378.87    -39645.15    2888.9961   -42534.147    84.035351   0.99612874 
   23000     229.6054    334.28924    125322.18   -39616.809    2856.7277   -42473.537    84.256209   0.99657932 
   23100    228.01605     133.5339    125404.49   -39728.087    2836.9531    -42565.04    84.616625    0.9959252 
   23200    229.47332    265.87588     125302.7   -39678.353    2855.0844   -42533.437    84.492437   0.99673421 
   23300    230.22192     311.1543    125104.34   -39723.216    2864.3984   -42587.614    84.555261    0.9983146 
   23400    229.39935    317.87699    125166.83   -39643.792     2854.164   -42497.956    84.638988   0.99781622 
   23500    231.75988    350.93477    125401.38    -39670.98    2883.5336   -42554.513    85.306468   0.99594988 
   23600    233.02876     234.6896    125460.88   -39660.375    2899.3208   -42559.696    85.875173   0.99547756 
   23700    230.26783    139.66242    125464.16   -39693.573    2864.9696   -42558.543    86.360468   0.99545151 
   23800    228.73614    391.28229    125345.72   -39748.733    2845.9124   -42594.646    86.803471   0.99639213 
   23900    228.82648    184.22595    125365.41   -39767.332    2847.0365   -42614.368    87.127755   0.99623568 
   24000    229.24012    288.76172    125478.14   -39685.236    2852.1829   -42537.419    87.782167   0.99534062 
   24100    235.01325    262.45046    125492.03   -39682.757    2924.0116   -42606.769     88.09357   0.99523048 
   24200    228.19411    110.45904    125281.79   -39751.821    2839.1686    -42590.99    88.252077   0.99690063 
   24300    228.39262    361.09353     125237.6   -39718.751    2841.6384    -42560.39    88.585857   0.99725236 
   24400    224.44511    363.08004    125244.74   -39757.483    2792.5239   -42550.007    88.853353   0.99719547 
   24500    231.75602    380.85193    125321.21   -39715.885    2883.4855    -42599.37    89.299059     0.996587 
   24600    230.60031    211.87375    125566.23   -39699.908    2869.1063   -42569.014    90.086855   0.99464236 
   24700    224.01681    261.50875    125456.39   -39722.961     2787.195   -42510.156    90.351446   0.99551317 
   24800    229.32014    269.75146    125349.81   -39731.137    2853.1785   -42584.316    90.164256   0.99635961 
   24900    228.39379    381.45868    125573.82    -39680.08    2841.6529   -42521.733    90.453603   0.99458225 
   25000    229.88503    493.57795    125738.97   -39652.865    2860.2068   -42513.071    90.760009   0.99327593 
   25100    232.04919    264.99443    125671.24   -39658.041    2887.1331   -42545.174     91.07023   0.99381126 
   25200    224.92869    408.45488    125569.97   -39690.254    2798.5405   -42488.795    91.241081   0.99461272 
   25300    226.62054    377.17025    125472.86   -39702.021    2819.5904   -42521.612    91.668233   0.99538248 
   25400    231.44328    359.99703    125591.85   -39699.621    2879.5945   -42579.216    91.771477   0.99443945 
   25500     230.1153    340.39379    125515.12    -39652.86    2863.0718   -42515.932    92.222861   0.99504735 
   25600    226.71464    133.41199    125501.06   -39723.559    2820.7612    -42544.32    92.630571   0.99515886 
   25700    226.85602    344.58511    125514.85   -39739.735    2822.5202   -42562.255    93.292062    0.9950495 
   25800    229.37339    397.83063     125449.9   -39714.017     2853.841   -42567.858    93.589723   0.99556468 
   25900    227.80989    337.79441    125253.65   -39683.196    2834.3882   -42517.584    94.369467   0.99712459 
   26000    232.11651    560.67941    125303.74   -39606.233    2887.9706   -42494.203    94.725112   0.99672599 
   26100    230.05826    356.35493     125440.3   -39690.582    2862.3621   -42552.944    94.867353   0.99564085 
   26200    232.67258    310.94833    125472.41   -39681.416    2894.8892   -42576.305    95.117864    0.9953861 
   26300    233.78365    548.33055    125442.93   -39659.526     2908.713   -42568.239    95.513366   0.99562002 
   26400    236.22092     569.2838    125611.24   -39654.175    2939.0374   -42593.212    95.714163   0.99428598 
   26500    231.60197    481.75731    125702.51    -39712.47    2881.5688   -42594.039    96.348779   0.99356405 
   26600    226.70562    291.03659    125700.72   -39757.287    2820.6489   -42577.936    96.432623   0.99357816 
   26700      226.203    359.44363    125464.45   -39783.651    2814.3953   -42598.046    96.430579   0.99544928 
   26800    229.16542      454.776    125705.45   -39711.528    2851.2535   -42562.781    97.240457   0.99354076 
   26900    226.48569    263.11623    125383.69   -39710.409    2817.9125   -42528.321     97.62266   0.99609045 
   27000    225.62479    440.91409    125484.54   -39728.966    2807.2013   -42536.168    98.009921   0.99528987 
   27100    226.09697    286.71902    125568.86   -39727.117    2813.0761   -42540.193    98.562961    0.9946215 
   27200    226.19842    431.39357    125729.21   -39738.995    2814.3384   -42553.333    99.244493     0.993353 
   27300    229.63867    213.17012    125710.67   -39759.616    2857.1416   -42616.758     99.46579   0.99349951 
   27400    229.02926    435.76832     125470.7   -39682.944    2849.5595   -42532.503    99.875688   0.99539964 
   27500    230.73211    464.27835    125632.48   -39605.283    2870.7462   -42476.029    100.15661   0.99411783 
   27600    229.61529     358.5731    125862.17   -39650.115    2856.8507   -42506.966      100.689   0.99230363 
   27700    230.06393    547.22828    125833.68   -39662.443    2862.4327   -42524.875    100.87498   0.99252831 
   27800    233.34302    472.05952    125747.05   -39595.903    2903.2308   -42499.134    101.21518   0.99321209 
   27900    229.92407      336.985    125795.35    -39628.52    2860.6925   -42489.213    101.79868   0.99283078 
   28000     230.0958    545.88605     125699.9   -39679.674    2862.8291   -42542.503    102.41275   0.99358468 
   28100    231.61862    434.68458     125857.1   -39664.543     2881.776   -42546.319    102.63145   0.99234366 
   28200    225.49194    187.82307     125717.1   -39713.542    2805.5484    -42519.09    103.14705    0.9934487 
   28300    229.00284    401.08001    125851.99   -39710.586    2849.2307   -42559.816    103.39704   0.99238394 
   28400    230.17821    196.44191    125742.21   -39764.043    2863.8545   -42627.898    103.94028   0.99325029 
   28500    231.17517    346.70331    125763.64   -39818.558    2876.2586   -42694.817    104.48411   0.99308107 
   28600    228.77219    289.00491    125944.77   -39784.605     2846.361   -42630.966    105.04352   0.99165287 
   28700    227.41366    335.05473    125957.02    -39780.49    2829.4583   -42609.949    105.32536   0.99155638 
   28800    225.67564    355.87636    125814.09   -39723.204     2807.834   -42531.038    105.61032   0.99268286 
   28900    229.33338    560.99033    125645.21   -39688.167    2853.3433    -42541.51    106.10329   0.99401717 
   29000    230.67074    30.271534    125441.91   -39777.817    2869.9825   -42647.799    106.22021   0.99562814 
   29100    232.58539     396.6791    125514.35   -39719.935    2893.8044   -42613.739    106.85408   0.99505352 
   29200    230.58488     353.6969    125671.69   -39691.488    2868.9143   -42560.402    107.39581   0.99380771 
   29300    227.61769    283.39287    125690.12   -39751.406    2831.9969   -42583.403     107.3387   0.99366193 
   29400     226.6328    402.07583     125639.7   -39805.237    2819.7429    -42624.98    107.80019   0.99406073 
   29500    225.17053    293.85274    125754.65   -39810.794    2801.5494   -42612.343    107.98611   0.99315208 
   29600    233.98146    337.86559    125874.99   -39723.004    2911.1742   -42634.178    108.26964   0.99220259 
   29700    227.78161     363.3079     125987.7   -39784.828    2834.0362   -42618.864     108.5063   0.99131497 
   29800     231.3843    445.62649    126081.57   -39751.617    2878.8605   -42630.478    108.73894   0.99057693 
   29900     228.6444    306.27242    125977.67   -39780.069     2844.771    -42624.84    108.94744    0.9913939 
   30000    228.79286    383.94747    125879.31   -39750.187    2846.6181   -42596.805    109.34279   0.99216856 
   30100    227.03615     405.1008    125823.92   -39753.492    2824.7613   -42578.253    109.90783   0.99260535 
   30200    227.40776    201.91367    125623.86   -39781.327    2829.3848   -42610.711    109.98219    0.9941861 
   30300    226.99601    285.14176    125672.34   -39740.714    2824.2619   -42564.976    110.44182   0.99380258 
   30400    229.98703    395.28792    125753.81   -39725.085     2861.476   -42586.561     110.4389   0.99315873 
   30500    228.82387      342.721    125354.89   -39718.207    2847.0039   -42565.211    110.74903   0.99631928 
   30600    231.11331    158.63284    125396.45   -39689.342    2875.4889   -42564.831    110.94901   0.99598906 
   30700    231.22841    393.04487    125199.53   -39687.041     2876.921   -42563.962    110.98613   0.99755558 
   30800    234.93112    521.75983    125289.21   -39608.956    2922.9898   -42531.946    111.30938   0.99684154 
   30900    226.64729    237.93022    125366.13   -39719.668    2819.9231   -42539.592    111.21776   0.99622996 
   31000    227.00077    394.67323    125461.11   -39762.375    2824.3211   -42586.696    111.40864   0.99547573 
   31100    230.01716    281.80034    125528.72   -39768.964    2861.8508   -42630.814    112.25763   0.99493954 
   31200    230.21381    446.02774     125510.2   -39775.895    2864.2974   -42640.192    112.52256   0.99508636 
   31300    231.13783    574.27742    125874.88   -39727.642    2875.7941   -42603.436    113.46049   0.99220346 
   31400     231.8781    184.97967    125677.99   -39691.301    2885.0044   -42576.306    113.97984   0.99375783 
   31500    229.36884    348.73783     125515.4   -39729.214    2853.7844   -42582.998     114.2395   0.99504519 
   31600    229.22626    283.98758    125625.01   -39652.516    2852.0104   -42504.527    115.11983   0.99417694 
   31700    224.80041    376.90564     125440.5   -39675.788    2796.9445   -42472.733    115.20016   0.99563929 
   31800    233.80982    487.84491    125704.43   -39622.458    2909.0387   -42531.496    115.72807   0.99354887 
   31900    231.68569    380.43325    125854.74   -39628.357    2882.6104   -42510.967    116.05088   0.99236224 
   32000    235.16178    570.01316    125865.66   -39634.397    2925.8596   -42560.257    116.39013   0.99227614 
   32100    230.41035    624.18007    125987.29   -39652.231    2866.7428   -42518.973    116.81817    0.9913182 
   32200    234.87544    353.91035    125982.05   -39654.334     2922.297   -42576.631    117.43584   0.99135944 
   32300    229.43708    267.06327    125923.54   -39649.239    2854.6335   -42503.872    117.65383   0.99182001 
   32400    231.64505    310.80252    125597.18   -39710.527    2882.1048   -42592.632    117.85961   0.99439729 
   32500    228.03397    183.34415    125651.95   -39712.568    2837.1761   -42549.744    118.77923   0.99396383 
   32600    231.36839    145.36966    125557.36   -39650.049    2878.6627   -42528.711    119.46052   0.99471263 
   32700    229.84098    281.75791    125466.54   -39712.243    2859.6587   -42571.902    119.91854   0.99543265 
   32800     225.8616    142.78789     125485.7    -39752.41    2810.1477   -42562.558    120.31349   0.99528064 
   32900    226.13459    274.55214    125427.54   -39746.365    2813.5443   -42559.909    120.43275    0.9957422 
   33000    225.40043    420.88442    125201.29   -39786.244    2804.4098   -42590.654    121.15582   0.99754156 
   33100    228.30178    358.38526    125278.99   -39704.458    2840.5082   -42544.966    121.71326   0.99692285 
   33200    229.48191    357.94429    125230.33   -39742.696    2855.1912   -42597.887     122.5876   0.99731024 
   33300    230.27857    402.42604    125347.03   -39684.939    2865.1032   -42550.042    123.10818   0.99638173 
   33400    228.65568    390.23452    125017.91   -39783.434    2844.9114   -42628.345    123.29212   0.99900481 
   33500    228.71449    363.57099    125306.75   -39743.064    2845.6431   -42588.707    124.04557   0.99670202 
   33600    235.06804    261.29373    125355.81   -39722.465    2924.6933   -42647.158    124.38434   0.99631195 
   33700    229.26319    508.20643       125294   -39721.616      2852.47   -42574.086    124.66573   0.99680347 
   33800     227.5254    388.36556    125383.91    -39706.49    2830.8486   -42537.339    125.14126   0.99608867 
   33900    229.11975    417.06816    125474.77    -39707.09    2850.6853   -42557.775    125.46853   0.99536738 
   34000    232.08699    323.31434    125456.56   -39666.849    2887.6034   -42554.452    125.68566   0.99551182 
   34100     231.1179    479.68334    125380.84   -39704.199    2875.5461   -42579.745    126.05334   0.99611305 
   34200    230.67032    272.22348     125395.6   -39709.531    2869.9774   -42579.509    126.22404   0.99599578 
   34300     227.8834    406.97911    125255.11   -39763.899    2835.3027   -42599.202    126.91138    0.9971129 
   34400    228.17564    319.48622    125286.93   -39688.349    2838.9387   -42527.288    127.49691   0.99685967 
   34500    229.36628    274.81142    125622.67   -39707.182    2853.7526   -42560.935    128.25353   0.99419545 
   34600    229.32599     546.7712    125666.15   -39690.466    2853.2512   -42543.717    128.82547    0.9938515 
   34700    229.00698    368.37825    125683.77   -39763.586    2849.2822   -42612.869    129.11187   0.99371219 
   34800    227.46488    211.94005    125604.93    -39752.52    2830.0956   -42582.615    129.40116   0.99433591 
   34900    223.65605    352.47231     125817.5   -39758.879    2782.7065   -42541.586     129.8967     0.992656 
   35000    223.92744    239.68513    125572.84   -39837.683    2786.0831   -42623.766    130.11289   0.99459003 
   35100    225.78753    414.03505    125629.33   -39765.986    2809.2262   -42575.213    130.60702   0.99414281 
   35200    231.53729    342.88989     125695.9   -39786.158    2880.7641   -42666.922    130.87563   0.99361627 
   35300    229.72496    345.20969    125641.36   -39785.252    2858.2153   -42643.468    130.98255   0.99404763 
   35400    224.10296    366.41995     125814.2   -39800.214    2788.2668   -42588.481    131.21942   0.99268203 
   35500    233.39717    346.34114    125811.05   -39675.566    2903.9046   -42579.471    131.51171   0.99270684 
   35600    232.08542    322.16534    125918.52     -39713.8    2887.5838   -42601.384    132.07749   0.99185959 
   35700    233.24035    422.73913    125641.43   -39670.337    2901.9534    -42572.29    131.92266   0.99404705 
   35800    228.82277    83.845047    125813.15   -39711.892    2846.9903   -42558.882    132.48435   0.99269031 
   35900    230.99927    482.85053     125771.3   -39664.261    2874.0701   -42538.332     132.9971   0.99302057 
   36000    232.74504    413.73281     125771.6   -39627.486    2895.7908   -42523.277    132.93185   0.99301827 
   36100    232.62022    241.78928    125885.85   -39647.323    2894.2378   -42541.561    133.14112   0.99211696 
   36200    232.31468    307.42359     125931.6   -39705.104    2890.4363    -42595.54    133.31644   0.99175659 
   36300    231.87164    298.54222    125633.23   -39773.254     2884.924   -42658.178    133.52835   0.99411188 
   36400     229.4989    394.42121    125553.46   -39725.235    2855.4026   -42580.638    133.96062   0.99474355 
   36500    232.56116    377.54627    125384.48   -39712.834     2893.503   -42606.337    134.17533   0.99608412 
   36600    225.90899    162.19438    125340.85   -39851.952    2810.7373   -42662.689    134.57324   0.99643084 
   36700    226.41783    335.37121    125292.56   -39771.655    2817.0682   -42588.723    134.88325   0.99681492 
   36800    226.01942    403.86465     125347.7   -39747.896    2812.1113   -42560.008    135.15584   0.99637643 
   36900    228.60719    222.12949     125607.8   -39770.097     2844.308   -42614.405    135.73323   0.99431318 
   37000    233.56588    189.04771    125289.52   -39717.808    2906.0036   -42623.812    135.91117   0.99683907 
   37100     228.9638     223.1817    125312.63   -39689.387     2848.745   -42538.132    136.04638   0.99665522 
   37200    230.59355    303.60094    125315.09    -39746.09    2869.0221   -42615.113    136.16743   0.99663573 
   37300    225.53022    372.74349    125310.17   -39743.072    2806.0246   -42549.097    136.38094   0.99667481 
   37400    226.74238    317.27125    125414.09   -39751.491    2821.1062   -42572.598    136.97014   0.99584893 
   37500    228.74134    344.25147    125390.23   -39748.099    2845.9771   -42594.076     137.4942   0.99603846 
   37600    228.11415    117.20299    125631.23   -39687.903    2838.1737   -42526.077    138.09071   0.99412775 
   37700    227.30229      451.616    125725.05   -39683.784    2828.0726   -42511.857    138.55282   0.99338587 
   37800    226.77206     208.3635    125793.98   -39795.169    2821.4755   -42616.645    139.20815   0.99284155 
   37900    228.85949    120.36121    125759.77   -39772.717    2847.4471   -42620.165    139.34439   0.99311162 
   38000    225.70828    368.75814    125966.96   -39752.995    2808.2401   -42561.235    140.08891   0.99147816 
   38100    231.19441    332.40199    125887.43   -39715.515     2876.498   -42592.013    140.17222   0.99210452 
   38200    221.64482    162.47403    125899.03   -39723.461    2757.6829   -42481.144    140.75492   0.99201316 
   38300    232.06181    382.07652    125893.24   -39661.553    2887.2901   -42548.843    140.57404   0.99205877 
   38400    232.29705    191.70203    125835.38   -39737.744     2890.217   -42627.961    140.81087   0.99251489 
   38500     229.4013    199.72056    125671.67   -39764.336    2854.1883   -42618.525    140.78439   0.99380782 
   38600    230.40151    323.02114     125570.5   -39727.453    2866.6328   -42594.085    141.29195    0.9946085 
   38700     231.8932    251.13054    125611.28   -39730.385    2885.1922   -42615.578    141.39107   0.99428566 
   38800    229.25606    342.66226    125677.02    -39743.19    2852.3812   -42595.571    141.66673   0.99376557 
   38900    229.27626    347.69703    125874.72   -39704.028    2852.6325    -42556.66    141.76587   0.99220473 
   39000    232.20933    572.14772     125964.3   -39773.768    2889.1255   -42662.894    142.28014   0.99149908 
   39100    228.72011    264.25999     125995.7   -39731.144     2845.713   -42576.857    142.54061   0.99125204 
   39200    232.52141    226.17535    125934.33    -39758.51    2893.0084   -42651.519    142.72533   0.99173508 
   39300    227.71753    416.20811    125825.48   -39761.207    2833.2391   -42594.446    143.06191   0.99259297 
   39400    231.92724    113.32215    125827.26   -39732.371    2885.6158   -42617.986    143.44716   0.99257893 
   39500    235.01891    358.04906    125842.43   -39713.437     2924.082   -42637.519    144.05017   0.99245928 
   39600    228.68871    608.55755    125858.65   -39739.951    2845.3223   -42585.273    144.27883   0.99233144 
   39700    231.25197    357.20541    125913.26   -39676.826    2877.2141    -42554.04    144.86687   0.99190103 
   39800    231.52658    134.64538    125670.55    -39748.18    2880.6308   -42628.811    145.66245   0.99381667 
   39900    228.26985    307.40127    125687.17   -39800.484    2840.1109   -42640.595    146.09063   0.99368532 
   40000    223.28602    258.86261    125659.96   -39816.514    2778.1026   -42594.617    146.62647   0.99390045 
   40100    231.31122    436.81946    125640.83   -39696.471    2877.9514   -42574.422    146.87319   0.99405177 
   40200    231.07677    312.54835    125415.83   -39717.486    2875.0343   -42592.521    147.33781   0.99583514 
   40300    229.24667    316.40636    125281.27   -39682.842    2852.2644   -42535.107    147.26472   0.99690476 
   40400    232.30561    413.85027    125394.01   -39588.686    2890.3235   -42479.009    148.16379   0.99600845 
   40500    229.79917    351.11222    125456.14   -39602.797    2859.1385   -42461.936    148.35876   0.99551515 
   40600    231.30682    266.04234    125577.78   -39625.298    2877.8966   -42503.195    149.21176   0.99455091 
   40700    231.16088    59.297475    125490.35    -39674.74    2876.0808   -42550.821    149.60378   0.99524375 
   40800    227.42054    457.49187    125602.09   -39715.863    2829.5439   -42545.407    150.20106    0.9943584 
   40900    228.61082     339.3328    125778.37   -39753.509    2844.3532   -42597.862     150.5893   0.99296481 
   41000    232.73934    273.58894    125735.39   -39694.734    2895.7199   -42590.454    150.73446   0.99330423 
   41100    228.72611    491.87112    125530.78   -39671.805    2845.7877   -42517.593    150.39454   0.99492327 
   41200    231.38135     323.1278    125571.53   -39691.121    2878.8238   -42569.945    151.31904   0.99460036 
   41300    224.39581     229.4077    125448.42   -39836.971    2791.9105   -42628.882    151.71233   0.99557645 
   41400    226.88548    509.60911    125516.06   -39785.501    2822.8868   -42608.388    152.28221   0.99503991 
   41500    226.70109    297.52731    125458.32   -39781.102    2820.5925   -42601.695    152.37625   0.99549784 
   41600    227.67714    187.63247    125511.24    -39742.76    2832.7365   -42575.496    152.88063   0.99507817 
   41700    229.15563    353.98331    125472.57   -39705.622    2851.1317   -42556.754    153.11409   0.99538482 
   41800    223.86973    382.55628    125310.26   -39721.206     2785.365   -42506.571    153.51799   0.99667408 
   41900    231.98405    262.26626    125388.78   -39683.096    2886.3226   -42569.418    154.33111   0.99604996 
   42000    229.46301    420.71012       125253   -39672.088    2854.9561   -42527.044    154.49941   0.99712972 
   42100    228.88785    381.43834    125466.83   -39658.888       2847.8   -42506.688    155.11922   0.99543035 
   42200    229.69509     427.3805    125588.77   -39610.203    2857.8436   -42468.047    155.94135   0.99446383 
   42300    235.03996    458.48735    125518.22   -39582.089    2924.3439   -42506.433    156.30951   0.99502277 
   42400    233.78601    406.24453    125525.72   -39630.401    2908.7424   -42539.143    157.09526   0.99496336 
   42500    234.39799    213.11423    125388.99   -39655.943    2916.3567   -42572.299    157.48878   0.99604831 
   42600    231.84478    375.81209    125388.12   -39677.874    2884.5899   -42562.464    158.22499   0.99605518 
   42700    232.27566    239.11561    125451.78   -39695.583    2889.9508   -42585.534    158.78321    0.9955498 
   42800    234.76141    410.03985       125550   -39652.436    2920.8783   -42573.314    158.93444   0.99477094 
   42900    234.76495    339.31276    125537.57   -39735.966    2920.9223   -42656.888    159.24928   0.99486942 
   43000    231.06063    370.58049    125518.06   -39772.884    2874.8335   -42647.718    159.37815    0.9950241 
   43100    226.94871    377.50686    125574.34   -39727.815    2823.6734   -42551.489    160.27483   0.99457814 
   43200    229.42328     439.6549    125468.15   -39662.575    2854.4618   -42517.037    159.91139    0.9954199 
   43300    229.75941    455.97757    125581.77   -39688.944    2858.6439   -42547.588    160.16147   0.99451924 
   43400    233.61254    202.20713    125474.68   -39658.624    2906.5842   -42565.208    160.64143   0.99536805 
   43500    231.48398    150.23786    125429.63   -39680.086    2880.1008   -42560.186    161.17355    0.9957256 
   43600    232.11444    509.17321    125490.92   -39583.084    2887.9449   -42471.029    161.82386   0.99523925 
   43700    235.75178    251.86132    125686.27   -39619.343    2933.2004   -42552.543    162.79623   0.99369242 
   43800    227.75706    604.13897    125248.74   -39627.692    2833.7308   -42461.423    162.94688   0.99716368 
   43900    229.09495    406.03786    125420.39   -39662.304    2850.3767    -42512.68    163.47656   0.99579896 
   44000    226.69028    146.40661    125317.02   -39677.311     2820.458   -42497.769    163.66986   0.99662032 
   44100    233.63311    370.96372    125290.25   -39680.734      2906.84   -42587.574    163.26562   0.99683326 
   44200    224.75168    433.19207    125535.83   -39705.932    2796.3382    -42502.27    163.68736   0.99488321 
   44300    227.48278    303.41408    125461.82   -39710.297    2830.3183   -42540.616    164.08348   0.99547013 
   44400    228.26591    416.13657    125412.93   -39676.443    2840.0618   -42516.504     164.2072   0.99585814 
   44500    223.72829    436.61953    125558.16   -39695.456    2783.6053   -42479.061    164.98712   0.99470627 
   44600    224.83937    487.70608    125622.95   -39747.231    2797.4293    -42544.66    165.38199   0.99419326 
   44700    226.03095    374.69494    125483.54   -39714.899    2812.2548   -42527.154    165.46772   0.99529783 
   44800     226.1642    358.19885    125443.41   -39680.754    2813.9126   -42494.667    166.19784   0.99561619 
   44900    232.97364    168.21868    125421.03   -39638.944     2898.635   -42537.579    166.90473   0.99579386 
   45000    233.93458    366.77353    125404.47    -39665.09    2910.5909    -42575.68    167.45304   0.99592534 
   45100    235.31491    405.96771    125507.21   -39616.859    2927.7649   -42544.623    167.96754   0.99511011 
   45200    227.20103    342.63951    125378.66   -39684.916    2826.8128   -42511.729    167.81237   0.99613041 
   45300    229.12291     484.4526    125271.29    -39689.74    2850.7246   -42540.465    167.91628   0.99698419 
   45400    231.65301    378.62028    125411.83   -39663.992    2882.2039   -42546.196    168.38015   0.99586693 
   45500    230.74122    295.88852    125181.99   -39672.451    2870.8595   -42543.311    168.21329   0.99769538 
   45600    232.61102    248.91392    125299.62   -39674.824    2894.1233   -42568.947    168.73063   0.99675875 
   45700    227.87635    205.68737    125424.34   -39690.194    2835.2151   -42525.409    168.81103   0.99576758 
   45800    233.12568     277.3203    125378.59   -39626.145    2900.5267   -42526.671     169.3565   0.99613095 
   45900    232.62422    431.25856    125607.69   -39551.243    2894.2876    -42445.53    169.75541   0.99431408 
   46000      233.389    479.12739     125766.4   -39519.457    2903.8029    -42423.26    170.37465   0.99305927 
   46100    236.75196    196.56005    125508.08   -39470.308    2945.6445   -42415.953    170.98267   0.99510318 
   46200    237.58175    393.36793    125465.45    -39467.79    2955.9686   -42423.759    171.31478    0.9954413 
   46300    233.94962    201.74104    125359.88   -39486.137     2910.778   -42396.915    171.37458   0.99627964 
   46400    230.74621    346.86641     125534.5   -39522.327    2870.9215   -42393.249    172.04102   0.99489379 
   46500    232.86353    437.00305     125869.3   -39532.971     2897.265   -42430.236    172.59773   0.99224747 
   46600    230.33352    385.50908    125621.71   -39540.862    2865.7868   -42406.649    172.92682   0.99420307 
   46700    229.83064    128.02995    125218.09    -39627.08    2859.5301    -42486.61    172.94284    0.9974077 
   46800    227.71312    577.63929    124980.01   -39670.825    2833.1842   -42504.009    173.26622   0.99930773 
   46900    232.60842    282.30417    124851.81   -39593.891    2894.0909   -42487.982    173.33567    1.0003338 
   47000    228.52499    312.23632    124902.38   -39573.616    2843.2853   -42416.901    173.68952   0.99992884 
   47100    237.91582    442.80496    124732.55   -39546.324    2960.1251    -42506.45    173.72807    1.0012903 
   47200    231.98102    398.03545    124876.26   -39596.059    2886.2849   -42482.344    173.97632     1.000138 
   47300    226.22817    294.20563    124810.11   -39612.844    2814.7086   -42427.553    174.34188     1.000668 
   47400    231.73209    240.62575    124699.63   -39571.683    2883.1878   -42454.871    174.31314    1.0015547 
   47500    232.52499    443.83676    124923.17   -39524.125    2893.0529   -42417.178    174.77819   0.99976241 
   47600    232.39539     460.0744    125215.48   -39480.219    2891.4405    -42371.66    175.75796    0.9974285 
   47700    228.90853    385.90063    125288.42   -39526.439    2848.0572   -42374.496    176.69398   0.99684783 
   47800    227.77253    481.82673    125245.36   -39528.661    2833.9233   -42362.584    177.17286   0.99719059 
   47900    227.65207    335.17905    125174.72   -39617.308    2832.4246   -42449.733    177.56674   0.99775334 
   48000    225.75362   -3.0223884    125122.09   -39623.984    2808.8042   -42432.788    177.89308   0.99817296 
   48100    231.37602    374.27765    125144.56   -39587.112    2878.7576    -42465.87    178.59415   0.99799379 
   48200    226.86114    363.15715    125194.69    -39617.84    2822.5839   -42440.424    179.05638   0.99759416 
   48300    234.21954    526.64212    125415.96   -39599.121    2914.1364   -42513.258    179.18889   0.99583408 
   48400    236.20539    392.95415    125327.11   -39534.084    2938.8441   -42472.928    179.79602   0.99654007 
   48500    230.32409    189.05192    125287.91   -39608.759    2865.6696   -42474.428    180.13808   0.99685186 
   48600    229.64219    129.18649    125157.64   -39615.035    2857.1854   -42472.221    180.52125   0.99788945 
   48700    231.51952    520.78701    125189.43   -39575.979     2880.543   -42456.522    180.98397    0.9976361 
   48800    228.39282     244.6948    125034.77   -39604.447    2841.6409   -42446.088     181.3244   0.99887007 
   48900    233.89364    263.99279     125131.5   -39584.278    2910.0815   -42494.359    181.93641    0.9980979 
   49000    230.88071     446.4738    125350.46   -39624.833     2872.595   -42497.428    182.12866    0.9963545 
   49100    234.98439    247.30135    125234.23   -39630.256    2923.6525   -42553.908      182.051   0.99727921 
   49200    230.09877    405.18238     125490.1   -39666.914    2862.8662   -42529.781    182.20555   0.99524577 
   49300    226.01552    480.25052    125721.48   -39613.795    2812.0627   -42425.858    182.96338   0.99341411 
   49400    233.97007    437.95509     125899.6   -39603.714    2911.0325   -42514.747    184.01177   0.99200868 
   49500    232.56756    295.01061    125870.05    -39626.43    2893.5827   -42520.012    184.62798   0.99224149 
   49600     234.5194     326.7903    125750.27   -39625.477    2917.8671   -42543.344    184.67263   0.99318666 
   49700      229.509    292.35737    125806.64   -39639.574    2855.5283   -42495.102     185.1258   0.99274165 
   49800    230.90013     373.6081    125981.49   -39712.051    2872.8366   -42584.888    185.72583    0.9913638 
   49900    232.05117    338.84613    125818.05   -39600.596    2887.1577   -42487.753    185.94461   0.99265162 
   50000     227.1619    244.58527    125699.99   -39658.909    2826.3259   -42485.235    186.06593   0.99358395 
   50100     231.8054    440.02566    125696.39   -39670.095    2884.0998   -42554.194    186.44694   0.99361242 
   50200    228.64062    380.30148    125816.21   -39700.487     2844.724   -42545.211    187.33452    0.9926661 
   50300    230.95035    276.47121     125917.1   -39660.581    2873.4614   -42534.043    188.06751   0.99187074 
   50400    232.11383    104.81387    125660.21   -39676.506    2887.9373   -42564.443    188.67011    0.9938985 
   50500    225.54265    319.32316    125550.53   -39706.117    2806.1793   -42512.296    189.24545   0.99476673 
   50600     226.1782    177.10845    125470.76   -39729.855    2814.0868   -42543.941    189.28462   0.99539919 
   50700    226.14113    367.50568    125404.29   -39745.312    2813.6256   -42558.938    190.04229   0.99592682 
   50800    228.04846    476.21138    125317.17   -39740.697    2837.3564   -42578.053    190.13165   0.99661911 
   50900    228.33066    449.37845    125433.81   -39631.914    2840.8675   -42472.782    190.41188   0.99569238 
   51000    229.33287    297.15429    125406.91   -39658.056    2853.3369   -42511.393    190.82786   0.99590595 
   51100     223.2112    173.32157    125269.17   -39696.405    2777.1717   -42473.577    191.15333   0.99700102 
   51200    228.93519    198.99291    125215.76   -39677.394     2848.389   -42525.783    191.10478   0.99742626 
   51300    224.92691    415.18469    125283.19   -39744.793    2798.5184   -42543.312    191.59601   0.99688946 
   51400    226.74399    364.21755    125325.28   -39751.204    2821.1263   -42572.331    191.99977   0.99655465 
   51500    231.06644    477.82526    125219.05   -39763.519    2874.9059   -42638.425    192.14359   0.99740009 
   51600    227.48243    363.13566    125326.24   -39714.376     2830.314    -42544.69    192.13266   0.99654703 
   51700     229.2271    218.42484    125380.47   -39708.478     2852.021   -42560.499    192.65547   0.99611599 
   51800      228.308    390.66942    125464.03   -39749.732    2840.5856   -42590.317    193.00558    0.9954526 
   51900    225.80789    389.06875    125280.41   -39797.049    2809.4794   -42606.528    193.18298   0.99691161 
   52000    230.00255    675.86981    125384.51   -39832.301     2861.669    -42693.97    193.28988   0.99608386 
   52100    226.70362    223.97971    125752.74   -39776.249    2820.6241   -42596.873    193.94281   0.99316716 
   52200    224.78671    290.43969    125673.48   -39802.675    2796.7741   -42599.449    194.21561    0.9937935 
   52300    229.60941    324.08505    125780.83   -39778.832    2856.7775    -42635.61    194.49914   0.99294533 
   52400    235.20202    231.41404    125621.76   -39724.059    2926.3603   -42650.419    194.84699   0.99420267 
   52500    230.38305    482.46093    125583.23   -39727.676    2866.4032   -42594.079    195.00408   0.99450774 
   52600    230.75719    302.94094    125750.81   -39763.736    2871.0581   -42634.794    195.46292   0.99318242 
   52700    226.24648    386.36485    125771.39   -39778.143    2814.9364   -42593.079    195.15493   0.99301985 
   52800    227.02839     140.1855    125767.36   -39723.634    2824.6648   -42548.299    195.77908   0.99305173 
   52900     225.2184    460.82001     125922.5   -39708.537    2802.1451   -42510.682     196.1354   0.99182827 
   53000    231.65108    497.40329    125867.09   -39675.501    2882.1798   -42557.681    196.52022    0.9922649 
   53100    229.50517    320.98257    125886.57   -39719.646    2855.4807   -42575.127     197.0712   0.99211132 
   53200    227.49079    369.27717    125896.59   -39709.049    2830.4179   -42539.467    197.13129   0.99203232 
   53300    227.08163    180.27093    125615.94   -39696.086    2825.3272   -42521.413    197.53225   0.99424879 
   53400    222.24008    315.10187    125391.41   -39747.944    2765.0891   -42513.033    197.90825   0.99602912 
   53500    222.77388    305.26126    125284.77   -39747.806    2771.7306   -42519.537    198.34922   0.99687691 
   53600     226.6464    477.82903    125196.62   -39752.823    2819.9121   -42572.735    198.26433   0.99757879 
   53700    227.28413     244.0699    125275.03   -39783.297    2827.8466   -42611.144    198.73166   0.99695441 
   53800    228.87396    308.25992    125200.61   -39670.684    2847.6272   -42518.311    199.04537   0.99754699 
   53900    233.24014    242.73764       125308    -39712.63    2901.9508   -42614.581    199.68952   0.99669209 
   54000    231.84825    370.74017    125284.66   -39686.248     2884.633   -42570.881    199.93429   0.99687772 
   54100    229.24533    195.61606    125167.76   -39718.766    2852.2477   -42571.014    199.75789   0.99780876 
   54200    228.97966    337.60502    125228.41   -39704.354    2848.9423   -42553.297    200.25672   0.99732555 
   54300    227.50953    421.68426    125292.99   -39664.708    2830.6511   -42495.359    200.19168   0.99681149 
   54400     225.9904     459.0503    125245.04   -39690.913    2811.7503   -42502.664     200.6318   0.99719315 
   54500    231.71976     211.4262    125325.32   -39680.961    2883.0344   -42563.995    201.31592   0.99655434 
   54600    233.48924    111.20786     125159.7     -39585.1      2905.05    -42490.15    201.90273   0.99787305 
   54700    232.50427    459.24901    125071.04   -39609.174    2892.7952   -42501.969    202.60883   0.99858041 
   54800    232.01709     642.3574    125351.16   -39689.708    2886.7337   -42576.442     202.9208    0.9963489 
   54900    225.72538    351.58366    125234.51   -39724.488    2808.4529   -42532.941    203.50152   0.99727694 
   55000    225.07034    137.32613    125466.19   -39792.246    2800.3029   -42592.549    203.91469   0.99543544 
   55100    225.54874    381.00371    125430.12   -39762.495    2806.2551    -42568.75    203.77519    0.9957217 
   55200    229.38044    243.18487     125505.7     -39776.2    2853.9288   -42630.129    203.95161   0.99512209 
   55300    230.66653    378.23891    125254.63   -39730.643    2869.9301   -42600.573    203.83765    0.9971168 
   55400    229.04207    349.86988    125371.16   -39692.999    2849.7188   -42542.718    204.39399   0.99618997 
   55500    235.79886    440.56681       125325   -39620.404    2933.7861    -42554.19      204.807   0.99655689 
   55600    229.42114    213.96347    125447.91   -39675.162    2854.4351   -42529.597    205.17802   0.99558046 
   55700    231.99034    229.58136    125409.28   -39673.247    2886.4009   -42559.648    205.78181   0.99588719 
   55800    236.19141    140.66055    125421.05   -39679.407    2938.6702   -42618.077     205.5897   0.99579373 
   55900    233.59115    478.02111    125239.76   -39670.296     2906.318   -42576.614    205.91464   0.99723515 
   56000    233.17829    434.62042    125602.53   -39672.714    2901.1812   -42573.895    206.93483   0.99435488 
   56100    233.17771    476.65803    125860.84   -39664.295     2901.174   -42565.469    207.60011   0.99231413 
   56200    233.50051    254.67537    125968.83   -39682.637    2905.1902   -42587.827    207.97131   0.99146342 
   56300    231.33261     392.4444    125933.16   -39723.134    2878.2175   -42601.351    207.94951   0.99174428 
   56400    229.02977    513.36076    126189.07   -39701.116    2849.5657   -42550.681    208.35545   0.98973301 
   56500    227.86686    463.64752    126336.46   -39788.072     2835.097   -42623.169    209.03269   0.98857835 
   56600    230.36668    495.19341    126198.55   -39814.789    2866.1994   -42680.989    209.12808   0.98965871 
   56700     229.3803    312.86564    126050.62   -39875.829     2853.927   -42729.756    209.61749   0.99082016 
   56800    228.36734    466.80794    126080.58   -39819.207    2841.3238    -42660.53     209.9197   0.99058471 
   56900    231.79301    286.66891    126143.86   -39812.476    2883.9458   -42696.422    210.31395   0.99008776 
   57000    227.01456    443.02174    126261.25   -39759.479    2824.4927   -42583.972    210.65291   0.98916722 
   57100    231.61415    345.09776    126383.84   -39821.308    2881.7204   -42703.029    211.40329   0.98820773 
   57200    230.49957    467.74463    126622.11   -39868.418    2867.8529   -42736.271    212.07102   0.98634822 
   57300    229.13507    449.62948    126675.59   -39918.497    2850.8759   -42769.373    212.49064   0.98593176 
   57400    227.83744     222.9332    126361.77   -39927.267    2834.7309   -42761.998    212.39599   0.98838034 
   57500    222.93288    451.66177    126501.75   -39978.526    2773.7088   -42752.235    213.21543   0.98728664 
   57600    228.58529    407.09922    126586.31   -39941.464    2844.0356     -42785.5    213.03716   0.98662715 
   57700    224.52839    324.00704    126555.84   -39985.123    2793.5601   -42778.683    213.36028    0.9868647 
   57800    223.03792    264.79158       126417   -40010.175    2775.0158   -42785.191    213.59396   0.98794851 
   57900     227.5434    239.97318    126362.41   -39977.005    2831.0724   -42808.077    213.74931   0.98837533 
   58000    227.25998    427.84421    126332.63   -39964.255    2827.5462   -42791.801    213.99503   0.98860832 
   58100    226.45818    293.02645    126216.27   -39881.199    2817.5702   -42698.769    214.02421   0.98951973 
   58200    229.89685    448.21055     125988.1   -39823.958    2860.3538   -42684.312    214.29073   0.99131183 
   58300    232.09269    389.34139    126102.49   -39740.472    2887.6743   -42628.146    215.10929    0.9904126 
   58400    231.15462    332.01164    126137.29   -39735.474     2876.003   -42611.477     215.3172   0.99013932 
   58500    237.67522    380.65244       126210   -39742.967    2957.1316   -42700.099    215.88009   0.98956893 
   58600    230.34298    230.02255    126367.71   -39693.699    2865.9046   -42559.603    216.24247   0.98833392 
   58700    231.64986    287.89716       126064   -39673.055    2882.1647    -42555.22    215.89645   0.99071497 
   58800    233.26874    300.25096    125913.77   -39720.046    2902.3066   -42622.352     216.2289   0.99189699 
   58900     227.5391    214.06672    125705.43   -39771.283     2831.019   -42602.302    215.88787   0.99354094 
   59000    225.57725     494.7423    125957.85   -39746.593    2806.6098   -42553.203    216.46282   0.99154986 
   59100    230.16037    375.68429     126007.6   -39729.669    2863.6326   -42593.301    216.99654   0.99115843 
   59200    230.67847    496.14015     125830.5   -39753.591    2870.0787    -42623.67    217.21744   0.99255337 
   59300    231.05325    330.15862    126237.59   -39757.163    2874.7417   -42631.905    217.81998   0.98935262 
   59400    228.49116    411.80417    126157.12   -39803.026    2842.8644    -42645.89     218.3447   0.98998372 
   59500    229.65457     317.5332    126280.76   -39777.805    2857.3395   -42635.145    219.12577    0.9890144 
   59600    228.58201    443.43177    126086.63   -39772.333    2843.9947   -42616.327    219.01488   0.99053717 
   59700    227.96163    480.61153    126116.07   -39788.046     2836.276   -42624.322    219.50365   0.99030594 
   59800    229.19288    380.64163    125996.65   -39789.576    2851.5952   -42641.171    220.10561   0.99124453 
   59900    229.49048    204.61609    126160.05   -39783.133    2855.2979   -42638.431    220.78492   0.98996071 
   60000    228.27184    561.33472    126122.62   -39837.313    2840.1357   -42677.449    220.90511   0.99025448 
   60100    226.67764     245.6403    126423.98   -39811.816    2820.3008   -42632.117    221.60476     0.987894 
   60200    234.13909    419.48546    126156.79   -39803.615    2913.1354    -42716.75    221.42225   0.98998625 
   60300    231.49052     441.5044     125950.8   -39772.646    2880.1822   -42652.828    221.41955   0.99160538 
   60400     233.0159    272.00479    126050.64   -39715.465    2899.1608   -42614.626    221.51198   0.99081994 
   60500    231.13371    211.40331    125936.83   -39732.665    2875.7428   -42608.408    221.96661    0.9917154 
   60600    227.74231    561.03631    125846.81   -39766.478    2833.5474   -42600.026    222.17184   0.99242473 
   60700    230.39585    389.51947    126061.04   -39794.941    2866.5624   -42661.503    222.93669   0.99073823 
   60800    229.50034    381.38168    126059.36    -39750.15    2855.4205    -42605.57    223.14541   0.99075142 
   60900    231.46322    456.89436    126013.92    -39747.21    2879.8425   -42627.052    223.93025   0.99110873 
   61000    231.67057    209.71007    125963.77   -39773.418    2882.4224    -42655.84    224.19859    0.9915033 
   61100    228.29311    325.42122    125683.74   -39803.766    2840.4004   -42644.166    224.11138   0.99371244 
   61200    230.51456     265.1356     125753.7   -39789.788    2868.0393   -42657.827    224.09068   0.99315954 
   61300    229.04536    153.68126    125351.91    -39782.15    2849.7597    -42631.91    224.40391   0.99634293 
   61400    225.32009    296.14898       125395   -39823.876    2803.4103   -42627.287    224.92673   0.99600057 
   61500    228.30297    421.52213    125222.14   -39805.769     2840.523   -42646.292    225.45033    0.9973755 
   61600    230.50457    362.57335    125481.53   -39765.953     2867.915   -42633.868    225.83748   0.99531373 
   61700    225.73297    151.23795    125299.34   -39830.743    2808.5473   -42639.291    226.31593   0.99676096 
   61800    227.13035    531.33895    125387.35   -39893.903    2825.9333   -42719.836    227.07579   0.99606134 
   61900    227.05749    382.71898    125502.05   -39812.304    2825.0269    -42637.33    227.51613   0.99515098 
   62000    226.87663    409.35687    125528.37   -39765.518    2822.7766   -42588.295    227.76074   0.99494233 
   62100    229.63834    361.67207    125590.89   -39762.772    2857.1375   -42619.909    228.73322   0.99444709 
   62200    228.60872    352.81781    125583.71   -39716.116    2844.3271   -42560.443    228.85983   0.99450388 
   62300    232.77397    483.17612    125827.61   -39743.527    2896.1507   -42639.677    229.11461   0.99257616 
   62400     229.7002    338.81326    125827.15   -39703.459    2857.9071   -42561.366    229.73317   0.99257987 
   62500    231.20564     438.3374    125635.73   -39727.215    2876.6377   -42603.853    229.58785   0.99409212 
   62600     229.1599    458.57438    125766.54   -39743.262    2851.1848   -42594.446    230.20372   0.99305821 
   62700    226.98498    284.04296    125660.94   -39769.845    2824.1247   -42593.969    230.78008    0.9938927 
   62800    227.46865    377.59494    125634.98   -39741.316    2830.1424   -42571.459    231.22121   0.99409806 
   62900    231.85218    399.36302    125683.02   -39671.787     2884.682   -42556.469    231.70061   0.99371813 
   63000    233.27196    377.13065    125432.34   -39631.007    2902.3467   -42533.354    231.61604   0.99570406 
   63100    230.79914    151.23428    125165.08   -39618.001    2871.5801   -42489.581    231.95717   0.99783018 
   63200    231.06696    483.61131    125133.83   -39645.583    2874.9123   -42520.495    231.90974   0.99807932 
   63300    230.05456    247.33417    125207.67   -39673.216     2862.316   -42535.532    232.18774   0.99749073 
   63400    230.57028    312.13796     125249.2   -39606.356    2868.7326   -42475.088    233.05488   0.99716001 
   63500     231.4169   -54.109382       125141    -39699.04    2879.2661   -42578.307    233.65144   0.99802215 
   63600    227.04413    382.86912    125212.01   -39681.207    2824.8606   -42506.068    233.94579   0.99745613 
   63700    230.46342     386.6136    125437.42   -39692.195    2867.4031   -42559.598     235.1471   0.99566371 
   63800    227.88697    531.09768    125493.79   -39799.483    2835.3471    -42634.83    235.32898   0.99521654 
   63900    227.95377    360.06762     125320.7    -39808.84    2836.1783   -42645.018    235.43037   0.99659109 
   64000    226.23491    326.39308    125456.91   -39791.689    2814.7924   -42606.482    235.72078   0.99550909 
   64100    230.02526    485.29179    125556.08   -39709.231    2861.9515   -42571.182    236.01025   0.99472277 
   64200    232.36174    647.65334    125490.31   -39707.676    2891.0218   -42598.698    236.63387   0.99524412 
   64300    233.57251    449.61034    125576.52   -39596.913    2906.0861   -42502.999    237.12716    0.9945609 
   64400    230.10199     319.0401    125633.44     -39605.6    2862.9062   -42468.506    237.85442   0.99411022 
   64500     233.6394    284.79209    125520.83    -39575.47    2906.9183   -42482.389    238.16451   0.99500208 
   64600    230.16419    264.28611    125363.22   -39631.548    2863.6801   -42495.228    238.44902   0.99625302 
   64700    232.36699    434.79134    125332.04   -39645.756    2891.0872   -42536.843    238.70652   0.99650094 
   64800    231.54217    198.96774    125390.98    -39667.41    2880.8248   -42548.235    239.25229   0.99603247 
   64900    227.26602    277.27051    125451.25   -39643.042    2827.6214   -42470.663     239.8577   0.99555398 
   65000     227.9029    404.99263    125295.91   -39606.228    2835.5453   -42441.774    239.96226   0.99678823 
   65100     230.0533    268.67619    125185.96    -39636.38    2862.3004    -42498.68    239.93269   0.99766375 
   65200    232.61034    372.58058    125171.87   -39632.241    2894.1148   -42526.356    239.65383   0.99777605 
   65300    233.29811    180.58648    125048.68   -39634.336    2902.6721   -42537.008    239.80915   0.99875898 
   65400    235.67354    280.74624     125148.3   -39567.244    2932.2269   -42499.471    239.59176   0.99796393 
   65500    230.36907    482.71352     125168.9   -39633.969    2866.2292   -42500.198     239.8722   0.99779966 
   65600    229.24381    317.55766    125274.68   -39670.873    2852.2288   -42523.102    240.15068   0.99695715 
   65700    230.42354    156.31484    124967.16   -39726.395     2866.907   -42593.302     240.7651   0.99941047 
   65800    229.74011    567.64617     124999.1   -39718.293    2858.4037   -42576.697    241.85312   0.99915514 
   65900    224.24974    476.19342    125027.35    -39693.56    2790.0931   -42483.653    242.39011   0.99892939 
   66000    231.90722     358.0481    125164.54   -39580.638    2885.3667   -42466.005     243.4369   0.99783443 
   66100    232.67368    390.52148     125273.1   -39535.995    2894.9029   -42430.898     243.2684   0.99696977 
   66200    231.23811    268.04595    125258.04   -39518.223    2877.0417   -42395.265    243.56458   0.99708965 
   66300    230.24618    347.04259    125047.31   -39540.139    2864.7003   -42404.839    243.31782   0.99876988 
   66400    230.31637    168.66341    124841.38   -39585.962    2865.5735   -42451.536    243.65005    1.0004174 
   66500    227.50454    456.42206    124859.76   -39588.567     2830.589   -42419.156    244.31488    1.0002701 
   66600    228.44664    462.14707    124987.55   -39590.083    2842.3105   -42432.394    244.81724   0.99924747 
   66700    232.12089    332.35731    124791.41   -39614.358    2888.0251   -42502.383    244.87575     1.000818 
   66800    231.10004    538.02639    124777.27   -39561.134    2875.3239   -42436.458    245.44879    1.0009315 
[...]
   84600    226.69148    300.27052    125578.15   -39778.931     2820.473   -42599.404    309.39358   0.99454792 
   84700    223.78928    436.76937    125389.74   -39795.083    2784.3641   -42579.447     309.1404   0.99604237 
   84800    228.18192    388.30596    125295.71   -39758.371    2839.0168   -42597.388    309.82834   0.99678985 
   84900    231.10963    243.56188    125239.53   -39742.399    2875.4432   -42617.843     310.4913   0.99723695 
   85000    226.69027    392.94512    125220.77   -39703.246     2820.458   -42523.704    310.67985   0.99738641 
   85100     231.0448    451.66158     125275.1   -39687.944    2874.6365   -42562.581     310.8772   0.99695385 
   85200    229.61942    376.23479    125317.45   -39687.051    2856.9022   -42543.953    310.87587   0.99661695 
   85300    226.19249    346.62893    125235.89   -39721.872    2814.2647   -42536.136    311.49324   0.99726593 
   85400    227.03746    595.10073    125274.78   -39699.395    2824.7777   -42524.173    311.97327   0.99695637 
   85500    230.85483    288.08659    125400.43   -39683.978     2872.273   -42556.251    312.49587   0.99595743 
   85600    227.92998    306.02986    125604.65   -39654.645    2835.8823   -42490.528    313.38968   0.99433811 
   85700    228.94741    331.04552    125558.57   -39708.903     2848.541   -42557.444    313.34096   0.99470302 
   85800    226.78697    467.50597     125557.1   -39708.714    2821.6611   -42530.375    313.60715   0.99471471 
   85900    233.27532    240.69461     125591.2    -39617.14    2902.3884   -42519.528    313.96099   0.99444462 
   86000    228.37976    155.81539    125419.97   -39658.858    2841.4784   -42500.336    314.19138   0.99580228 
   86100    231.48931    403.44021    125366.03   -39646.178    2880.1671   -42526.345    314.59353   0.99623074 
   86200    230.28571    420.21356    125180.64    -39600.98    2865.1921   -42466.172    314.69858   0.99770609 
   86300    232.18566    395.08713    125112.94   -39616.838     2888.831   -42505.669    315.40451     0.998246 
   86400    231.62813    519.12728    125333.23    -39641.59    2881.8943   -42523.485    315.72631   0.99649146 
   86500    226.45093    385.93174    125499.46   -39625.187    2817.4801   -42442.667    316.07128   0.99517153 
   86600    233.85391    287.06307    125598.86   -39558.144    2909.5873   -42467.731    316.39623   0.99438395 
   86700    235.51295    351.99989    125362.97   -39549.777    2930.2289   -42480.006    316.46758   0.99625504 
   86800    229.42022    242.94369    125287.47   -39619.376    2854.4237     -42473.8    316.88037   0.99685538 
   86900    232.46186    226.67303    125225.44   -39576.791    2892.2675   -42469.059    316.68712   0.99734917 
   87000     235.2365    235.64106    124768.54   -39588.691    2926.7893    -42515.48    316.18694    1.0010014 
   87100     228.5376    319.16849     124988.9   -39618.526    2843.4422   -42461.968     316.9756   0.99923665 
   87200     231.9973    376.70877    125035.88   -39616.634    2886.4875   -42503.122    317.28922   0.99886123 
   87300    229.82352     526.9456    125065.58   -39628.598    2859.4416    -42488.04    317.62026   0.99862398 
   87400    231.12737    316.16712     125248.7   -39636.265    2875.6639   -42511.929    318.24391   0.99716396 
   87500     228.7329    358.40835    125179.66   -39631.697    2845.8721   -42477.569    318.81482   0.99771396 
   87600    229.99937    397.72692    125489.35   -39646.107    2861.6294   -42507.736    320.05567   0.99525174 
   87700    232.75192    338.68487    125294.76   -39654.864    2895.8764    -42550.74    319.67354   0.99679736 
   87800    230.99823    350.10463    125420.01   -39644.325    2874.0571   -42518.382    320.07916   0.99580198 
   87900    230.25441    357.21012    125517.28   -39696.465    2864.8026   -42561.267    320.91944   0.99503026 
   88000    230.65764    337.49076     125239.9   -39730.637    2869.8195   -42600.456    320.44133   0.99723404 
   88100    230.49252    187.56201    125281.15   -39665.078    2867.7651   -42532.843    320.89847   0.99690571 
   88200     234.6129    261.16201    125071.72   -39645.873    2919.0305   -42564.903    320.55055     0.998575 
   88300    231.35045    369.07556    125022.34   -39668.938    2878.4395   -42547.378    321.96208   0.99896937 
   88400    224.35333    439.59847    125171.67   -39770.992     2791.382   -42562.374    322.31175   0.99777763 
   88500    229.14622    405.85728    125355.55   -39659.876    2851.0146   -42510.891    322.82928   0.99631402 
   88600    229.57051    222.29919    125192.64   -39605.715    2856.2936   -42462.009    323.08071   0.99761049 
   88700    233.16509    324.04467    125020.72   -39584.326     2901.017   -42485.343    322.99827   0.99898235 
   88800    229.86439    428.45708    124965.66   -39526.546    2859.9501   -42386.496    323.39505   0.99942246 
   88900    233.14539    494.21772    125021.56   -39557.802    2900.7719   -42458.574    324.01784   0.99897562 
   89000    230.82709    439.81316    125134.58   -39524.849    2871.9279   -42396.777    324.82623   0.99807339 
   89100    228.03998    577.46252    125005.86   -39622.626    2837.2509   -42459.877    325.29778   0.99910109 
   89200    225.98737    236.87708    125104.76   -39671.467    2811.7125    -42483.18    325.93552    0.9983113 
   89300    233.59516    255.57408    125122.94   -39673.493    2906.3679   -42579.861    326.81304   0.99816625 
   89400    230.68715    397.26206    125062.45   -39732.329    2870.1868   -42602.515    326.68614   0.99864899 
   89500    222.58295    389.57341    125161.07   -39769.171    2769.3551   -42538.526    326.83286   0.99786213 
   89600    226.71948    68.619128    125306.79   -39828.516    2820.8213   -42649.337     327.5912   0.99670172 
   89700    223.35721    458.78901    125219.95   -39786.588    2778.9884   -42565.576     328.3795   0.99739293 
   89800    226.35416    377.09444    125064.44   -39763.661    2816.2761   -42579.937    328.48638   0.99863314 
   89900    224.94112    390.43278    125292.94   -39809.639    2798.6952   -42608.334    329.30499   0.99681185 
   90000    230.65533    357.62848    125521.19   -39727.282    2869.7908   -42597.073    330.13102   0.99499929 
   90100    223.76528    525.13867    125702.23   -39739.832    2784.0654   -42523.897     330.5012   0.99356626 
   90200    224.13223    400.41189    125779.25   -39784.489    2788.6311    -42573.12    331.35646   0.99295786 
   90300    228.42514    377.04976    125702.72   -39804.299     2842.043   -42646.341     331.6492   0.99356238 
   90400    225.88368    253.25274    125597.89   -39781.177    2810.4224   -42591.599     332.0139   0.99439167 
   90500     230.7936    534.11549     125752.7    -39746.17    2871.5111   -42617.681    331.97211   0.99316745 
   90600    232.01836    214.08424    125889.81   -39656.985    2886.7496   -42543.735    332.33137   0.99208578 
   90700    231.97807    531.66661     125848.2   -39659.498    2886.2482   -42545.746    332.12757   0.99241382 
   90800    230.04362    398.84154    125994.56   -39682.343      2862.18   -42544.523    333.33014     0.991261 
   90900    221.67943    529.38493     125971.2   -39777.919    2758.1135   -42536.032    333.38211   0.99144477 
   91000    228.63387    422.51598    126046.75   -39773.931      2844.64   -42618.571    334.31688   0.99085052 
   91100    226.13526     311.2288    125912.51   -39742.481    2813.5526   -42556.034    334.28754   0.99190696 
   91200    224.40818    283.53061       125797   -39698.692    2792.0644   -42490.757    334.26993   0.99281774 
   91300    232.61664    372.25273    125639.05   -39604.395    2894.1932   -42498.588    334.34613   0.99406589 
   91400     232.6221     404.7099    125372.34   -39583.264    2894.2611   -42477.525    334.26896   0.99618055 
   91500    230.33081    347.24753    125422.77    -39580.79    2865.7532   -42446.543    335.22723   0.99578002 
   91600    234.03464    388.60176    125536.57   -39633.943    2911.8358   -42545.779    336.09327   0.99487739 
   91700    233.23572    126.47035    125216.56   -39709.608    2901.8958   -42611.503    336.08964   0.99741988 
   91800    231.28982    149.22099    125161.68   -39679.423    2877.6851   -42557.108     336.4034   0.99785726 
   91900    228.54038    377.26991    125186.44   -39690.144    2843.4769   -42533.621    336.40389    0.9976599 
   92000    229.92878    247.72271    125046.99   -39700.107    2860.7512   -42560.858     336.0808   0.99877244 
   92100    225.86824    261.74619     125173.6   -39757.112    2810.2303   -42567.343    336.65914   0.99776227 
   92200    231.87832    330.69293    125306.95   -39690.112    2885.0071   -42575.119    337.01594   0.99670047 
   92300    230.62192      411.741    125527.06   -39600.179    2869.3752   -42469.554    337.85691   0.99495277 
   92400    232.63694    334.14331    125570.44   -39602.233    2894.4458   -42496.679    338.30748   0.99460902 
   92500    232.94068    325.17526    125481.31   -39642.767    2898.2249   -42540.992    338.44637   0.99531551 
   92600    230.07007    425.09779     125275.4   -39601.249    2862.5091   -42463.758    338.35609   0.99695141 
   92700     227.3215    392.02472    125158.68   -39576.683    2828.3116   -42404.995    338.58616   0.99788116 
   92800    227.63721    370.11547    125364.54   -39629.219    2832.2397   -42461.459    339.67654    0.9962426 
   92900    231.94031    187.50434     125344.7    -39587.78    2885.7784   -42473.559    339.67659   0.99640022 
   93000    227.59828    164.33908    125132.92   -39600.251    2831.7553   -42432.006    340.45975    0.9980866 
   93100    234.37234    433.89847    125119.38   -39534.782    2916.0375    -42450.82    340.61325   0.99819465 
   93200    231.73771    514.29865    125346.91   -39526.378    2883.2577   -42409.636    341.44568    0.9963827 
   93300    230.95056    125.24493    125206.46     -39535.4     2873.464   -42408.864    341.50233   0.99750036 
   93400    229.77309    495.32414    125136.96    -39559.14    2858.8141   -42417.954    341.71883    0.9980544 
   93500    228.84898    360.70665     125217.3   -39611.705    2847.3163   -42459.021    341.94303   0.99741404 
   93600    224.12609    124.25105    124892.61   -39684.674    2788.5546   -42473.229    342.24948    1.0000071 
   93700    230.13391    421.13964    124867.62   -39639.584    2863.3034   -42502.887    342.57736    1.0002072 
   93800     226.0106    189.24416    124972.75   -39606.371    2812.0015   -42418.372    343.88349   0.99936578 
   93900    228.52163     381.5942     125041.4   -39582.735    2843.2436   -42425.978    344.43812   0.99881709 
   94000    229.85278    282.12981    124782.69   -39597.375    2859.8056    -42457.18    344.33514     1.000888 
   94100    230.77401     409.4282    124906.25   -39620.262    2871.2675    -42491.53    344.91638   0.99989782 
   94200    230.24777    466.52599    125008.04   -39628.565      2864.72   -42493.285    344.84327   0.99908367 
   94300    232.87203    330.89301    124891.54   -39583.271    2897.3708   -42480.642    344.62716    1.0000156 
   94400    235.90695     243.5993     124971.8   -39576.469     2935.131     -42511.6    344.84963    0.9993734 
   94500    232.97334    370.82569    125053.38   -39514.021    2898.6312   -42412.652    344.85539   0.99872144 
   94600    233.15468    221.00237    125231.62   -39554.484    2900.8874   -42455.372    345.79293   0.99729998 
   94700    228.03165    266.02176    125344.42   -39596.326    2837.1473   -42433.473    346.78712   0.99640247 
   94800    232.39862    373.02886     125253.5   -39604.943    2891.4807   -42496.424    346.90307   0.99712577 
   94900    230.51107    271.99143    125495.29   -39592.299     2867.996   -42460.295    347.90835   0.99520462 
   95000    234.19294    509.81698    125270.58   -39579.664    2913.8053   -42493.469    347.53404    0.9969898 
   95100    233.54331    227.00572    125184.01   -39603.595    2905.7228   -42509.318    347.74504    0.9976793 
   95200    232.03055    373.11809     125010.7   -39629.025    2886.9011   -42515.926    346.94319   0.99906239 
   95300    234.92581    401.80331    125304.29   -39517.218    2922.9238   -42440.142    348.94481    0.9967216 
   95400    234.74243    271.98833    125216.44   -39594.985    2920.6422   -42515.627    348.57574   0.99742088 
   95500     233.3042     428.4654    125446.26   -39612.015    2902.7478   -42514.763      349.534   0.99559357 
   95600    236.39067    539.58133    125567.33   -39613.617    2941.1493   -42554.767    349.92977   0.99463364 
   95700    229.48114    376.09807    125433.97   -39677.488    2855.1817   -42532.669    350.18217   0.99569116 
   95800    228.59935    403.89847    125551.98   -39720.662    2844.2105   -42564.872    351.23422   0.99475525 
   95900    228.27045    574.49944    125548.23    -39657.38    2840.1184   -42497.499    351.54835   0.99478493 
   96000    226.36413    237.81669    125592.14   -39738.417    2816.4001   -42554.817    351.57698    0.9944372 
   96100    229.50206     357.4697       125633   -39691.712    2855.4419   -42547.154    352.33717   0.99411371 
   96200    229.74863    342.80892    125849.12   -39736.328    2858.5097   -42594.838    353.40601   0.99240657 
   96300    228.79387    327.81178    125879.52   -39690.725    2846.6307   -42537.356    353.97392   0.99216686 
   96400    229.75006    390.61667    125756.86   -39676.559    2858.5276   -42535.086    353.67307    0.9931346 
   96500    234.61161    383.69574     125695.3   -39733.407    2919.0145   -42652.421    353.97305     0.993621 
   96600    229.61421    379.81879    125566.44   -39732.597    2856.8373   -42589.434    353.56291   0.99464073 
   96700    228.54217    521.81104    125600.76   -39828.143    2843.4991   -42671.642    354.27757   0.99436891 
   96800    223.56883    317.36769    125509.46   -39889.527    2781.6213   -42671.148    354.33131   0.99509222 
   96900    229.56197    352.56115    125428.99   -39828.511    2856.1874   -42684.698    354.53585   0.99573068 
   97000     228.1066    686.19567    125604.98    -39833.08    2838.0798   -42671.159    355.75745   0.99433551 
   97100     225.9648    317.20351    125708.39   -39834.626    2811.4317   -42646.058    355.88844   0.99351755 
   97200    223.70267    318.57651    125942.22   -39833.313    2783.2864   -42616.599     356.9306   0.99167292 
   97300    222.79664    361.82357    125803.89   -39826.838    2772.0138   -42598.852    356.88414   0.99276333 
   97400    231.92374    337.39432    125817.53   -39824.192    2885.5722   -42709.764    356.63122   0.99265572 
   97500    229.98119    413.41643    125842.94    -39723.44    2861.4033   -42584.843    357.28567   0.99245525 
   97600    230.02715    253.66261       125986   -39791.167     2861.975   -42653.142    358.13503   0.99132836 
   97700    230.12115    291.44923    125723.28   -39729.632    2863.1446   -42592.776    357.31664    0.9933999 
   97800    232.73027    339.50639    125570.51   -39706.251     2895.607   -42601.858    357.14196   0.99460848 
   97900    235.32612     515.9468    125431.19   -39668.802    2927.9043   -42596.706    357.73923   0.99571321 
   98000    228.69293    456.28895    125637.95   -39693.988    2845.3748   -42539.362    358.67249    0.9940746 
   98100     230.4518    344.49504    125732.73   -39756.886    2867.2585   -42624.145    358.98466   0.99332525 
   98200    231.16266    454.54075    125846.31   -39734.183     2876.103   -42610.286    359.40985   0.99242874 
   98300    229.98918    259.06367    125691.94   -39764.339    2861.5027   -42625.842    359.12837   0.99364758 
   98400    226.76304    292.78319    125471.51   -39760.994    2821.3634   -42582.357    359.21748   0.99539324 
   98500    229.89107    336.74319    125287.75   -39757.453     2860.282   -42617.735    358.88174   0.99685314 
   98600    230.48288    411.63914    125383.61   -39781.504    2867.6452   -42649.149    359.26841   0.99609106 
   98700    226.31592    105.24411    125300.47   -39830.104    2815.8003   -42645.905     359.6055   0.99675201 
   98800    230.68005    362.13018    125318.17   -39813.225    2870.0984   -42683.323    359.95547    0.9966112 
   98900    229.75529    444.45728    125430.28   -39830.443    2858.5927   -42689.035    360.81687   0.99572043 
   99000    222.23335    178.74829    125499.35   -39879.242    2765.0053   -42644.247     360.7126   0.99517238 
   99100    224.25393     471.3004    125524.29   -39801.877    2790.1453   -42592.022    361.48157   0.99497471 
   99200    227.50377    586.47143    125648.16   -39799.058    2830.5795   -42629.637    361.93302   0.99399383 
   99300    228.46595    452.52579    125734.06   -39752.439    2842.5508   -42594.989    362.49991    0.9933147 
   99400    233.77386    429.99365    125771.09   -39722.976    2908.5913   -42631.567    363.45208   0.99302224 
   99500    234.95937    129.98304    125741.95   -39598.148    2923.3412   -42521.489    364.01052   0.99325239 
   99600    233.56787    485.02974    126008.44   -39624.721    2906.0283   -42530.749    364.48597   0.99115179 
   99700    231.75561    88.188962    125963.63   -39639.376    2883.4803   -42522.856    364.96542   0.99150437 
   99800     232.6863    372.05406    125858.36   -39654.004      2895.06   -42549.064    364.74544   0.99233372 
   99900    229.97883    298.36733    125851.04   -39697.729    2861.3739   -42559.103    365.22931   0.99239139 
  100000    229.59026    285.68763    125753.54    -39708.94    2856.5393    -42565.48    365.56868   0.99316085 
  100100    230.12401    372.51524    125551.37   -39628.322    2863.1802   -42491.502    365.86965   0.99476009 
  100200     230.8104    246.12522    125769.31   -39611.858    2871.7202   -42483.578    366.29432    0.9930363 
  100300    232.18019    484.73753    125632.26   -39586.064     2888.763   -42474.827    365.99256   0.99411962 
  100400     233.9268    388.88292    125745.97   -39636.562    2910.4941   -42547.056    366.61985    0.9932206 
  100500     234.4829    364.02139    125457.83   -39574.945    2917.4131   -42492.358    366.55211   0.99550176 
  100600    229.73318    139.53282     125233.4   -39663.041    2858.3175   -42521.359    366.11826   0.99728577 
  100630    233.34855    268.23431    125166.96   -39648.985    2903.2995   -42552.285    365.93476   0.99781519 
Loop time of 101.961 on 6 procs for 100000 steps with 4175 atoms

Performance: 423.693 ns/day, 0.057 hours/ns, 980.770 timesteps/s
98.7% CPU use with 6 MPI tasks x no OpenMP threads

MPI task timing breakdown:
Section |  min time  |  avg time  |  max time  |%varavg| %total
---------------------------------------------------------------
Pair    | 84.007     | 85.367     | 86.64      |  11.0 | 83.73
Neigh   | 5.3524     | 5.381      | 5.4236     |   0.9 |  5.28
Comm    | 7.255      | 8.519      | 9.9063     |  35.0 |  8.36
Output  | 0.16489    | 0.16598    | 0.17097    |   0.5 |  0.16
Modify  | 1.8424     | 1.8535     | 1.8632     |   0.5 |  1.82
Other   |            | 0.6744     |            |       |  0.66

Nlocal:        695.833 ave         699 max         694 min
Histogram: 1 0 3 0 0 0 1 0 0 1
Nghost:        1503.17 ave        1515 max        1497 min
Histogram: 2 2 0 0 0 0 0 1 0 1
Neighs:        0.00000 ave           0 max           0 min
Histogram: 6 0 0 0 0 0 0 0 0 0
FullNghs:      20077.3 ave       20228 max       19852 min
Histogram: 1 1 0 0 0 0 0 1 2 1

Total # of neighbors = 120464
Ave neighs/atom = 28.853653
Neighbor list builds = 5826
Dangerous builds = 0

undump              1
unfix               2
unfix               3
unfix               4


################################################
#######         Run Simulation         #########
################################################

reset_timestep      0
log                 log.run_${NAME}
log                 log.run_liquid_density_MLmW
