LAMMPS data file via write_data, version 29 Oct 2020, timestep = 800000

4175 atoms
1 atom types

-0.642680963151733 50.642680963154035 xlo xhi
-0.642680963151733 50.642680963154035 ylo yhi
-0.642680963151733 50.642680963154035 zlo zhi

Masses

1 18.015

Atoms # atomic

2147 1 50.538734803341775 1.1277359668730438 0.8746865919668783 0 1 0
578 1 1.8015073133350699 0.18542644780453243 1.0631269840536528 0 0 0
1914 1 7.4399650349791 0.29804434496210497 1.591588632077304 1 0 1
260 1 19.50500068079316 -0.07403994465987618 1.9909221202255782 0 0 0
3132 1 10.113743577678918 0.9806162831172607 1.7697384592594343 0 1 0
2382 1 15.092465445750404 0.8650703987120836 1.9086411353944697 0 1 0
2529 1 26.911653172018966 2.5598546905339665 -0.48498655765476656 0 1 0
8 1 49.302620781484286 -0.49496123689734084 10.82438245199172 0 0 0
2756 1 45.02719079186143 -0.2841906182320747 9.090031807564646 -1 1 0
1836 1 44.27693352340978 12.208429526704622 -0.2504223578268088 0 0 1
1953 1 28.64747191604698 0.6834514161962577 1.9829245204656174 0 0 1
159 1 16.68701563903013 23.57138534490495 16.255931389050815 0 0 0
1167 1 9.372034208297102 0.07107736817358479 11.808296395721479 0 0 0
1943 1 32.86396679786601 1.8888776261983913 1.808237355386841 0 0 1
639 1 36.653606345999364 -0.07198542356288862 0.6647765816489282 0 0 0
166 1 40.56571228182643 1.5277834496087452 1.8098410036136166 0 0 0
2568 1 43.2694796377145 1.0237814657630149 0.7429788929464576 0 1 0
1874 1 45.78482010583026 2.2905535348069836 0.45928139256304146 0 0 1
589 1 47.445717519930504 0.23426348216431647 1.0857926839497796 0 1 0
3652 1 12.609925730744486 -0.25824380419950427 3.174748951548859 0 1 1
4009 1 0.11104988981820452 3.9147140366114312 0.32624316316521174 1 1 1
3712 1 2.1020362797847625 4.9219714348548225 1.639725817846799 1 1 1
1118 1 43.20315140689799 24.76749789184893 15.440685359830304 0 0 0
3091 1 46.362647887425645 9.916278720451889 0.11681735448587716 -1 1 0
2056 1 12.002090634946882 5.253896130437119 0.4674762017434513 1 0 1
3345 1 14.44666379910477 4.3146853321196135 1.6858721645201995 0 1 0
1972 1 29.0870717336807 12.557421905592024 -0.46594685424456117 0 0 1
2523 1 20.774992134328507 2.2781814178469837 1.0292959056752327 0 1 0
449 1 20.114827492139927 4.580625809692375 2.39353900756307 0 0 0
3470 1 24.74291871515508 2.944652053263468 1.2956519889848357 0 1 0
4026 1 29.280032541699875 3.4525685817010032 0.6083639110829862 0 1 1
1526 1 23.89757815088703 -0.5572611881098758 3.6043596844155408 0 0 1
682 1 30.46762302799676 5.000091637823422 2.70250478526067 0 0 0
1704 1 35.471071896767604 2.311759781770058 1.4812574947938706 0 0 1
1292 1 40.253221235168176 3.434790795277105 -0.10661213192847663 0 0 1
587 1 43.83526888165255 5.539212261059599 1.1513248764774622 0 0 0
2575 1 34.429060758363924 24.030367088838073 15.945565840687436 0 0 0
2956 1 49.31416416678394 5.651174653092953 0.3905380582050464 0 1 1
2667 1 48.37968443260612 -0.575553329531719 6.878486628853026 -1 1 0
3580 1 3.6413932926867307 7.274624652265988 1.3539024351290174 1 1 1
561 1 7.936527179097283 -0.5079066306648049 9.505643517083508 0 1 0
2578 1 10.225640408254131 3.040964150026494 -0.03214336551336461 0 1 0
2208 1 4.551801234040895 24.734084345641715 8.407999709561526 1 0 0
1469 1 11.233351534987483 6.860822642905085 2.738541392262735 0 0 1
2324 1 9.73034028867573 8.937235629351887 1.572566327697524 1 0 0
4093 1 48.42768731876407 23.66496345818088 10.235642488408843 0 0 1
1551 1 16.697453443049593 8.248813901916655 1.5757406186247995 0 0 1
3614 1 18.63420390638405 6.385937926087576 0.9782201016935343 0 1 1
1161 1 20.539218097684905 8.307613772965617 0.28881720741388806 0 0 1
483 1 11.008504956169178 24.09291446880657 11.145365700569283 0 0 0
1416 1 23.9406375607846 5.599422358472387 1.3254612522509923 0 0 1
2101 1 5.359143329259816 23.476951626356595 0.5204752657361815 1 0 1
2481 1 27.23456739573404 8.404357794474466 0.25219922942147655 0 1 0
346 1 32.20619916930068 7.162644889910368 1.7327773500971535 0 0 0
2778 1 7.064223574848369 12.590661782228986 -0.17516327636741397 0 1 0
291 1 34.75852472260768 5.746991130451704 1.7210445939079064 0 0 0
3319 1 45.45511472178549 0.5113294886788369 12.011788923782323 0 1 0
3655 1 44.65913250665456 8.044541035303661 2.572664304416264 0 0 1
1082 1 13.342306531944935 21.767686162512963 14.637918946752627 0 0 0
563 1 49.853770487358666 8.244140602831148 0.677653709563808 -1 0 0
3283 1 2.5873052326038315 9.735722215857656 2.2728496436059054 1 1 0
2260 1 2.402752852921334 12.53843446482257 0.9436265486219333 0 0 0
1717 1 5.499365668104738 10.913142794771138 1.1436005046739133 0 0 1
1740 1 11.088087750651521 11.426131959680912 1.3033445990633892 0 0 1
3130 1 4.826303594617643 -0.07638681229531363 14.4527687406478 1 1 0
297 1 15.500394034183092 12.892052310399082 0.9378051233723876 0 0 0
106 1 21.380652177446756 9.673804343346184 2.520520517673181 0 0 0
909 1 23.607226176628583 11.334353584926761 1.8048041426496213 0 0 0
1978 1 24.80730489278663 9.507845452516175 -0.24911571249374975 0 0 1
199 1 28.829193276149564 10.407627172855962 1.3149031089371963 0 0 0
651 1 31.423319579770272 9.894272993804528 2.0142162393847483 -1 0 0
667 1 1.398258312477259 24.97510425020193 1.024323459765114 0 0 0
531 1 32.67382117470226 12.193239281934721 0.9106724797239787 0 0 0
425 1 36.38163592685048 11.30628063954728 3.603523661929387 0 0 0
169 1 38.25101173548432 9.995494972635452 1.8277940591893893 -1 0 0
792 1 40.84307637646117 9.00150469492756 1.499409733701464 0 0 1
809 1 43.3971145867257 10.871159267191574 1.9547449559747432 0 0 0
4122 1 39.143184428824 -0.6141591259660686 7.565746473135917 0 1 1
1986 1 48.56182817795045 9.904837563943866 2.748678850493859 0 0 1
2261 1 6.102020294177422 21.66390908805242 15.619349218406448 0 0 0
110 1 8.088118022744109 24.579795650267553 4.828266544002633 0 0 0
3514 1 49.56819063659448 14.283385912080726 1.5099379293201358 0 1 1
1025 1 8.289963188961153 14.832995401198218 0.76055392213499 1 0 0
2197 1 10.22121455398611 13.841645895994398 2.0810637888124393 0 0 0
1617 1 14.356046220832274 15.355746018770528 1.1597002451984855 0 0 1
3554 1 18.357645197655813 13.017996659409413 1.1882339948800145 0 1 1
3979 1 23.622749045461184 14.050300937954349 1.1390870994026314 0 0 1
1622 1 26.12110108048786 15.021916976332193 0.5809443932379206 0 0 1
4100 1 31.181311167659572 14.248704471860568 0.18851479157561257 0 1 1
1417 1 30.76232689611566 15.451945616538431 2.757223072293066 0 0 1
644 1 35.32432689900506 13.365645896910536 1.8708720953711104 0 0 0
1853 1 38.15054645166606 12.666831970619224 0.9818823326081827 0 0 1
76 1 40.36823134724989 14.515993544365 1.902066135244978 0 0 0
1487 1 43.19390010144713 14.756797366515146 0.7568625425929238 0 0 1
2306 1 48.438393797499124 11.627164650399402 0.2968317270937175 0 1 0
3676 1 3.6258035140795553 2.026195963760249 0.38918702141102535 1 1 1
1714 1 0.4940811387650732 16.028646730890117 1.1679457860793905 1 0 1
1792 1 15.442327611509867 2.6996287135257924 -0.30982275972392964 0 0 1
471 1 4.5886673110452225 15.508721674592017 1.8877051296655587 1 0 0
81 1 7.184672781910569 16.853136149159997 2.2685656723706575 0 0 0
1158 1 32.3991141143461 -0.576532382397868 5.717027759223573 0 0 0
907 1 11.766587331574188 16.171178243082668 2.0635433005969133 0 0 0
534 1 22.797121929426392 1.3853387679078222 -0.4070300722870425 0 0 0
671 1 32.53809203399614 -0.4658527611754782 13.473529756259914 0 0 0
296 1 19.423713967384433 17.407161788951942 0.5111528907716467 0 0 0
2167 1 18.53969075240777 15.541088265059471 2.233639769771801 0 0 0
1858 1 29.72103521016992 17.9212550147199 2.2897061791936437 0 0 1
503 1 35.80951279606672 17.683988374653232 1.1069612973076557 0 0 0
140 1 43.99972624801622 15.61635837132171 3.110289027410348 0 0 0
3872 1 47.71711332316156 16.21709288873741 0.7097755421605407 -1 0 1
1449 1 3.7315871583920988 21.602628371460916 2.1400270788959252 0 0 1
1923 1 1.0699739332222553 22.388218414534443 1.415708032992678 1 0 1
614 1 4.243286925333036 19.05205198809559 1.1230536944281784 1 0 0
222 1 7.017743054725731 19.135029049002576 1.016186702257016 1 0 0
1880 1 8.262777524442619 20.88393746187662 2.6751339883452965 1 0 1
3269 1 10.793586375193012 21.049294827092023 1.8619555806630106 0 0 1
90 1 14.57484356324779 20.63526345992513 3.283458737504766 0 0 0
1733 1 15.056960004382107 19.91723239056242 0.48463049199589503 1 0 1
3767 1 20.371251571717746 19.75530764940539 1.3665614812292417 0 0 1
1440 1 22.93176286281792 19.52303424770861 -0.5503336193444713 0 0 1
431 1 25.484350804899453 19.29959450948622 1.5160372744247348 0 0 0
2695 1 26.43705705732317 21.782531311696033 1.089535187470528 0 0 0
2810 1 21.943773680411685 24.662745202907033 8.30476413949428 0 0 0
2217 1 33.86227696063261 19.472522941701364 1.0274513989013085 0 0 0
2114 1 35.07235312193536 21.54997305974257 -0.14291322232354237 0 0 0
1279 1 40.80007621773355 20.966454098693294 -0.16371786773019809 0 0 1
47 1 39.033953810818744 20.922887460260455 2.033440284079675 0 0 0
4014 1 42.919376952265864 19.300786140677722 0.8430799406900118 0 0 1
840 1 45.430542704425775 20.646509905137894 0.4041389849531627 0 0 0
2720 1 32.48915951643936 -0.43592562236252397 3.02665274095603 0 1 0
2399 1 49.662522679867855 18.198237102113154 0.9679164564042553 0 0 0
2073 1 16.783024347446197 18.01167288331548 -0.3204429894728397 0 0 1
4002 1 8.750217151502527 8.326460482866066 15.926472944589005 1 1 0
30 1 7.829671700613568 23.114993177791753 0.9343765685539349 1 0 0
1516 1 11.626353507814272 23.950706590398482 1.7307325854400375 1 0 1
3896 1 16.821405629925046 24.360423879751522 1.4004436689688196 0 0 1
778 1 8.574792137234374 23.21681774795201 15.275856400263327 0 0 0
3662 1 23.786265497471465 23.339147558713773 0.3371701601976247 0 0 1
44 1 23.003495515232686 24.20260684156006 2.8966900814107794 0 0 0
1430 1 29.206368853681386 21.755754889210625 -0.20059360810851978 0 0 1
1669 1 31.155143896660586 23.203227304960322 1.2040413409661148 0 0 1
3178 1 33.36001265859927 23.716725428705 0.010529112642671756 0 0 1
1188 1 38.64815001556327 24.503033328825328 0.45622979305598665 0 0 1
2116 1 36.860960395918106 22.604664650367276 1.5497788297984356 -1 0 0
1554 1 13.25205839915355 24.911268073966486 4.027135998562954 0 0 1
2377 1 29.588038045205202 -0.3097919358484131 16.052476840620397 0 1 0
414 1 44.457839100961394 23.201037592382853 -0.3902162600099148 0 0 0
2121 1 1.6091416692500737 1.157922768434787 4.776716698034719 1 1 0
116 1 50.210704057935814 1.916686934040574 3.8271454375792917 -1 0 0
502 1 4.4228676870950006 0.26255182864187065 5.368494432980479 0 0 0
2201 1 5.396331384495217 2.2781461777476846 2.9074951242865645 0 1 0
3204 1 7.695355701879407 0.9978042164316983 4.5800409450642325 1 1 0
627 1 13.849703650049022 2.6512583729814105 4.043325455940436 0 0 0
361 1 2.46716410640093 22.05408673386075 13.031414473586267 1 0 0
2282 1 17.06873081977266 -0.14965890811242077 3.3216648105937328 0 1 0
1761 1 17.38535656207264 1.718412553392791 5.258649753914983 0 0 1
1797 1 0.32540280641610997 22.8778295113447 16.236407100974123 1 0 0
2366 1 30.02492691889868 18.98045021260805 -0.28315677181500776 0 0 0
2891 1 27.977028982960668 0.692720794538104 4.620399023924067 1 1 1
158 1 40.33247917791456 24.28406289093903 4.41344226433496 0 0 0
96 1 30.570526554982536 1.4339318582321519 5.670122908990341 0 0 0
114 1 36.03339221454045 18.7572501114644 16.354657273887035 0 0 0
393 1 41.71128305022217 2.590753969958774 3.932836996682859 0 0 0
438 1 43.30335956742859 0.8079261208331137 5.705922863533806 0 0 0
3895 1 45.78261388864201 1.9887446539577351 5.092852234407022 0 1 1
2894 1 47.846399083700874 0.265089641196278 4.122862817654153 0 1 0
1589 1 2.884826687130508 3.635729003279243 3.8390544895691425 0 0 1
1964 1 3.1030052397932084 5.630001726610947 5.98794719548108 1 0 1
1735 1 6.840154027082611 4.402322323225136 2.2239055281528795 1 0 1
2611 1 10.88201545072204 2.7355647686317908 3.994163002984699 0 1 0
2869 1 9.236431698609357 5.4206785109907765 3.674909712887624 0 1 0
149 1 18.574805434709408 4.215033656132556 4.704475003988243 0 0 0
115 1 22.96608634130087 4.307721296631407 5.828490197546103 0 0 0
1607 1 24.030576652537164 2.2883337752237827 3.9766878649065447 0 0 1
349 1 26.511319996703254 2.9696299881350274 5.229598022317806 0 0 0
3567 1 32.1048696256091 3.275423963435949 4.182102435305404 0 1 1
322 1 35.04061554737652 3.8974122826581734 4.9848278782336255 0 0 0
160 1 37.21423156182219 3.895461209834096 3.2072207258050143 0 0 0
1227 1 38.83581958309117 2.5686623222501717 5.2942089593361334 0 0 0
429 1 43.17916118098835 4.589063652347057 4.493058413949747 -1 0 0
1271 1 45.54637271957675 4.036409949181125 2.892261126479891 0 0 0
1840 1 47.75192028441975 5.648229189742908 2.8601050533956296 0 0 1
2090 1 49.874286302461016 4.575231755833479 4.215323829731808 -1 0 1
853 1 0.06977304967060693 6.577550527030401 2.941093752647605 0 0 1
2539 1 4.9030489082756485 7.36956889732863 5.546179636394001 0 1 0
18 1 5.8485776198579495 6.940850234344733 3.062707792697775 0 0 0
173 1 8.374908672658306 8.655050687664678 4.060474807733603 0 0 0
1017 1 9.461769487341853 6.588844973582647 6.208794231419434 0 0 0
562 1 13.114801243394915 8.19654372582426 4.064747924319396 0 0 0
1207 1 15.028265787207332 6.639209020150251 2.9304319157611665 0 0 0
1979 1 16.63714510766521 5.968792742452332 5.164389891525691 0 0 1
1719 1 22.270890791424318 5.578421976396784 3.4533775323940876 0 0 1
1575 1 26.102439848571738 6.915750679173167 2.4080013101732214 0 0 1
552 1 27.895924893582134 5.0034369832890375 3.9966148973967375 0 0 0
1935 1 30.898237189749693 8.50562311549758 6.291257340894862 -1 0 1
582 1 32.252520117215745 5.8390163474537795 5.631925208347743 0 0 0
1514 1 34.5011161978186 7.044053183068582 4.3298588500355635 0 0 1
1319 1 39.33610300958322 5.407467745137078 1.865805549430807 0 0 0
3786 1 41.78106787053031 6.743250376714375 3.2576755166569176 0 1 1
108 1 47.37328771822847 7.441901784861139 6.680592291243894 0 0 0
657 1 0.9352229619557026 8.808307218707121 4.219759993432039 0 0 0
447 1 3.3814885744909686 9.444866149047657 5.436745043232736 0 0 0
1310 1 5.003095256005624 11.439303340918414 3.6771270826811833 0 0 0
3189 1 7.52418339314846 11.041960658248051 5.0241732862193755 0 1 0
118 1 11.74129652280801 12.089405689650546 5.986412072741692 0 0 0
139 1 12.667721256081677 10.881237080816785 3.7531189515344403 0 0 0
1115 1 16.989716032333728 9.848944030775023 3.664076857614277 0 0 0
1064 1 15.014901439570757 11.826816582588892 3.4842724445683295 0 0 0
666 1 19.29811843460066 11.268812292700948 3.335967192929295 1 0 0
1918 1 22.09167547673679 8.013746044221625 4.494528414891869 0 0 1
224 1 25.05955156778099 8.615140321190276 4.516677882579719 0 0 0
1871 1 24.9453295015697 11.164108609360499 3.921706432733787 0 0 1
1916 1 27.69496089282163 11.065593970326514 3.818273753448749 0 0 1
2128 1 28.153432025818425 9.827288982541903 6.158625761818641 0 0 0
2028 1 32.0078650569864 10.415861562906752 4.540125161401025 0 0 1
420 1 34.792306815257 9.686412171918937 5.099604896963259 0 0 0
355 1 37.56696005959387 12.833329317762 5.672426399106876 0 0 0
464 1 40.97213794276922 8.276299843074561 5.342435365361813 0 0 0
3577 1 39.45861403901137 10.223374225913995 4.45703544028957 0 0 1
771 1 46.89364300325532 7.970232605884849 3.9268659029060293 0 0 0
456 1 44.64096295168152 11.093723992222179 4.4407716246979385 0 0 0
54 1 50.514852906482105 10.914512693365188 4.535305967837878 0 0 0
2343 1 49.29112450915039 11.089123026867133 7.009124698447012 -1 1 0
481 1 1.4532644925315443 14.192070174318628 5.178845794024595 1 0 0
150 1 3.378327985712006 13.471814040363823 3.1562035409943885 0 0 0
328 1 8.01381675909414 14.630224583051895 6.74920899212231 0 0 0
2995 1 9.348795845518168 13.055550529094427 4.677659729802204 0 0 0
3694 1 15.478115209693744 14.011794594919364 4.906344404653206 0 1 1
1695 1 19.6163737422196 13.199299036550677 5.455989150484292 0 0 1
410 1 24.441174280032506 15.59440493943124 4.98312867923072 0 0 0
1780 1 28.793058495115538 13.753589998174272 4.238715233724924 0 0 1
443 1 26.656645969329787 15.372622051686566 3.172822348564041 1 0 0
689 1 32.53927657607033 15.654718326229279 4.745345191351801 0 0 0
2786 1 36.28753443638765 15.053915375401493 5.395848104692452 0 1 0
841 1 34.84967433438138 15.727387309533732 3.111140414282959 0 0 0
300 1 41.15404754507458 12.470629030109333 3.640007683565038 0 0 0
1459 1 43.43711964193127 13.740375121811985 4.968883839381615 0 0 1
540 1 48.065607373601445 14.581827550950258 5.091753796737519 -1 0 0
187 1 50.43406247028987 13.568211832459959 3.9425052342289026 0 0 0
3665 1 1.2164659298463714 16.751619490777525 3.849012481938142 0 0 1
1423 1 3.763442735492493 17.46012795453213 3.3861561153344955 1 0 1
2579 1 8.854692638769775 16.054654656617064 4.294325373317984 1 0 0
622 1 11.20649482616831 17.215566045957218 4.372072913639675 0 0 0
2045 1 16.084444961081026 16.181468240761863 2.9722520328538056 0 0 1
1732 1 20.3985881207743 15.529397856441257 4.042829839640129 0 0 1
1016 1 20.174896666773144 17.487099195911245 6.226131034738438 0 0 0
802 1 23.077253790534964 18.950642234670806 2.4331028277288307 0 0 0
1789 1 22.6889070621289 16.111976506728933 2.7730406618646244 0 0 1
411 1 27.161191492806953 18.192054166101535 3.4788616861951773 0 0 0
1597 1 32.393807545976316 18.074929299216354 5.711996264581136 0 0 1
3640 1 37.99692856680903 18.528791174228417 2.349094116587654 0 0 1
279 1 40.20086425784973 16.89540182538845 3.132714180423359 0 0 0
2732 1 38.92486297348962 16.390933747692625 5.5051669840794455 0 0 0
2323 1 42.68377183002115 17.97654960136609 3.29331253673267 0 0 0
1540 1 46.74449343117612 15.969839394294365 3.223283692928366 0 0 1
2787 1 5.305192723230333 21.178652608819714 6.195046008852999 1 0 0
3681 1 11.347447755282339 21.41786623508359 6.249570016063694 0 0 1
1495 1 11.999592336631594 20.036631310083187 4.155691935576131 0 0 1
837 1 16.397530011541594 18.604785874479617 4.369875854030555 1 0 1
2165 1 18.929078276732753 19.04157443841349 3.98612722484879 0 0 0
538 1 23.709690617984947 20.029953244695005 5.06270773424369 0 0 0
1077 1 28.00904824613888 19.445833022943543 5.910510974922172 0 0 0
333 1 31.919048885153025 19.536598408530832 3.1413445135579225 0 0 0
1887 1 37.44422425434792 18.927956754733184 5.316145690481335 0 0 1
1055 1 40.14029986188786 21.564523286385192 4.389506393803795 0 0 0
4011 1 43.19990517766765 20.68145826993695 4.38745067408753 -1 0 1
2171 1 45.636143283980374 20.91119680618345 3.1093177387361077 0 0 0
33 1 47.019854597841 18.879601820577545 4.015209532938553 -1 0 0
2052 1 49.70507963172081 19.516543851064633 3.4256925727685825 -1 0 1
98 1 -0.47067594672387125 21.976024125768067 3.5980380938336722 1 0 0
457 1 0.7160732916633019 22.37127370464352 6.0930931907410555 0 0 0
2714 1 3.360497216310895 22.45391733637241 4.721750024331898 1 0 0
141 1 4.851521990294929 4.000940217150374 16.134650445090703 1 0 0
3316 1 7.871047725506736 21.927882214614623 5.161731833909637 0 0 0
1862 1 11.222767695074648 19.992648165203846 14.13693668752093 0 0 1
2950 1 18.053315302160502 -0.5963016523794941 6.9425903608403425 0 1 0
3311 1 15.67920010787926 23.044620732710193 3.6297244904395223 0 0 1
4081 1 17.55263344543619 23.22763065790168 5.751965440709639 0 0 1
1666 1 19.400801037053693 21.904108849232184 4.168125964935241 0 0 1
568 1 20.444630383384748 22.940443927264358 1.9512905624531993 0 0 0
313 1 24.346285403603055 22.902511668553032 4.816238273204834 0 0 0
2563 1 26.751863199335222 23.1003449642087 3.5218388497052446 0 0 0
994 1 16.698376194946203 22.21359644824446 -0.2691762942095319 0 0 1
2307 1 28.825747553776036 21.946437643732494 4.811184262919343 0 0 0
253 1 31.448024550693674 22.176629717732787 3.6821157273541667 0 0 0
465 1 33.69161198591557 23.30699715359267 5.170397252595768 0 0 0
2712 1 35.95303954669658 23.985483773481445 3.766063586996328 0 0 0
3996 1 26.813865158649435 -0.14094050506492517 -0.011223281458439427 0 1 1
3059 1 38.97954020768105 23.889118405557024 16.394653551283763 -1 0 0
145 1 46.58984585380901 23.40964993037333 3.886262566834395 -1 0 0
2148 1 27.732413695379254 4.929669187096958 16.42213504276082 0 1 0
41 1 1.6190057336408823 0.23961110139796915 7.504430261759069 0 0 0
1839 1 1.258322545661691 2.5629120342420046 8.856886943256486 1 0 1
3492 1 7.883350795610934 1.6098187456703923 7.620993151167699 1 1 0
53 1 5.247962735734505 1.7744773322439302 7.705763424813288 0 0 0
2134 1 10.754756681086906 2.292748099629297 6.796912533499299 0 1 0
1504 1 13.470500764500754 0.8200693673931678 7.739691583915622 0 0 1
579 1 15.107685672656153 2.6360124311158777 6.577093490756867 1 0 0
387 1 9.923042480057147 18.126521149962464 15.906171120226862 0 0 0
1602 1 25.858617806666267 0.4974150451130157 9.250985338691887 0 0 1
2225 1 35.111816901507716 -0.16574105694388164 6.680586962582876 0 1 0
3853 1 13.55855132116608 11.181229225212169 -0.19170646433067923 0 0 1
2005 1 30.505643076638272 20.723632059305476 13.836578325005062 -1 0 1
2435 1 38.60464881662704 2.085666612896753 8.568645021407015 0 1 0
3936 1 41.77577291132513 0.6545671823194295 8.014431961950528 0 1 1
1184 1 46.58169951129183 1.8535066697706202 7.815831309421808 -1 0 0
2411 1 49.6620938123277 1.1888168531956356 8.675419356663378 -1 0 0
432 1 3.3764815013604785 4.006234352820217 8.239153359022794 1 0 0
130 1 10.668109988536724 4.676698228866222 8.21935889589476 0 0 0
2844 1 12.897924840795726 4.717796989177192 10.622323734341716 0 1 0
803 1 13.618724956755942 6.486361891601231 8.539340369081 0 0 0
2688 1 15.933122244588148 4.876145609892497 8.030381840761414 0 1 0
995 1 18.019388789864532 4.089342311628095 9.856180693670298 1 0 0
819 1 20.257215077866974 4.3734108013838275 6.793854588600815 0 0 0
1372 1 26.654787006890462 3.0320397395417436 7.878987634278447 0 0 0
669 1 28.60824806114955 4.796167619166544 8.445285934109299 0 0 0
2430 1 30.657730166740716 2.9635035346809917 7.798821109330918 0 1 0
2063 1 32.556899385814596 4.619526336575848 8.351915134470621 0 0 1
415 1 35.04792536136576 4.593464958628688 8.814772710960868 -1 0 0
1843 1 36.2348006542425 2.6408433518567946 7.015266730938686 0 0 0
71 1 40.30104972893179 4.291274106152612 7.339665867183347 0 0 0
2021 1 43.044332600020745 5.267625777244082 7.037609846304382 0 0 1
581 1 43.69506406046351 2.9468567976866544 8.69144321968674 0 0 0
866 1 50.52790354452446 4.504240444953272 9.368865929627352 -1 0 0
1275 1 0.9722520118469833 6.977877688538282 6.348995237168442 0 0 0
133 1 2.1422714451853118 7.977531967744383 8.703937105427551 0 0 0
1962 1 7.192869266873945 7.495563753951988 7.5171597284563845 0 0 1
2127 1 12.098083208577332 7.491486203710078 6.485825085771417 0 1 0
342 1 16.49034921056171 8.203988970694112 8.657427771177703 0 0 0
547 1 17.598081050911755 8.416424729353682 5.947815866221884 0 0 0
2024 1 20.63133488566124 6.653466412752885 8.349590134540131 0 0 1
928 1 23.056512467330776 5.848314149715955 9.434144044659375 0 0 0
1155 1 24.819441505023693 5.24285712925363 7.4504379043705775 0 0 0
236 1 26.18630660035006 7.919323576828754 6.856999200354396 0 0 0
558 1 28.539380747094796 6.361639778700689 6.336862796266877 0 0 0
270 1 32.38787285582773 8.483176136859717 8.654921743223642 0 0 0
1425 1 35.007505186072734 8.47750496232257 8.184650596146513 0 0 1
1644 1 36.310115593671995 6.495366328676383 6.421826095883749 0 0 1
2635 1 39.085018858249505 6.804125622625373 6.589910028536584 0 0 0
4092 1 44.785770555928764 7.490130239606083 7.416147995269064 0 1 1
574 1 45.508811861447946 8.043788106628611 10.053356564772283 0 0 0
4022 1 49.747886117987136 5.7910530014306065 6.925785461511704 0 1 1
1213 1 1.1139321573872853 11.976267021514758 6.88930236334037 0 0 0
3439 1 3.4604046083778677 10.425527485855534 8.166744658879443 1 1 0
2234 1 6.24141167341397 11.22769385555801 9.290619244188747 0 1 0
1944 1 8.141568560128347 10.21368333248158 7.571975116005023 1 0 1
2303 1 10.984203373669168 9.984744488100993 7.593510150919 0 1 0
591 1 16.316510992298532 10.93899347143784 8.422956348642757 0 0 0
396 1 20.304902579750134 8.755228678963105 6.562178189872934 0 0 0
760 1 21.062299246646 10.454848591709169 8.506557939852039 0 0 1
836 1 28.620320097773202 11.902585983406116 8.083702309464856 0 0 0
1335 1 36.03467659650124 11.16976442626904 7.918084181449139 0 0 0
56 1 43.40917529475544 9.70552018952552 6.4171823803858175 0 0 0
2162 1 42.97452154800106 11.901384781639155 8.216112463912642 0 1 0
827 1 46.880674659059 12.233218949249473 6.167937558202571 -1 0 0
1647 1 45.564634046601384 12.43678354100908 8.564212043789233 0 0 1
1297 1 47.615143309132485 12.402297718173982 10.355298411643231 0 0 0
32 1 49.01766158655066 8.873435423878227 8.36428220379877 -1 0 0
2632 1 3.137684364950193 14.710447631688163 7.777244155169688 0 0 0
1667 1 5.754295109507967 13.792476324416606 8.15177639408978 0 0 1
461 1 13.466353611115856 13.909586001612992 6.842822716031175 0 0 0
409 1 14.09613105617477 12.729723902224874 9.277344015881473 0 0 0
2308 1 17.117913848421583 13.272931659362579 6.9489327681108755 0 1 0
1734 1 21.75847054708396 12.666402336910592 6.978721030337391 0 0 1
338 1 25.847352123400675 12.228711727583992 8.598129469091996 0 0 0
749 1 24.466199199385755 13.005048140913768 6.224167382054736 0 0 0
1196 1 32.686649368837735 12.85034212140487 5.795697769787851 0 0 0
1652 1 30.411083935181317 13.776460770647539 6.744520853686727 0 0 1
1375 1 33.885502014580794 12.600878440656121 8.550144628574513 0 0 0
460 1 40.0696302013363 13.853091192485762 5.720301790304848 0 0 0
1359 1 41.656533372547585 14.312470698804562 8.145755646738051 -1 0 0
598 1 45.472169666972796 15.062514443061024 9.07922332730629 -1 0 0
2675 1 49.7990547271554 13.301752028852878 8.54375014313822 -1 0 0
120 1 -0.37286638341587913 18.07754300311568 5.669350820126181 1 0 0
3255 1 3.740648741851449 17.4296507864836 7.797248010966355 0 1 0
2146 1 7.733753326482141 17.7915630560252 6.433797697506455 0 0 0
656 1 8.443960975294011 17.368549112335714 9.007262215802736 0 0 0
331 1 10.294640267744951 15.396625017722268 8.72303122597312 0 0 0
2113 1 11.86228892740452 16.22069827511269 6.798730598091374 1 0 0
1070 1 13.47984175388062 18.046743787700706 8.089205207721132 0 0 0
2470 1 16.96614558922 15.098319923737801 9.052391493390605 0 0 0
2290 1 18.158697491323526 17.555599913269834 8.3467107638105 0 0 0
249 1 22.32217434045019 16.91481608909488 8.291276041956442 0 0 0
523 1 25.08942345733402 17.06001086155657 7.855798711462212 0 0 0
89 1 30.591525286190556 15.936622161052778 8.543280293894895 0 0 0
2729 1 30.02295621902688 18.331920531198346 7.286308748246618 0 0 0
3151 1 34.93432372271463 18.851435321887454 6.739844708005719 0 1 0
3014 1 36.00520810790193 16.465698757954723 7.656920095170991 0 0 0
1779 1 38.76063108026964 17.27330433769301 8.120658629375813 -1 0 1
1234 1 43.77233315222895 15.682537518899089 7.180671792257227 0 0 0
875 1 43.33233923140872 18.32607744788464 6.526171593907597 0 0 0
2899 1 47.30345789957933 16.931795403691673 8.3762736445156 0 0 0
189 1 46.08002781401864 18.857163279288585 6.668630982930549 -1 0 0
1068 1 49.31652907019964 15.955514067885836 7.127298862135758 -1 0 0
988 1 0.36619119966015146 20.208008080369666 7.633897813443635 1 0 0
1192 1 1.672271121219731 18.85645308662011 9.415658868029913 0 0 0
478 1 5.126933316256648 18.423125984890333 5.809186604926267 0 0 0
2455 1 8.712799687834249 20.34440870007816 7.05919058515449 1 0 0
2158 1 12.105430405666329 20.41334657063379 8.741763436976271 0 0 0
1533 1 16.01490200470018 18.739639947654368 7.156152318293242 0 0 1
3635 1 16.404376609001847 21.568695724932926 7.855564406056832 0 0 1
3462 1 18.36754499904844 21.708821863236437 9.70334023797137 0 0 0
570 1 21.12332891158682 20.35919539763283 6.058323741021114 0 0 0
1759 1 25.449593540883384 19.62126426916842 7.240350708059604 0 0 1
731 1 30.325741206262258 20.42622747778974 8.946308869181602 0 0 0
451 1 34.96735346110664 21.53657848759664 6.935053878716072 0 0 0
3739 1 33.0594955416708 21.420186319466875 9.096642859143337 0 0 1
3359 1 38.74692680190312 20.85084379547235 6.575424272376411 0 1 0
2136 1 39.8212314566103 19.617175927451587 8.863466684375847 -1 0 0
2493 1 42.477532740427186 21.91857123756351 8.662692809644382 -1 0 0
144 1 42.74402195721376 19.000393680710424 9.122045502897693 0 0 0
519 1 47.06684046862322 20.858093334730324 8.294252587079677 0 0 0
1144 1 49.25034023116371 24.41616968525376 15.690147559293283 0 0 0
3696 1 4.830869139679752 21.812893844136365 8.81887507097389 0 0 1
204 1 7.6146919496441985 22.05531981072328 9.289769155833095 1 0 0
1304 1 8.839943309973533 24.424987932869147 9.341693322645371 0 0 0
1408 1 12.015892198049231 24.034237680295213 6.365924482320622 0 0 1
2798 1 14.093392803169582 23.335262572583527 8.010189710543292 0 0 0
1588 1 42.78244251955325 24.635594813943722 5.563544481878684 0 0 1
442 1 20.864291807858407 22.10644799305558 8.335669159940888 0 0 0
3808 1 25.28357741571941 21.287737972625294 9.423695657456637 0 0 1
1609 1 26.06357719841033 23.594203684205354 8.11766235306031 0 0 1
2 1 28.727082853285655 23.67599714553589 7.0791144819498895 0 0 0
230 1 31.219506464855566 23.522718830647985 8.518587534528569 0 0 0
554 1 36.97232797104764 22.696483035657643 8.491648272646533 0 0 0
2701 1 43.93368025395214 22.36062293525487 6.54064234120906 0 1 0
1775 1 26.66282812821469 19.97199347092995 15.814757367975687 0 0 1
19 1 46.51773336068363 22.90702973216871 6.493551628455166 -1 0 0
2514 1 1.7853224477999747 2.331086294711536 11.701462367894008 0 1 0
1521 1 43.911535961759085 22.98739545447542 13.23125198326021 0 0 1
83 1 4.424963289252429 1.9324920396487855 12.491317189151319 1 0 0
1313 1 5.314328070246095 0.5622719516098253 10.0860407584881 0 0 0
1949 1 9.511620750451018 2.9003569134188942 11.486867217848719 0 0 1
1363 1 0.7715849593117527 5.101450437004603 15.846177723804281 0 0 0
615 1 11.93585585457996 2.3537486621698123 10.156084507112254 0 0 0
3246 1 13.19237945268622 0.5186298256214776 12.24008538423804 1 1 0