
# Create simulation box of size 50 x 50 x 50 Angstrom
#
lattice	            sc 1
Lattice spacing in x,y,z = 1.0000000 1.0000000 1.0000000
region 	            all block 0 50 0 50 0 50 units box
create_box          1 all
Created orthogonal box = (0.0000000 0.0000000 0.0000000) to (50.000000 50.000000 50.000000)
  1 by 2 by 3 MPI processor grid

# fill box with 4175 randomly distributed atoms
#
create_atoms        1 random 4175 63782 all
Created 4175 atoms
  create_atoms CPU = 0.001 seconds
mass                1 18.015

# Define potential
#
pair_style          sw
pair_coeff          * * ML_mW.sw mW
Reading sw potential file ML_mW.sw with DATE: 2019-02-27

# Run minimization
#
minimize            1.0e-8 1.0e-8 10000 1000
WARNING: Using 'neigh_modify every 1 delay 0 check yes' setting during minimization (../min.cpp:187)
Neighbor list info ...
  update every 1 steps, delay 0 steps, check yes
  max neighbors/atom: 2000, page size: 100000
  master list distance cutoff = 6.0032907
  ghost atom cutoff = 6.0032907
  binsize = 3.0016454, bins = 17 17 17
  1 neighbor lists, perpetual/occasional/extra = 1 0 0
  (1) pair sw, perpetual
      attributes: full, newton on
      pair build: full/bin/atomonly
      stencil: full/bin/3d
      bin: standard
Per MPI rank memory allocation (min/avg/max) = 4.255 | 4.258 | 4.261 Mbytes
Step Temp E_pair E_mol TotEng Press 
       0            0    7792709.3            0    7792709.3    5898794.3 
     630            0   -45180.336            0   -45180.336   -154.07449 
Loop time of 1.16225 on 6 procs for 630 steps with 4175 atoms

98.9% CPU use with 6 MPI tasks x no OpenMP threads

Minimization stats:
  Stopping criterion = max force evaluations
  Energy initial, next-to-last, final = 
      7792709.32924461  -45180.0188663597   -45180.336116598
  Force two-norm initial, final = 2.0191930e+08 4.9721331
  Force max component initial, final = 1.0948746e+08 0.73126211
  Final line search alpha, max atom move = 0.053306038 0.038980685
  Iterations, force evaluations = 630 1000

MPI task timing breakdown:
Section |  min time  |  avg time  |  max time  |%varavg| %total
---------------------------------------------------------------
Pair    | 0.8958     | 0.99251    | 1.0636     |   5.9 | 85.40
Neigh   | 0.024117   | 0.024719   | 0.025474   |   0.3 |  2.13
Comm    | 0.054072   | 0.12503    | 0.2222     |  16.8 | 10.76
Output  | 0          | 0          | 0          |   0.0 |  0.00
Modify  | 0          | 0          | 0          |   0.0 |  0.00
Other   |            | 0.01999    |            |       |  1.72

Nlocal:        695.833 ave         704 max         685 min
Histogram: 1 1 0 0 1 0 0 1 0 2
Nghost:        1494.17 ave        1515 max        1468 min
Histogram: 1 1 0 0 0 0 1 1 1 1
Neighs:        0.00000 ave           0 max           0 min
Histogram: 6 0 0 0 0 0 0 0 0 0
FullNghs:      19997.0 ave       20462 max       19320 min
Histogram: 1 1 0 0 0 0 0 2 0 2

Total # of neighbors = 119982
Ave neighs/atom = 28.738204
Neighbor list builds = 26
Dangerous builds = 0

# Add velocity/set timestep
#
velocity            all create ${TEMP} 120598 rot yes dist gaussian
velocity            all create 210 120598 rot yes dist gaussian
timestep            5.0

# Define output
#
compute	            1 all msd
thermo	            100
thermo_style        custom step temp press vol etotal ke pe c_1[4] density

# Neighbor lists
#
neigh_modify        delay 0 every 1 check yes

# Set fixes
#
fix                 1 all momentum 10 linear 1 1 1 rescale
fix                 2 all nve
fix                 3 all temp/csvr ${TEMP} ${TEMP} 500.0 928347
fix                 3 all temp/csvr 210 ${TEMP} 500.0 928347
fix                 3 all temp/csvr 210 210 500.0 928347
fix                 4 all press/berendsen iso ${PRES} ${PRES} 1000.0 modulus 20000
fix                 4 all press/berendsen iso -250 ${PRES} 1000.0 modulus 20000
fix                 4 all press/berendsen iso -250 -250 1000.0 modulus 20000

# Run 0.5 ns equilibration
#
dump                1 all custom 1000 eq.${NAME}.dump id type x y z vx vy vz
dump                1 all custom 1000 eq.liquid_density_MLmW.dump id type x y z vx vy vz
run                 100000
Per MPI rank memory allocation (min/avg/max) = 3.506 | 3.508 | 3.511 Mbytes
Step Temp Press Volume TotEng KinEng PotEng c_1[4] Density 
     630          210    801.42152       125000   -42567.537    2612.7992   -45180.336 2.7295415e-33   0.99914793 
     700    134.13642   -198.78684    125684.81   -41763.826    1668.9121   -43432.738   0.24304732   0.99370396 
     800    163.45626   -418.93666    125871.13   -41036.161    2033.7067   -43069.868   0.55502146   0.99223306 
     900    181.60572   -43.689815     125843.6   -40630.627    2259.5204   -42890.148   0.92534181   0.99245004 
    1000    194.24352   -255.44923    126068.42   -40361.152    2416.7587    -42777.91    1.3602859   0.99068022 
    1100    202.59811    -314.1577    125999.26   -40204.113    2520.7057   -42724.818    1.8079889     0.991224 
    1200    202.61081   -237.30832    126052.47    -40244.61    2520.8637   -42765.473    2.2129406   0.99080562 
    1300    204.40598   -37.894374    126170.96   -40236.263     2543.199   -42779.462    2.5589243   0.98987506 
    1400    203.07383    0.6597384    126318.64   -40259.306    2526.6245   -42785.931    2.8180813   0.98871781 
    1500    206.55217    -349.0358    126536.71   -40221.492    2569.9017   -42791.394    3.1058022   0.98701386 
    1600    210.89688    -343.5365       126526   -40140.931    2623.9581   -42764.889    3.3514569   0.98709743 
    1700    213.45788   -217.90614    126645.28   -40188.141    2655.8218   -42843.963    3.5823577   0.98616772 
    1800    211.18114   -297.29783    126585.35    -40294.26    2627.4948   -42921.755    3.9185485   0.98663466 
    1900    208.29511   -182.05245     126773.3   -40317.322    2591.5871    -42908.91     4.237605   0.98517188 
    2000    209.53307   -232.42883    126880.05    -40285.54    2606.9898   -42892.529    4.4969232   0.98434302 
    2100    215.82381   -314.39325    127063.08   -40255.824    2685.2585   -42941.083    4.6615859   0.98292511 
    2200    214.39987   -243.29985    127066.38   -40295.951     2667.542   -42963.493    4.9854085   0.98289961 
    2300    215.57085   -212.00791    127117.59   -40304.176    2682.1112   -42986.287    5.2458407   0.98250357 
    2400    213.65192   -303.26078    127150.98   -40341.631    2658.2361   -42999.867    5.4375176   0.98224559 
    2500    214.31314   -198.42722    127104.81   -40309.719    2666.4628   -42976.181    5.6218104   0.98260236 
    2600    215.41815    -163.7096    127117.56   -40264.178    2680.2113    -42944.39    5.9785836   0.98250387 
    2700    212.25219   -124.75696    127193.47   -40293.566    2640.8208   -42934.387     6.186998   0.98191748 
    2800    213.19723   -255.03564    127248.01   -40295.727    2652.5788   -42948.305    6.4422117   0.98149659 
    2900     210.4745   -251.12258     127399.6   -40372.535    2618.7029   -42991.238    6.6014425   0.98032874 
    3000    211.56443   -227.06844    127431.52   -40411.001    2632.2637   -43043.265    6.8315898   0.98008323 
    3100    216.41977   -191.08608    127451.59   -40403.192    2692.6734   -43095.865    7.1389111   0.97992884 
    3200    209.04983   -66.512792    127482.65   -40450.153    2600.9773   -43051.131     7.410644   0.97969009 
    3300    215.12787   -310.29905    127787.84   -40453.498    2676.5997   -43130.098    7.6280077   0.97735039 
    3400    210.08772   -189.61783    127689.04   -40492.593    2613.8906   -43106.483    7.8060035   0.97810661 
    3500    207.32393   -32.506136    127871.33   -40530.137    2579.5038   -43109.641    7.9892836   0.97671221 
    3600    209.01447    -206.1361    127977.07   -40566.505    2600.5374   -43167.043    8.0832015   0.97590521 
    3700     203.4585   -361.17642    127948.94   -40628.125    2531.4106   -43159.535     8.197645   0.97611975 
    3800    207.80501   -189.86238    128137.33   -40583.151    2585.4894    -43168.64    8.4610354   0.97468467 
    3900    211.86277   -271.16498     128286.8   -40623.887    2635.9757   -43259.862    8.7417669   0.97354906 
    4000    209.24308   -433.06373    128386.33    -40631.08    2603.3817   -43234.462    8.8916719    0.9727943 
    4100    211.96928   -177.80211    128608.73   -40638.629    2637.3008   -43275.929    9.0084067   0.97111208 
    4200    213.07062   -228.43017    128591.35    -40655.79    2651.0035   -43306.793    9.1207566   0.97124335 
    4300    210.62753   -241.13072     128610.4   -40659.889    2620.6069   -43280.496    9.2434597   0.97109947 
    4400    213.93619   -108.67009    128766.07   -40651.663     2661.773   -43313.436    9.4582327   0.96992545 
    4500    209.55484     -178.236    128803.17   -40659.333    2607.2606   -43266.594    9.5865212   0.96964613 
    4600    209.37123   -270.50362    128835.57   -40721.184    2604.9761    -43326.16    9.7614082   0.96940226 
    4700    212.33696    -176.1412    128903.73   -40651.867    2641.8754   -43293.743     9.936591   0.96888968 
    4800    208.57806   -256.41416     128989.4   -40725.596    2595.1076   -43320.703     9.965307   0.96824612 
    4900    212.05714   -297.49284    129173.35   -40631.587     2638.394   -43269.981    10.054129   0.96686731 
    5000    215.25059   -320.81853    129236.41    -40618.84    2678.1265   -43296.966    10.105192   0.96639556 
    5100    211.86926     -341.268    129536.23    -40687.57    2636.0563   -43323.626    10.358819   0.96415876 
    5200     211.5302   -316.79717    129342.18    -40753.01    2631.8379   -43384.848    10.520758   0.96560524 
    5300    215.70985   -283.30366    129407.86   -40741.803    2683.8406   -43425.643    10.602057   0.96511522 
    5400    211.39641   -428.59225     129391.8    -40770.78    2630.1733   -43400.953    10.582464   0.96523494 
    5500     209.5725   -213.03525    129356.53   -40784.522    2607.4804   -43392.002    10.671194   0.96549812 
    5600    207.96326   -168.87884    129240.68   -40782.305    2587.4583   -43369.763    10.936139   0.96636361 
    5700    209.17671   -302.82733    129323.95   -40778.003     2602.556   -43380.559    10.972934   0.96574136 
    5800    207.43457    -320.4127    129300.08   -40793.157    2580.8804   -43374.037     11.16377   0.96591965 
    5900    210.15231   -271.55148    129395.53   -40813.631    2614.6943   -43428.326    11.231269   0.96520716 
    6000     210.6283     -214.612    129361.05   -40799.237    2620.6165   -43419.853    11.423332   0.96546438 
    6100    213.65134   -146.63035    129508.86   -40737.203    2658.2289   -43395.432    11.502693   0.96436253 
    6200    207.69994   -354.49509    129390.66   -40809.423    2584.1821   -43393.605    11.645596   0.96524345 
    6300    211.07324   -334.35908     129338.3   -40775.952    2626.1524   -43402.104    11.727355   0.96563426 
    6400    213.23704   -187.07081       129449   -40755.236    2653.0741    -43408.31    11.840073   0.96480843 
    6500    214.29923   -293.17154     129664.7   -40709.352    2666.2899   -43375.642    11.918092   0.96320348 
    6600     207.8924   -311.61006     129705.6   -40778.633    2586.5766    -43365.21    11.975197   0.96289975 
    6700    208.02055    -148.2469       129823   -40831.424    2588.1711   -43419.595     12.07238   0.96202903 
    6800    211.11174    -368.6553    129722.96   -40764.823    2626.6314   -43391.454    12.268984   0.96277093 
    6900    213.73925   -222.70499    129719.71   -40717.664    2659.3227   -43376.987    12.288257     0.962795 
    7000    212.71481   -480.46819    129918.31   -40723.349    2646.5766   -43369.925    12.450243   0.96132323 
    7100    213.78483   -192.92745    129765.95   -40763.197    2659.8898   -43423.087    12.515408   0.96245197 
    7200     213.2012   -326.81261     129930.7   -40835.162    2652.6283    -43487.79    12.564788   0.96123155 
    7300    208.47301   -171.09832    129986.99   -40918.975    2593.8006   -43512.775     12.88886   0.96081532 
    7400    208.11312   -257.57861    129988.93   -40954.265    2589.3229   -43543.588    12.957311   0.96080094 
    7500    206.09352   -225.23194    129912.12   -40932.534    2564.1953   -43496.729    13.041874   0.96136904 
    7600    210.83405   -100.44227    129845.41   -41023.386    2623.1764   -43646.563    13.011485   0.96186294 
    7700    208.82651   -274.79751    129958.31   -40928.259    2598.1988   -43526.458    13.325134   0.96102736 
    7800    209.21389   -361.25517    130019.06   -40904.728    2603.0185   -43507.747    13.279101    0.9605783 
    7900    206.77907   -312.61235    130187.18   -40972.872    2572.7248   -43545.597    13.355533   0.95933783 
    8000    210.85629   -343.50689    130125.11   -40954.736    2623.4532   -43578.189    13.591466   0.95979549 
    8100    208.54097   -206.92281    130008.61   -41038.015    2594.6461   -43632.661    13.667037   0.96065556 
    8200    205.90595   -119.38181    130176.77    -41054.11    2561.8614   -43615.972    13.692771   0.95941461 
    8300    209.09037   -266.62606    130206.19   -41044.548    2601.4817   -43646.029    13.764106   0.95919782 
    8400    204.77002   -179.42409    130296.46   -41002.222    2547.7284    -43549.95    13.898957   0.95853328 
    8500    210.19823    -118.8671     130319.8   -40938.851    2615.2657   -43554.117    14.057561   0.95836161 
    8600    207.93969   -359.40153    130292.35   -40956.642    2587.1651   -43543.807    14.248394   0.95856346 
    8700    209.60799   -378.34754     130135.7   -40942.473    2607.9219   -43550.395    14.338536   0.95971736 
    8800    207.25292    -402.1665    130190.57   -40978.749    2578.6204   -43557.369      14.3045   0.95931288 
    8900    207.70387   -214.25413    130327.31   -41056.678     2584.231   -43640.909    14.468474   0.95830639 
    9000    211.07299   -211.84786    130470.94   -41019.404    2626.1492   -43645.553     14.57966    0.9572514 
    9100    209.27336   -251.12274    130387.11   -41100.048    2603.7585   -43703.807    14.654037   0.95786685 
    9200    211.36746   -279.22465    130524.41    -40998.36     2629.813   -43628.173    14.630871   0.95685925 
    9300    206.62235    -342.8011    130562.12   -41049.621    2570.7748   -43620.396    14.726442   0.95658287 
    9400    207.11739   -280.71869       130404   -41016.099    2576.9341   -43593.033    14.933885   0.95774281 
    9500    207.98752   -386.89591     130443.4   -41033.696    2587.7601   -43621.456    15.047967    0.9574535 
    9600    212.51801   -367.91844    130536.11   -41003.639    2644.1281   -43647.768    15.097769   0.95677352 
    9700    212.90328   -206.37394       130611   -40945.316    2648.9216   -43594.238    15.154089    0.9562249 
    9800    211.40615   -223.88177     130625.5   -41024.866    2630.2944   -43655.161     15.11865   0.95611875 
    9900    202.96319    -259.9372    130625.72   -41107.156    2525.2479   -43632.404    15.179104   0.95611716 
   10000    206.74619   -289.26694     130708.7   -41114.799    2572.3156   -43687.115    15.200733   0.95551019 
   10100    208.91636   -282.01261     130702.4   -41096.863    2599.3167   -43696.179    15.323957   0.95555625 
   10200    207.47847   -310.71224     130727.1   -41138.002    2581.4266   -43719.429    15.382105   0.95537564 
   10300    206.00707    -55.82255    130910.65   -41136.139    2563.1196   -43699.258    15.635546   0.95403614 
   10400    209.67656   -222.33245    130901.86   -41083.542     2608.775   -43692.317    15.633344   0.95410022 
   10500    208.78521   -266.54435    130928.91   -41083.506    2597.6849   -43681.191    15.679916   0.95390307 
   10600    214.34827   -167.51402    131028.21   -41032.785       2666.9   -43699.685    15.738314   0.95318014 
   10700    212.07672   -298.50752     131113.9    -41008.51    2638.6375   -43647.148    15.795455   0.95255722 
   10800    212.11093   -148.78321    131136.93   -40981.007    2639.0632    -43620.07    15.934601   0.95238996 
   10900    210.15447   -310.12343    130943.59   -41015.404    2614.7211   -43630.126    15.982197   0.95379613 
   11000    216.91101   -257.67547    131001.65   -41004.527    2698.7853   -43703.313    15.951146   0.95337342 
   11100    209.24277    -281.7433    130983.85   -41038.966    2603.3778   -43642.344    16.073135   0.95350296 
   11200    212.70279    -232.9247    131010.75   -41033.906    2646.4271   -43680.333    16.078446   0.95330719 
   11300    212.30695   -218.62857     131164.4   -41042.818    2641.5021    -43684.32    16.266453   0.95219048 
   11400    213.99554   -105.35553    131162.31   -41065.971    2662.5114   -43728.483    16.324961   0.95220565 
   11500      208.235   -384.18927    131161.61   -41115.205    2590.8393   -43706.044    16.311859   0.95221073 
   11600    211.26808   -322.07201    131283.89     -41121.6    2628.5766   -43750.176    16.427824    0.9513238 
   11700    210.17076   -198.98094    131267.67   -41025.428    2614.9238   -43640.352     16.60244   0.95144133 
   11800    209.43123    -258.1085    131399.82   -41097.017    2605.7227    -43702.74    16.712565   0.95048447 
   11900    207.73735   -239.78409    131319.59   -41115.599    2584.6476   -43700.247    16.747965   0.95106521 
   12000    212.36369   -254.06423    131401.67   -41120.957    2642.2081   -43763.166    16.875391    0.9504711 
   12100    213.28036   -183.71486    131499.86   -41092.522    2653.6132   -43746.135    17.103342   0.94976143 
   12200    215.48476   -457.82423    131626.02   -41101.258      2681.04   -43782.298    17.136896    0.9488511 
   12300    209.20164   -201.76723    131574.68   -41131.839    2602.8662   -43734.705    17.144227   0.94922131 
   12400    213.27482    -275.1835    131675.91   -41113.931    2653.5442   -43767.475    17.054688   0.94849157 
   12500    209.39372   -376.05101    131600.65   -41214.078     2605.256   -43819.334    17.182231   0.94903403 
   12600    213.01134   -134.38946    131504.75   -41131.077     2650.266   -43781.343      17.2904   0.94972611 
   12700    211.76396   -200.29762    131412.01   -41113.964    2634.7462    -43748.71    17.300016   0.95039634 
   12800    211.94382   -254.24856    131405.71   -41095.969     2636.984   -43732.953     17.33664   0.95044186 
   12900    207.79787   -291.64914    131419.25   -41149.417    2585.4006   -43734.817    17.396701   0.95034399 
   13000    212.09545   -350.54209     131409.5   -41102.089    2638.8706    -43740.96    17.477082   0.95041447 
   13100    211.73165   -175.82353    131444.82   -41111.314    2634.3442   -43745.658    17.469736   0.95015909 
   13200    214.51319   -278.53069    131556.87   -41028.352    2668.9519   -43697.304    17.538481   0.94934985 
   13300    215.05204   -271.92762    131604.32   -41081.061    2675.6562   -43756.717    17.697769   0.94900754 
   13400    212.95303   -194.97653    131618.88   -41163.321    2649.5405   -43812.861    17.801115   0.94890254 
   13500    211.54447   -417.02164     131486.2   -41194.589    2632.0153   -43826.604    17.798103    0.9498601 
   13600     206.6916   -283.79352    131558.08   -41212.405    2571.6364   -43784.041    17.970161   0.94934108 
   13700    207.85902   -428.05806    131513.93   -41208.659    2586.1614    -43794.82    18.062017   0.94965977 
   13800    210.66812   -336.02207    131626.52   -41127.452     2621.112   -43748.564    18.025492   0.94884744 
   13900    212.05754   -263.14944    131424.76     -41175.2     2638.399   -43813.599    17.860142   0.95030413 
   14000    208.19601   -278.07139    131309.28   -41156.155    2590.3541   -43746.509    17.921215   0.95113987 
   14100     206.6102   -274.14803    131245.79   -41148.259    2570.6237   -43718.882    18.025755   0.95159997 
   14200    209.59528   -465.72925    131285.37   -41195.188    2607.7637   -43802.952    18.219832   0.95131306 
   14300    207.26136   -349.07414    131309.48   -41242.312    2578.7254   -43821.037    18.278289   0.95113839 
   14400    208.32737   -244.11109    131185.34    -41220.58    2591.9885   -43812.568    18.284057   0.95203846 
   14500    208.77411   -277.82114    131302.09   -41166.957    2597.5469   -43764.504    18.287251   0.95119198 
   14600    209.96568    -188.3205    131267.79   -41162.949    2612.3722   -43775.321    18.518244   0.95144049 
   14700    206.51054   -380.09873    131332.51   -41194.868    2569.3838   -43764.252    18.681716   0.95097166 
   14800    207.17458    -139.9378    131377.39    -41221.66    2577.6456   -43799.306    18.799574   0.95064679 
   14900    204.78911    -236.4679     131359.5   -41277.877    2547.9659   -43825.842    18.813757   0.95077621 
   15000    205.76399   -169.16675    131347.83   -41269.444    2560.0952   -43829.539    18.802438   0.95086068 
   15100    204.61903   -306.99942     131464.7    -41292.07    2545.8497    -43837.92    18.849794   0.95001544 
   15200    209.40171   -239.38281    131546.34   -41237.187    2605.3553   -43842.542    18.825424   0.94942581 
   15300    206.78213   -181.40452    131688.99    -41254.45    2572.7628   -43827.213    18.910914   0.94839736 
   15400    205.16288   -298.95074    131612.77   -41245.567    2552.6163   -43798.183     18.85623    0.9489466 
   15500    212.17187   -267.02046    131652.69   -41237.952    2639.8214   -43877.774    18.874449   0.94865883 
   15600    212.10223   -244.90156    131628.99   -41197.567    2638.9549   -43836.522    19.107424   0.94882968 
   15700    206.00604   -229.43861     131584.3   -41292.963    2563.1068   -43856.069    19.156103   0.94915193 
   15800    212.24548   -315.51233    131709.92   -41282.469    2640.7373   -43923.207    19.145403   0.94824666 
   15900    205.99671   -227.39985    131572.32    -41325.29    2562.9907    -43888.28     19.06753   0.94923837 
   16000     207.7206   -239.81115    131527.69   -41258.446    2584.4392   -43842.885    19.174735   0.94956047 
   16100    212.08707   -213.91648    131620.85   -41206.366    2638.7663   -43845.132    19.267651   0.94888838 
   16200    208.78369   -162.53167     131725.8   -41256.943     2597.666   -43854.609     19.38933   0.94813231 
   16300     211.9334   -115.00902    131830.77   -41280.851    2636.8544   -43917.705    19.501637    0.9473774 
   16400    212.94857   -356.29384    131723.08   -41195.112    2649.4851   -43844.597    19.463063   0.94815195 
   16500    208.88474   -321.09817    131603.01   -41200.354    2598.9232   -43799.277    19.501698   0.94901698 
   16600    211.80775   -270.82864    131590.56    -41189.37     2635.291   -43824.662    19.767098   0.94910675 
   16700    209.31457   -158.36468    131620.32   -41218.393    2604.2712   -43822.664    19.532495   0.94889214 
   16800    214.39309   -155.41318    131696.68   -41209.423    2667.4577   -43876.881    19.610466   0.94834202 
   16900    213.13156   -272.84905    131892.87   -41184.939    2651.7618   -43836.701    19.598407   0.94693135 
   17000     212.6634   -218.89538    131819.86   -41203.525     2645.937   -43849.462    19.747728   0.94745583 
   17100    213.77459   -152.45175    131819.26   -41124.287    2659.7623   -43784.049    19.882403   0.94746012 
   17200    213.20671   -365.38023    131769.02   -41134.344    2652.6969   -43787.041    20.119852   0.94782134 
   17300    208.20109    -91.49325    131772.75    -41193.65    2590.4173   -43784.068    20.123068   0.94779455 
   17400    210.22044   -350.70151    131840.47   -41215.806    2615.5419   -43831.348    20.117432   0.94730768 
   17500    209.43446   -224.78607    131763.49   -41199.184    2605.7629   -43804.947    20.182775   0.94786111 
   17600    209.12546   -234.59458     131687.5   -41180.931    2601.9183   -43782.849    20.104486    0.9484081 
   17700    210.39628   -263.51947    131702.79   -41196.863    2617.7297   -43814.593    20.190708     0.948298 
   17800    214.02329   -145.20772    131772.87   -41206.256    2662.8566   -43869.113     20.19296   0.94779364 
   17900    214.76086   -161.75678    131975.83   -41174.935    2672.0334   -43846.968    20.324147   0.94633609 
   18000    211.55605   -404.38493    131854.29   -41127.273    2632.1594   -43759.432    20.313814    0.9472084 
   18100    211.61066   -330.62533    131778.08   -41226.894    2632.8389   -43859.733    20.237092   0.94775617 
   18200    208.02395   -423.26287    131564.09   -41222.759    2588.2134   -43810.972    20.257029   0.94929771 
   18300    214.44258   -222.17647    131692.97   -41136.238    2668.0734   -43804.312    20.289534   0.94836873 
   18400    212.63327   -171.71388    131705.36   -41198.343    2645.5622   -43843.905    20.206346   0.94827952 
   18500    210.64903   -251.72649    131869.33   -41157.133    2620.8744   -43778.007    20.347761   0.94710041 
   18600    210.69561   -240.08895    131859.02   -41210.265    2621.4539   -43831.719    20.339633   0.94717441 
   18700    210.65159   -147.27574    131901.09    -41178.56    2620.9062   -43799.467    20.439448   0.94687229 
   18800    214.68618   -217.14539    131900.67   -41172.753    2671.1042   -43843.857    20.657978   0.94687536 
   18900    210.35999   -213.74275    131991.28   -41204.005    2617.2782   -43821.283     20.78557   0.94622533 
   19000    211.71243   -249.56897     132209.8   -41183.256    2634.1051   -43817.362    20.689244    0.9446614 
   19100     210.2899   -252.15761    132369.42   -41238.948    2616.4062   -43855.355    20.734175   0.94352222 
   19200     212.1067   -439.18198    132439.43   -41209.019    2639.0106   -43848.029    20.813627   0.94302349 
   19300     214.9112   -217.60406    132506.05   -41165.681    2673.9039   -43839.585    20.711792   0.94254938 
   19400    214.06463   -175.98895    132628.17   -41185.899     2663.371    -43849.27    20.860803   0.94168147 
   19500    213.04179   -226.72975    132594.73   -41186.996    2650.6449   -43837.641    20.942874     0.941919 
   19600    207.98448   -447.13934    132691.06   -41230.025    2587.7224   -43817.748     21.12228   0.94123518 
   19700    212.03415    -262.4496    132556.57   -41217.728    2638.1079   -43855.836    21.223195   0.94219016 
   19800    211.33899   -249.04999    132487.54   -41265.202    2629.4588   -43894.661    21.308102   0.94268106 
   19900    211.25919    -182.0751    132546.14   -41268.094     2628.466    -43896.56    21.331349   0.94226427 
   20000    210.93269   -149.75975    132464.55   -41313.015    2624.4037   -43937.418    21.364558   0.94284467 
   20100    210.18003   -283.58809    132501.31   -41265.245    2615.0392   -43880.284    21.458824   0.94258309 
   20200    212.67862   -289.96331    132421.92   -41326.784    2646.1264   -43972.911    21.486778    0.9431482 
   20300     209.3242   -250.12849    132382.83   -41354.994     2604.391   -43959.385    21.553309   0.94342664 
   20400     209.6518   -339.25359    132328.25   -41354.194     2608.467   -43962.661    21.649413   0.94381576 
   20500    211.02909   -141.54506     132356.7   -41328.411    2625.6031   -43954.014    21.745011   0.94361291 
   20600    208.98437   -276.79689    132354.31   -41366.938    2600.1629     -43967.1    21.680196   0.94362999 
   20700    213.06934   -198.47666    132536.94   -41311.818    2650.9877   -43962.805    21.828642   0.94232969 
   20800    212.05184   -305.92737    132483.69    -41312.26     2638.328   -43950.588    21.893571    0.9427084 
   20900    212.05354   -411.55483    132271.92   -41350.849    2638.3492   -43989.198    21.838142    0.9442177 
   21000    208.76991   -271.04666    132225.01   -41443.664    2597.4946   -44041.159    21.918523   0.94455269 
   21100    205.70368   -131.00912    132249.66   -41451.279    2559.3449   -44010.624    21.968296   0.94437662 
   21200    203.16301   -182.18503    132357.73   -41424.335    2527.7341   -43952.069    21.980274   0.94360557 
   21300    203.29961   -262.21016    132397.71   -41426.092    2529.4337   -43955.526    21.986568    0.9433206 
   21400    211.24624   -238.82772    132486.01   -41384.569    2628.3048   -44012.874    22.030805   0.94269189 
   21500    210.91491   -210.51936    132745.17   -41366.691    2624.1824   -43990.873    22.040016   0.94085148 
   21600    212.17269   -336.73801    132848.47   -41319.219    2639.8316    -43959.05    22.156411   0.94011989 
   21700    213.48356   -174.33671    132794.97   -41302.085    2656.1414   -43958.226    22.167774   0.94049869 
   21800    210.63665   -284.40833    132815.13    -41293.49    2620.7204   -43914.211    22.332771   0.94035589 
   21900    206.16966   -405.36522    132864.14   -41318.761    2565.1426   -43883.904    22.230607   0.94000904 
   22000    207.03328   -293.72216    132795.55   -41359.027    2575.8876   -43934.914    22.207669   0.94049453 
   22100    212.86327   -127.22793    132790.61   -41315.246    2648.4238    -43963.67    22.393876   0.94052956 
   22200    210.54601   -295.32107    132852.01   -41347.792    2619.5926   -43967.384    22.509347   0.94009487 
   22300     212.3381   -342.26394    132715.49   -41333.124    2641.8897   -43975.014    22.424214   0.94106189 
   22400    214.44695   -289.14773    132830.43   -41300.001    2668.1277   -43968.129    22.561438   0.94024762 
   22500    213.97604   -266.30776    132775.58   -41328.041    2662.2687    -43990.31    22.658022     0.940636 
   22600    215.31437   -237.55617    132712.45   -41309.931    2678.9201   -43988.851    22.614702   0.94108346 
   22700    209.92849   -256.78408    132723.17   -41325.818    2611.9095   -43937.727    22.765309   0.94100741 
   22800    214.77863   -181.24956    132850.18   -41324.255    2672.2545    -43996.51    22.763744   0.94010777 
   22900     211.2559   -282.81933    132630.64   -41370.832     2628.425   -43999.257     22.84957   0.94166393 
   23000    209.51928   -125.94504    132701.64   -41348.232    2606.8181    -43955.05    22.684708   0.94116015 
   23100    209.88202   -265.79892    132887.51   -41453.239    2611.3314    -44064.57    22.660643    0.9398437 
   23200    209.60801   -354.96771    132906.09   -41401.033    2607.9222   -44008.955    22.773247   0.93971232 
   23300    211.51441   -410.99725    132990.94   -41454.624    2631.6414   -44086.265    22.949132   0.93911281 
   23400     210.9915   -191.56508    132884.65   -41389.692    2625.1354   -44014.827    22.995996   0.93986397 
   23500    211.07355   -291.96377     132801.8   -41429.683    2626.1562    -44055.84    23.010273    0.9404503 
   23600     212.1266   -261.21922     132763.7    -41423.06    2639.2582   -44062.318    23.004543   0.94072016 
   23700    210.51726   -271.37485    132740.64   -41460.521     2619.235   -44079.756     22.97657   0.94088361 
   23800    207.79069   -232.23601    132737.61   -41519.744    2585.3112   -44105.055    22.895424   0.94090511 
   23900    207.29404   -209.64676    132863.66   -41538.043     2579.132   -44117.175    23.033874   0.94001245 
   24000    207.98751   -205.51443    132889.17   -41470.679    2587.7601   -44058.439    23.049598   0.93983199 
   24100    207.79888   -223.94024    132710.81   -41463.358    2585.4131   -44048.771    23.104477   0.94109508 
   24200    213.05975    -231.1174    132630.94   -41511.752    2650.8684   -44162.621    23.008032   0.94166183 
   24300    209.08276   -318.40778    132719.03   -41488.089    2601.3871   -44089.476    23.054638   0.94103679 
   24400    204.83619   -373.00484    132730.24   -41533.966    2548.5516   -44082.518     23.13299   0.94095733 
   24500    211.66169   -172.99602    132719.85   -41489.817    2633.4738    -44123.29     23.27155   0.94103101 
   24600    206.58766   -235.62859    132755.27   -41484.374    2570.3433   -44054.717    23.226651   0.94077991 
   24700    205.65677   -344.62723    132787.39   -41506.819    2558.7611    -44065.58    23.181514   0.94055238 
   24800    208.58909   -455.95082    132839.78   -41512.326    2595.2449   -44107.571    23.304879   0.94018142 
   24900    213.10293   -209.81995    132868.69   -41470.224    2651.4056   -44121.629    23.392965   0.93997683 
   25000    213.58862   -231.68528    132862.26   -41460.681    2657.4485    -44118.13    23.458926   0.94002236 
   25100    209.62696   -275.81237    132907.44   -41469.794    2608.1579   -44077.951    23.515471   0.93970281 
   25200     208.6654   -309.94487    133021.95   -41513.454    2596.1943   -44109.648    23.540852   0.93889385 
   25300    208.97479   -169.95697     133011.6   -41517.921    2600.0437   -44117.965    23.423395   0.93896691 
   25400    211.32147   -211.43565    133012.09   -41518.173    2629.2408   -44147.414    23.403059   0.93896345 
   25500    212.23044   -49.526928    133015.17   -41481.294    2640.5501   -44121.844    23.600825   0.93894168 
   25600    211.65916   -320.91495       132990   -41556.959    2633.4423   -44190.402    23.634457   0.93911945 
   25700    203.74078   -252.61749    132992.96    -41564.59    2534.9226   -44099.513    23.682851    0.9390985 
   25800     205.3253   -402.58025    132939.34   -41551.712    2554.6371   -44106.349    23.577004   0.93947732 
   25900    214.41103   -188.83632    132991.03   -41497.983    2667.6809   -44165.664    23.707883   0.93911217 
   26000    213.74303   -178.32067    133081.92   -41431.918    2659.3697   -44091.288    23.622285   0.93847076 
   26100    210.75743   -237.14248    133108.74   -41511.392    2622.2231   -44133.615    23.673175   0.93828167 
   26200    209.81833   -297.83474    133054.79   -41502.203     2610.539   -44112.742    23.758671    0.9386621 
   26300    208.47477   -268.57822    132880.56   -41467.758    2593.8225   -44061.581    23.607128   0.93989287 
   26400    208.95835   -166.66152    132891.85    -41453.57    2599.8391   -44053.409    23.803118   0.93981304 
   26500    209.33502   -415.23205    132937.55   -41504.336    2604.5256   -44108.861    23.661861   0.93948992 
   26600    211.26856   -143.88568    133190.24   -41555.482    2628.5825   -44184.065    23.692301   0.93770754 
   26700     207.4522    -174.8796    133108.12   -41591.675    2581.0998   -44172.775    23.624284   0.93828601 
   26800    207.37767   -370.59151    133179.97   -41524.973    2580.1724   -44105.146     23.73379   0.93777984 
   26900     214.5862   -237.09941    133018.53   -41517.724    2669.8603   -44187.584    23.734488   0.93891802 
   27000    204.24769   -350.27032    132974.73   -41549.842    2541.2296   -44091.071    23.811699   0.93922729 
   27100    205.01286   -224.72244    133058.26   -41547.096    2550.7498   -44097.845    23.833802   0.93863764 
   27200     205.2761   -425.80274    133181.49   -41558.886    2554.0249   -44112.911    23.883341   0.93776914 
   27300    207.50884   -275.19479    133098.52   -41588.551    2581.8045   -44170.356    23.836976   0.93835375 
   27400    206.66867   -169.60752    133305.97   -41536.747    2571.3512   -44108.098    23.916067   0.93689347 
   27500    208.16841   -260.67082    133347.44    -41479.09    2590.0108   -44069.101     23.96249   0.93660209 
   27600    209.76174   -177.49003    133326.26   -41518.611    2609.8349   -44128.446    24.052342   0.93675087 
   27700    209.32925   -222.43899     133367.3   -41520.784    2604.4539   -44125.238    24.129563   0.93646262 
   27800    213.59446   -330.21842    133259.57   -41467.114    2657.5211   -44124.635    23.879297   0.93721965 
   27900    212.15495   -228.99313    133443.09   -41492.063    2639.6109   -44131.674    24.101359   0.93593072 
   28000    212.17626   -446.78256    133336.09   -41529.616     2639.876   -44169.492    24.106314   0.93668179 
   28100    211.30653    -390.2863    133498.39   -41507.188    2629.0549   -44136.243    24.017374   0.93554307 
   28200    207.84585   -292.32257    133444.49   -41554.726    2585.9976   -44140.724    24.041311    0.9359209 
   28300    205.56666   -291.91271    133412.57   -41540.761      2557.64   -44098.401    24.219672   0.93614485 
   28400    209.02592   -397.57244    133387.06   -41583.931    2600.6799   -44184.611    24.293606   0.93632392 
   28500    209.26251   -198.02314    133188.06   -41605.789    2603.6234   -44209.412    24.150688   0.93772288 
   28600    213.35408   -156.92204    133350.23   -41563.981    2654.5304   -44218.511    24.213837   0.93658247 
   28700      208.812   -220.42418    133336.24   -41560.679    2598.0182   -44158.697    24.341403   0.93668075 
   28800    212.50909   -188.80167    133251.23   -41522.462    2644.0171    -44166.48    24.277754   0.93727831 
   28900     211.0573   -218.95574    133349.31   -41478.525    2625.9541   -44104.479    24.468777   0.93658897 
   29000    208.29071   -359.09151    133406.41    -41553.78    2591.5324   -44145.312    24.452703    0.9361881 
   29100    210.89891   -326.07981    133551.05     -41496.5    2623.9834   -44120.483     24.55805   0.93517413 
   29200    212.58866   -133.35119    133411.83   -41472.659    2645.0071   -44117.666    24.455784   0.93615003 
   29300    208.83048   -276.08017    133348.25   -41535.883    2598.2482   -44134.131    24.526239   0.93659638 
   29400    207.63392   -296.78472    133370.47   -41583.681    2583.3607   -44167.042    24.580493   0.93644038 
   29500    209.53608   -328.74101    133174.97   -41604.118    2607.0272   -44211.145     24.62127   0.93781508 
   29600      207.591   -356.95796    133253.84   -41510.921    2582.8267   -44093.747    24.698355   0.93725999 
   29700    207.23008   -107.50345    133218.73   -41555.963    2578.3362   -44134.299    24.768665   0.93750698 
   29800    212.66607   -387.90756    133193.79   -41527.081    2645.9702   -44173.052    24.808265   0.93768254 
   29900    208.58765    -156.7478    133150.09   -41557.689    2595.2269   -44152.915    24.713614   0.93799027 
   30000    211.44638   -278.06913    133117.84   -41541.595    2630.7949    -44172.39    24.745245   0.93821755 
   30100    209.64814    -185.9003    133288.04   -41550.299    2608.4215   -44158.721      24.7025   0.93701946 
   30200    205.74798   -309.12484    133230.37   -41575.263     2559.896   -44135.159     24.70986   0.93742506 
   30300    211.22146   -169.53865    133192.87   -41550.987    2627.9966   -44178.984    24.711369   0.93768904 
   30400    210.89592   -267.46086    133380.44   -41523.751    2623.9462   -44147.697    24.873374   0.93637037 
   30500    209.80136   -304.99521    133402.58   -41537.565    2610.3278   -44147.893    24.949975   0.93621496 
   30600    209.05959   -422.68936    133297.48   -41524.081    2601.0987    -44125.18    25.057745   0.93695312 
   30700    206.19866   -150.63053    133288.51   -41531.762    2565.5034   -44097.265    25.028962    0.9370162 
   30800    214.26257   -133.08547    133296.26   -41473.814    2665.8337   -44139.647    25.153187   0.93696172 
   30900     205.9248   -310.90596    133343.33   -41584.193     2562.096   -44146.289    25.033795   0.93663093 
   31000    207.26434   -379.13318    133379.16   -41623.084    2578.7624   -44201.847    25.208124   0.93637933 
   31100    209.57871   -238.39816    133389.39   -41615.298    2607.5576   -44222.856    25.205474   0.93630752 
   31200    208.50065   -301.50132    133446.31   -41633.745    2594.1445   -44227.889    25.136738   0.93590815 
   31300    207.21087    -225.9481     133452.8   -41588.976    2578.0972   -44167.073    25.147817   0.93586264 
   31400    209.81077   -296.05917    133554.08   -41558.475    2610.4448    -44168.92    25.191091   0.93515297 
   31500    206.29219    -271.8709    133514.38   -41610.214     2566.667   -44176.881     25.30804   0.93543104 
   31600    213.35658   -177.87842    133510.03   -41534.373    2654.5614   -44188.934    25.258284   0.93546149 
   31700    209.91257   -274.94133    133396.56   -41578.946    2611.7115   -44190.657    25.210696   0.93625719 
   31800    213.17668    -286.8573    133463.78   -41518.743    2652.3232   -44171.066    25.287332   0.93578566 
   31900    209.44536   -225.11734    133412.95   -41506.164    2605.8984   -44112.062      25.4209   0.93614217 
   32000    214.21997   -229.32797    133382.15   -41511.856    2665.3036   -44177.159    25.261094   0.93635839 
   32100     211.9871   -129.97848    133477.29   -41528.129    2637.5225   -44165.651    25.297393   0.93569096 
   32200    210.16709   -327.65085     133461.7   -41534.463    2614.8782   -44149.341    25.418522   0.93580027 
   32300    210.95173   -196.79164    133467.46   -41526.598    2624.6406   -44151.238    25.532596   0.93575989 
   32400    207.18269   -365.32658    133453.22   -41584.468    2577.7466   -44162.214     25.46826   0.93585973 
   32500    209.26954   -226.74983    133331.78   -41591.684     2603.711   -44195.395    25.498358   0.93671207 
   32600    213.05637   -262.56022    133227.26   -41536.336    2650.8263   -44187.163     25.37849   0.93744695 
   32700    207.09908   -247.12712    133261.14   -41592.995    2576.7062   -44169.701    25.355863   0.93720864 
   32800    206.89318    -173.0502     133393.5   -41627.671    2574.1445   -44201.816    25.579387   0.93627868 
   32900    210.76955   -266.28501     133364.2   -41632.288     2622.374   -44254.662    25.582476   0.93648437 
   33000    207.25893   -191.95905    133344.92   -41677.793    2578.6951   -44256.488    25.636961   0.93661981 
   33100    210.38959   -332.32328    133335.93    -41601.97    2617.6465   -44219.616    25.614667   0.93668292 
   33200    208.25316   -268.12657    133286.04   -41644.379    2591.0652   -44235.444    25.654932   0.93703352 
   33300    210.38547   -264.80551    133278.82   -41581.279    2617.5953   -44198.874    25.682677    0.9370843 
   33400    210.55047   -95.192927    133225.26   -41665.089    2619.6481   -44284.737    25.906255   0.93746106 
   33500    210.23115   -344.07543    133291.07   -41643.267    2615.6752   -44258.942    25.799789   0.93699821 
   33600    209.29685   -298.43055    133308.15   -41618.721    2604.0508   -44222.772    25.755803   0.93687811 
   33700    210.81569    -69.11142    133419.88   -41618.684     2622.948   -44241.632    25.704403   0.93609355 
   33800    206.95404   -306.66202    133564.67   -41613.526    2574.9016   -44188.428    25.774055   0.93507877 
   33900      208.639   -233.46034    133410.78   -41624.273    2595.8658   -44220.138    25.771343   0.93615744 
   34000    212.35851   -323.17463    133444.41    -41600.56    2642.1436   -44242.704      25.8514   0.93592146 
   34100    211.86031   -240.86175    133441.56   -41633.474     2635.945   -44269.419    25.894847   0.93594146 
   34200    209.19611   -276.01115    133331.61   -41637.778    2602.7973   -44240.575    25.962547   0.93671327 
   34300    205.45964    -158.6712    133395.85   -41682.057    2556.3085   -44238.366     25.88211   0.93626221 
   34400    208.47591   -310.46703    133393.96   -41613.574    2593.8367   -44207.411    25.751954   0.93627546 
   34500      209.118   -216.32056    133509.17   -41627.769    2601.8254   -44229.594    25.825087   0.93546753 
   34600    209.75697   -118.55532    133613.11     -41615.4    2609.7755   -44225.176    25.824926   0.93473977 
   34700    205.72521   -380.61318    133778.77   -41690.248    2559.6128   -44249.861    25.921184    0.9335823 
   34800    209.35822   -240.69472    133503.38   -41669.642    2604.8143   -44274.456    25.959531   0.93550807 
   34900    205.20494   -388.44479    133537.13   -41682.283    2553.1396   -44235.422    26.082933   0.93527166 
   35000    200.35337    -297.9611    133579.84   -41745.786    2492.7768   -44238.563    26.225547   0.93497263 
   35100    206.47794   -321.27875    133584.67   -41680.119    2568.9781   -44249.097    26.265471   0.93493882 
   35200    207.27373    -276.8711    133628.59   -41681.872    2578.8792   -44260.751    26.191037   0.93463152 
   35300    207.92823    -205.0396    133434.92   -41654.436    2587.0224   -44241.459    26.090095   0.93598803 
   35400    203.00273   -199.63363    133329.93   -41668.799    2525.7399   -44194.539    26.277565   0.93672506 
   35500    209.99173   -222.15805    133458.37   -41564.505    2612.6963   -44177.201    26.356887   0.93582359 
   35600     208.9873   -319.46197    133494.14   -41609.475    2600.1993   -44209.674    26.451632   0.93557284 
   35700    210.93354   -282.19436    133434.18   -41563.243    2624.4143   -44187.657    26.437622   0.93599325 
   35800    207.13385    -266.8079    133443.21   -41594.279    2577.1388   -44171.418    26.519026   0.93592988 
   35900    210.24117   -259.35474    133483.43   -41550.356    2615.7998   -44166.156    26.418772   0.93564793 
   36000    211.20721   -214.27557    133382.41    -41516.33    2627.8193   -44144.149    26.471883   0.93635652 
   36100    212.15299   -128.00556    133338.81   -41540.152    2639.5865   -44179.739    26.540417    0.9366627 
   36200    209.34097   -320.47933    133420.14   -41574.737    2604.5996   -44179.336    26.468358   0.93609173 
   36300    205.47726   -241.19292    133291.11   -41630.342    2556.5277    -44186.87    26.410667   0.93699789 
   36400    214.91054   -264.49719    133366.65   -41572.009    2673.8957   -44245.904    26.442513   0.93646719 
   36500    213.13871   -190.11072    133338.39   -41555.767    2651.8507   -44207.618    26.694184   0.93666565 
   36600     204.2268   -259.93497    133293.43   -41664.767    2540.9697   -44205.737    26.672401   0.93698161 
   36700    209.24957   -260.31954    133426.71   -41609.613    2603.4625   -44213.075    26.706666   0.93604566 
   36800    206.18784   -330.85981    133391.75   -41594.984    2565.3688   -44160.352    26.634258   0.93629095 
   36900    206.83113   -345.30543    133459.34   -41612.011    2573.3725   -44185.383    26.758481   0.93581676 
   37000    212.43594   -202.51558    133519.89   -41552.416     2643.107   -44195.523    26.858423   0.93539243 
   37100    212.50372   -219.61403    133604.29   -41545.429    2643.9503   -44189.379    26.925481    0.9348015 
   37200    209.72603   -356.65402     133447.2   -41603.465    2609.3905   -44212.856    26.857204   0.93590193 
   37300    208.77855   -200.68738    133467.66   -41618.558     2597.602    -44216.16    26.704563   0.93575847 
   37400    209.01379   -242.23438    133430.81   -41647.018    2600.5289   -44247.547    26.914362   0.93601689 
   37500    208.21868   -329.06185    133463.97   -41656.655    2590.6363   -44247.291    27.055123   0.93578434 
   37600    208.45196   -256.00099    133445.32   -41614.151    2593.5387    -44207.69    27.126486   0.93591511 
   37700    209.36545   -341.65958    133267.94   -41619.869    2604.9042   -44224.773    27.081953   0.93716084 
   37800    202.61351   -109.47721    133365.23   -41702.477    2520.8972   -44223.374    27.105817   0.93647713 
   37900    207.07376   -148.73231    133559.98   -41665.892    2576.3912   -44242.283    27.284323   0.93511165 
   38000    205.76992   -265.28154    133552.37   -41639.843     2560.169   -44200.012    27.242349   0.93516491 
   38100    205.52574   -251.96653    133535.71   -41590.351     2557.131   -44147.482      27.2936   0.93528162 
   38200    209.96554   -290.91459     133474.3   -41603.012    2612.3705   -44215.383    27.135218   0.93571187 
   38300    213.13315   -157.90946    133509.95   -41551.135    2651.7816   -44202.917    27.114877   0.93546207 
   38400    210.76576   -292.45534    133602.91   -41616.054    2622.3267    -44238.38    27.108541   0.93481113 
   38500    209.98183   -340.00226    133520.96   -41642.676    2612.5732   -44255.249    27.083974   0.93538488 
   38600    209.29456   -250.44959    133510.15   -41613.881    2604.0222   -44217.904    27.122254   0.93546067 
   38700     213.0617   -218.65773    133297.66   -41633.007    2650.8926   -44283.899    27.199017   0.93695184 
   38800    208.68956   -200.34489    133254.84   -41645.892    2596.4949   -44242.387    27.255065   0.93725295 
   38900    211.00028    -226.2262     133312.5   -41594.072    2625.2446   -44219.317    27.144749   0.93684759 
   39000    209.94433   -390.74095    133319.38   -41642.244    2612.1066   -44254.351    27.184967    0.9367992 
   39100    206.48268   -274.98557    133169.42    -41609.54    2569.0372   -44178.577    27.196185   0.93785413 
   39200    212.62886   -180.22436     133208.9   -41644.863    2645.5073   -44290.371    27.244857   0.93757617 
   39300    210.10961   -373.05341    133323.89   -41641.547     2614.163    -44255.71    27.250508   0.93676755 
   39400    206.82221   -188.14786    133310.98    -41600.37    2573.2615   -44173.632    27.113539   0.93685824 
   39500    211.18679   -303.54662    133360.62   -41586.367    2627.5652   -44213.932    27.199266   0.93650953 
   39600    212.65654   -282.56047    133331.68    -41622.09    2645.8517   -44267.942     27.37653   0.93671277 
   39700    211.25655   -186.16032    133412.95   -41567.468    2628.4331   -44195.901     27.57854    0.9361422 
   39800    209.66921   -162.01594    133406.29   -41628.554    2608.6836   -44237.237    27.427545   0.93618889 
   39900    205.77061   -153.55509    133491.97   -41674.123    2560.1776   -44234.301    27.279209   0.93558801 
   40000    201.75655   -467.91033    133435.66   -41692.374     2510.235   -44202.609    27.322814   0.93598284 
   40100    209.05391   -346.23965    133353.18   -41597.771    2601.0281   -44198.799    27.407132   0.93656178 
   40200     208.3011   -475.65311    133302.76   -41621.108    2591.6617    -44212.77    27.514486   0.93691604 
   40300    207.28426    -198.1522    133212.09   -41603.838    2579.0103   -44182.848    27.583467   0.93755375 
   40400    208.65857   -220.73939    133145.13   -41509.831    2596.1093    -44105.94    27.506361   0.93802523 
   40500    212.35919   -202.04667    133342.73    -41524.97    2642.1521   -44167.122    27.561756   0.93663518 
   40600    211.24861   -216.55707    133334.73   -41563.472    2628.3343   -44191.807    27.619335   0.93669137 
   40700    208.44865   -372.17644    133512.95   -41610.021    2593.4975   -44203.519    27.604941   0.93544101 
   40800    205.93439   -267.75851    133498.88   -41663.285    2562.2153     -44225.5    27.658002   0.93553959 
   40900    211.87424   -263.80051    133385.58   -41687.943    2636.1183   -44324.061    27.542792   0.93633431 
   41000    210.44598    -222.4343    133315.98   -41608.365    2618.3481   -44226.713    27.604794   0.93682309 
   41100    211.11783   -350.54741    133273.73    -41594.62    2626.7071   -44221.328      27.6143   0.93712007 
   41200    216.89736   -279.91513    133179.69   -41613.391    2698.6156   -44312.007    27.643898   0.93778182 
   41300    207.65504   -198.15106    133156.65   -41762.496    2583.6235    -44346.12    27.536328    0.9379441 
   41400    210.66251   -218.08184    133343.36   -41715.759    2621.0421   -44336.801    27.624589   0.93663075 
   41500    210.63979   -282.60301    133241.84   -41714.002    2620.7594   -44334.761    27.778992   0.93734438 
   41600    208.34304   -353.44396    133301.85   -41673.466    2592.1835    -44265.65    27.856859   0.93692239 
   41700    203.22575   -304.37681    133133.81   -41648.345    2528.5147   -44176.859    27.928518   0.93810501 
   41800    207.12866   -231.80839    133086.95    -41642.07    2577.0743   -44219.144    27.965073   0.93843532 
   41900    210.62065   -314.20506    132989.38   -41620.115    2620.5213   -44240.636    27.919252   0.93912382 
   42000     208.0269   -241.81848     133098.8    -41614.41    2588.2501   -44202.661    27.902237   0.93835171 
   42100    212.21177   -314.56284    133003.51   -41606.944    2640.3179   -44247.261    27.737045   0.93902405 
   42200    212.43512   -195.28051    132939.81   -41569.027    2643.0967   -44212.124    27.850304   0.93947395 
   42300    216.08316   -214.30132    133018.65   -41561.093    2688.4853   -44249.578    27.847039   0.93891711 
   42400    207.78775   -266.70495     133059.2   -41602.057    2585.2746   -44187.332    27.962507   0.93863101 
   42500    212.81463   -293.88128    133206.65   -41603.033    2647.8186   -44250.852    28.036398   0.93759198 
   42600     206.6246   -290.75171    133288.89   -41600.139    2570.8028   -44170.942    28.095881   0.93701352 
   42700    211.02681   -262.32781     133142.9   -41613.016    2625.5747    -44238.59    28.033349   0.93804095 
   42800    213.69245    -292.7249    133140.32   -41562.638    2658.7403   -44221.378    27.896292   0.93805915 
   42900    206.68503    -172.9485    133077.65   -41628.562    2571.5547   -44200.117    27.984199   0.93850087 
   43000    205.41413   -245.58204    133172.33   -41647.048    2555.7423    -44202.79    28.161666   0.93783362 
   43100    209.11259   -265.36292     133349.4   -41627.986    2601.7582   -44229.744    28.145805   0.93658832 
   43200    208.68088   -143.80142    133306.12   -41593.343    2596.3868    -44189.73    28.177032   0.93689243 
   43300    211.81869   -231.33917    133380.72   -41606.083    2635.4272    -44241.51    28.230849   0.93636839 
   43400    211.81503   -422.65012    133494.93   -41566.866    2635.3817   -44202.247    28.033561   0.93556732 
   43500    211.13737   -215.42148    133361.17    -41570.31    2626.9502   -44197.261    27.979722   0.93650569 
   43600    215.86189   -213.92176    133404.01   -41490.416    2685.7323   -44176.148    28.070861   0.93620494 
   43700    213.73517   -191.80853    133369.59   -41517.609    2659.2718   -44176.881     28.23248   0.93644652 
   43800    213.09325    -227.8264    133298.96   -41523.276    2651.2851   -44174.561    28.253536   0.93694275 
   43900    211.89141   -300.17537    133380.61    -41565.18     2636.332   -44201.512    28.375595   0.93636915 
   44000    210.98103   -198.60233    133402.82   -41590.957    2625.0051   -44215.962    28.366941   0.93621329 
   44100     210.9856   -197.83787    133416.68    -41598.88     2625.062   -44223.943    28.417799   0.93611604 
   44200    209.34641   -307.44109    133357.55   -41628.355    2604.6673   -44233.022    28.302838   0.93653109 
   44300    208.46286   -261.55994    133358.16   -41624.133    2593.6743   -44217.807    28.290675   0.93652677 
   44400    210.81862   -253.51095    133385.42   -41590.077    2622.9845   -44213.061     28.29969   0.93633542 
   44500    210.05452     -196.188    133306.64   -41629.277    2613.4775   -44242.754    28.404908   0.93688873 
   44600    204.85198   -209.90075    133355.61   -41685.305    2548.7481   -44234.053    28.363468   0.93654472 
   44700    209.04097   -249.52004    133577.12   -41648.593    2600.8671    -44249.46    28.648304   0.93499162 
   44800    207.47011    -263.1137    133594.39   -41619.402    2581.3226   -44200.725    28.528317   0.93487076 
   44900    210.53768   -212.56806     133497.6   -41581.968    2619.4889   -44201.457    28.633962   0.93554856 
   45000    212.65215   -266.97465     133584.7   -41590.055     2645.797   -44235.852    28.769249   0.93493858 
   45100    215.52436   -176.08338     133624.5   -41545.727    2681.5327    -44227.26      28.6674   0.93466012 
   45200    211.17468   -219.23495    133619.68   -41607.174    2627.4144   -44234.588    28.521568   0.93469385 
   45300    209.96701   -324.97351    133564.49   -41632.647    2612.3887   -44245.036    28.404643   0.93508005 
   45400    210.63035   -211.89397    133580.41   -41606.565     2620.642   -44227.207    28.553224   0.93496863 
   45500    211.02037   -196.27707    133550.55   -41619.285    2625.4946    -44244.78    28.603792   0.93517766 
   45600    209.94277   -184.24786     133473.4   -41613.102    2612.0872   -44225.189    28.558945    0.9357182 
   45700    210.85825   -151.33481    133450.23   -41627.413    2623.4775    -44250.89    28.501688    0.9358807 
   45800    215.47065   -247.08103    133249.17   -41574.876    2680.8645   -44255.741    28.637119   0.93729282 
   45900    213.55219   -270.11667    133280.66   -41520.858    2656.9953   -44177.853    28.554911   0.93707139 
   46000    215.06788   -221.51847    133268.81   -41502.568    2675.8532   -44178.421    28.553074   0.93715469 
   46100    216.07485    -211.9443    133462.14   -41466.017     2688.382   -44154.399     28.66313   0.93579718 
   46200     213.8978   -382.32148    133646.24   -41471.709    2661.2952   -44133.004    28.682369   0.93450806 
   46300    216.19179    -282.3724    133517.16   -41508.552    2689.8369   -44198.389    28.793589   0.93541151 
   46400    212.19252   -315.13539    133460.98   -41542.222    2640.0784   -44182.301    28.728146   0.93580531 
   46500    213.27524   -239.19423    133513.74   -41550.769    2653.5494   -44204.318     28.92148   0.93543546 
   46600    215.00226   -109.30697    133297.15   -41549.121    2675.0369   -44224.158    28.838162   0.93695542 
   46700    212.77639    -89.87905     133515.5   -41614.975    2647.3428   -44262.318    28.904602   0.93542315 
   46800    206.49084   -330.48315    133447.57   -41661.131    2569.1386    -44230.27    28.854834   0.93589935 
   46900    211.97273   -291.13369    133441.15   -41579.319    2637.3438   -44216.663    28.952935   0.93594437 
   47000    211.72523    -230.7112    133443.97   -41565.053    2634.2644   -44199.318    28.926891   0.93592455 
   47100    211.21921   -322.13187    133500.07   -41550.874    2627.9686   -44178.842    29.158314   0.93553126 
   47200    208.75995   -269.56279    133437.93   -41607.918    2597.3707   -44205.289    29.137714   0.93596697 
   47300    211.60691   -68.165943    133533.88   -41625.795    2632.7922   -44258.587    29.052133   0.93529438 
   47400    208.09554   -256.83991    133597.03   -41572.594    2589.1042   -44161.698     29.06771   0.93485233 
   47500    214.25177   -236.46273    133563.49   -41512.565    2665.6993   -44178.264    29.071168   0.93508707 
   47600    213.37152   -388.09024    133520.82   -41481.061    2654.7474   -44135.808    29.167948   0.93538592 
   47700    211.21001   -333.62236    133553.52   -41528.751    2627.8541   -44156.605    29.149986   0.93515685 
   47800    214.40583   -111.81349    133484.78   -41533.516    2667.6161   -44201.133    29.162661   0.93563845 
   47900    207.82575   -402.86815    133456.85   -41618.931    2585.7475   -44204.678    29.242158   0.93583427 
   48000    206.26952   -350.51519    133628.96    -41633.15     2566.385   -44199.535      29.3922   0.93462892 
   48100    213.33591   -255.16477    133591.31   -41602.168    2654.3043   -44256.473    29.285576   0.93489233 
   48200     208.1355   -147.75805    133668.51   -41629.401    2589.6013   -44219.002    29.341816    0.9343524 
   48300    210.92942   -316.22046    133682.32   -41622.225     2624.363   -44246.588    29.340921   0.93425589 
   48400    210.73022   -259.39501    133687.06   -41551.371    2621.8846   -44173.256    29.391789   0.93422275 
   48500    209.64294   -319.20605    133715.94   -41613.252    2608.3567   -44221.608    29.508168   0.93402095 
   48600    213.41349    -370.1856    133685.23   -41629.883    2655.2695   -44285.153    29.551441    0.9342355 
   48700    210.59604   -164.17465    133775.75   -41601.152    2620.2151   -44221.367     29.56209   0.93360338 
   48800    209.60413   -245.48829    133801.51   -41632.554    2607.8738   -44240.428    29.505061   0.93342362 
   48900      205.369   -203.23166    133851.92   -41624.582    2555.1808   -44179.763    29.455781    0.9330721 
   49000    209.43463   -115.53895    133870.16   -41658.622     2605.765   -44264.387    29.359562   0.93294499 
   49100    211.92008   -323.31851    133785.72   -41656.616    2636.6887   -44293.305    29.599124   0.93353377 
   49200    207.75138   -386.65363    133828.14   -41675.023    2584.8221   -44259.845    29.658625   0.93323791 
   49300    212.09581   -412.23074    133799.25   -41626.092     2638.875   -44264.967    29.680245   0.93343942 
   49400    213.07605   -270.72866    133804.73   -41600.927    2651.0711   -44251.998    29.702702   0.93340114 
   49500    213.97883   -337.53542    133741.24   -41623.816    2662.3035    -44286.12    29.686035   0.93384429 
   49600    209.41583   -246.72906    133700.71   -41625.151    2605.5311   -44230.683    29.459541   0.93412733 
   49700    211.85383   -291.14291    133864.59   -41642.226    2635.8644    -44278.09    29.600955   0.93298376 
   49800    206.70941   -118.05469    133912.45   -41683.445    2571.8581   -44255.303    29.748176    0.9326503 
   49900    212.29916   -295.93444    133875.71   -41571.692    2641.4052   -44213.097    29.687097   0.93290628 
   50000      210.238   -269.67925    133746.41   -41614.099    2615.7604    -44229.86    29.649299   0.93380821 
   50100    212.61589   -104.39192    133741.14   -41624.377    2645.3459   -44269.723    29.689576   0.93384498 
   50200    210.76899   -266.73803     133656.6    -41674.58    2622.3669   -44296.947    29.658879   0.93443567 
   50300    211.01601   -227.05062    133649.58   -41647.452    2625.4404   -44272.892    29.756547   0.93448474 
   50400     211.8761   -194.80285    133600.35   -41674.417    2636.1415   -44310.559    29.682125   0.93482905 
   50500     209.3635   -236.66744     133592.9   -41714.751    2604.8799   -44319.631    29.692471   0.93488123 
   50600    208.61228   -116.91404    133529.09   -41736.499    2595.5334   -44332.032    29.588675   0.93532793 
   50700    205.89597   -307.70905    133689.84   -41744.448    2561.7373   -44306.185    29.785808    0.9342033 
   50800    208.68652   -356.88618    133566.62   -41738.934    2596.4571   -44335.391    29.755648   0.93506513 
   50900    211.39644   -269.96661    133675.16   -41653.171    2630.1736   -44283.345    29.727088   0.93430593 
   51000    213.35475   -290.99207    133651.33   -41682.498    2654.5387   -44337.037    29.749548   0.93447252 
   51100    205.34438   -320.19528    133723.68   -41709.223    2554.8744   -44264.097    29.867408   0.93396693 
   51200    208.05925   -361.41074    133767.57   -41694.813    2588.6526   -44283.466    29.747438   0.93366048 
   51300    206.66127   -165.15404     133738.7   -41755.572    2571.2591   -44326.831    29.745322   0.93386203 
   51400    206.31751    -185.8217    133813.56   -41752.067    2566.9821    -44319.05    29.704739   0.93333958 
   51500    207.33566   -207.16918    134009.24   -41757.059    2579.6497   -44336.709     29.94559   0.93197674 
   51600    208.71953   -331.10591    134020.82   -41698.687    2596.8678   -44295.555    30.118543   0.93189619 
   51700    209.81085   -435.90955    133929.64   -41684.682    2610.4458   -44295.127    29.997419   0.93253063 
   51800    211.06996   -225.16422     133871.7   -41709.762    2626.1116   -44335.873    30.009174   0.93293422 
   51900    211.08365   -202.73347     133780.2   -41751.527    2626.2819   -44377.809    29.907061   0.93357232 
   52000    204.88221   -220.55106    133884.96   -41763.971    2549.1242   -44313.095    30.000047   0.93284185 
   52100    205.25826   -253.27937    134005.94   -41714.684     2553.803   -44268.487    29.919725   0.93199964 
   52200    210.69085   -317.83493    133967.62   -41739.441    2621.3948   -44360.835    29.984094   0.93226628 
   52300    209.41988   -252.56802    133951.74   -41718.112    2605.5814   -44323.693    29.931856   0.93237679 
   52400    206.84006   -251.38452    133955.49   -41655.315    2573.4836   -44228.798    30.145123   0.93235067 
   52500    208.56291   -222.04087    133804.89   -41645.432    2594.9191   -44240.351    30.072353   0.93340004 
   52600    208.49046   -240.44067    133755.14   -41677.162    2594.0176   -44271.179    30.037306   0.93374724 
   52700    207.45853   -174.54374    133961.79   -41697.891    2581.1785    -44279.07    30.168678   0.93230679 
   52800     207.6262   -255.20752    133987.22   -41659.164    2583.2646   -44242.429    30.153439   0.93212985 
   52900    211.45985   -291.89795    133940.96   -41647.716    2630.9625   -44278.678    30.151773   0.93245181 
   53000    207.43935   -205.35664    133975.22   -41619.209    2580.9399   -44200.149    30.262372   0.93221334 
   53100    207.75267   -202.20772    134005.28   -41655.728    2584.8382   -44240.566    30.210795   0.93200422 
   53200    208.85127   -312.59271    133976.26   -41658.968    2598.5068   -44257.475    30.164135    0.9322061 
   53300     208.7176   -210.48831    134076.02   -41656.077    2596.8437   -44252.921    30.164978    0.9315125 
   53400    203.58093   -232.22688    134079.37   -41729.962    2532.9338   -44262.895    30.200241   0.93148922 
   53500    209.68789    -202.9769    134116.55   -41736.857    2608.9159   -44345.773    30.117189   0.93123099 
   53600    206.70538   -230.77749    134045.13   -41741.267    2571.8079   -44313.075    30.360222   0.93172717 
   53700     206.8626   -248.59855    134060.38    -41781.74    2573.7641   -44355.504    30.327487   0.93162117 
   53800    208.02997   -128.66675    134073.74   -41662.827    2588.2883   -44251.115    30.355576   0.93152838 
   53900    210.13072   -177.74566     134009.2   -41715.814    2614.4256   -44330.239    30.397383   0.93197697 
   54000    210.52314   -276.37587    134028.26   -41693.594    2619.3081   -44312.902     30.28843   0.93184444 
   54100    208.10393   -356.16525    133947.55   -41707.832    2589.2085    -44297.04    30.491371   0.93240593 
   54200    210.22624   -244.66031     134014.1   -41694.711    2615.6141   -44310.325    30.471696   0.93194291 
   54300    209.42084   -340.50732    134130.26   -41660.909    2605.5934   -44266.503    30.601996   0.93113584 
   54400     208.7288   -318.79783    134094.46   -41687.742    2596.9831   -44284.725    30.408439   0.93138444 
   54500    206.25862   -296.69299    133997.84   -41673.062    2566.2493   -44239.311    30.369067   0.93205598 
   54600    211.12037   -297.30101    134080.62   -41585.269    2626.7387   -44212.008    30.291316   0.93148053 
   54700    212.46083   -339.74266     134104.2   -41593.954    2643.4167   -44237.371    30.500814   0.93131674 
   54800    209.89945   -233.96372    134053.82   -41679.114    2611.5482   -44290.663    30.648272   0.93166675 
   54900    205.99472   -369.10271    133938.14   -41728.683     2562.966   -44291.649    30.772348   0.93247146 
   55000    207.33774   -28.059971    133914.53   -41785.539    2579.6757   -44365.215    30.593728   0.93263583 
   55100    206.03469   -130.48156    133881.93   -41740.438    2563.4632   -44303.901    30.582853   0.93286292 
   55200    204.20088    -370.2151    133911.17   -41743.589    2540.6472   -44284.236    30.672978   0.93265924 
   55300     207.4594   -208.21305    133951.19   -41694.298    2581.1893   -44275.487    30.707326   0.93238057 
   55400    211.33867   -264.55294    133894.26   -41678.312    2629.4548   -44307.766    30.722725   0.93277704 
   55500    210.81821   -237.57042    134002.89   -41623.301    2622.9794    -44246.28    30.758526    0.9320209 
   55600     210.1953   -288.95093    133937.99   -41665.265    2615.2292   -44280.494    30.611271   0.93247248 
   55700    213.77543   -170.62148    134051.68   -41660.848    2659.7728   -44320.621    30.800805   0.93168166 
   55800    210.34493   -307.34373    133813.93    -41674.19    2617.0909   -44291.281    30.704837   0.93333701 
   55900    211.18673     -276.536    133724.44   -41642.431    2627.5644   -44269.996    30.762588   0.93396157 
   56000    211.79125   -164.85655     133846.6   -41624.674    2635.0858   -44259.759    30.856874   0.93310915 
   56100    212.34678   -158.22634     133968.9   -41588.302    2641.9976     -44230.3    30.862984   0.93225735 
   56200     212.2914   -328.49657    133854.72   -41602.326    2641.3086   -44243.635    30.747588   0.93305256 
   56300    212.74588   -249.61653    133943.93   -41635.052    2646.9632   -44282.015    30.957532   0.93243116 
   56400    210.60988   -155.76676    134014.22   -41621.315    2620.3873   -44241.702    30.916962   0.93194209 
   56500    207.88581   -322.14453    133922.89   -41687.872    2586.4948   -44274.367    30.991504   0.93257765 
   56600    209.94402   -290.97928    133758.51   -41700.592    2612.1028   -44312.694    30.955412   0.93372373 
   56700    208.34683   -249.83998    133650.88   -41735.727    2592.2307   -44327.958    30.942481   0.93447562 
   56800    209.93626   -156.82059    133722.64   -41666.693    2612.0062   -44278.699    30.847394   0.93397415 
   56900    211.91505   -184.82873    133711.11   -41645.886    2636.6261   -44282.512    30.905873   0.93405468 
   57000     210.2853    -260.0848    133682.54   -41595.502    2616.3489   -44211.851    31.004376   0.93425431 
   57100    209.54872   -241.58792    133746.17    -41658.69    2607.1845   -44265.875    31.020594   0.93380986 
   57200    211.43772   -196.68937    133853.97   -41699.425    2630.6873   -44330.112    30.928933   0.93305777 
   57300     208.2679   -254.23113    133957.45   -41734.081    2591.2486    -44325.33    31.011852   0.93233706 
   57400    207.74975   -218.23718    133810.71   -41738.251    2584.8018   -44323.053    31.137346   0.93335944 
   57500    202.63442   -223.50854     133719.1   -41776.664    2521.1574   -44297.821    30.980611    0.9339989 
   57600    204.74796   -250.51554     133855.4   -41722.165    2547.4539   -44269.619    31.112332   0.93304782 
   57700    199.72301   -196.12084    133699.54   -41754.256    2484.9339    -44239.19    31.000373   0.93413553 
   57800    203.82372   -245.38193    133714.45   -41778.637    2535.9546   -44314.591    31.069123   0.93403139 
   57900    206.44589   -267.31663    133750.13   -41742.171    2568.5793    -44310.75    31.131878   0.93378218 
   58000    209.17134   -288.40689    133649.78   -41750.138    2602.4891   -44352.627    31.261748   0.93448333 
   58100    208.05473   -212.61413    133783.71   -41682.697    2588.5964   -44271.293    31.248422   0.93354782 
   58200    210.02271   -207.17689     133885.1   -41640.691    2613.0818   -44253.773    31.229081   0.93284089 
   58300    216.46123   -259.99737    133898.51   -41589.635    2693.1892   -44282.824    31.213594   0.93274744 
   58400    213.11591   -176.31976    133983.18   -41598.385     2651.567   -44249.952    31.335822   0.93215802 
   58500    213.99621   -313.44538    133916.19   -41613.734    2662.5197   -44276.253    31.187263   0.93262431 
   58600    212.79661   -165.49027    133831.47   -41590.689    2647.5944   -44238.283    31.147765   0.93321469 
   58700    214.67127   -198.04047     133805.8   -41597.693    2670.9187   -44268.611    31.361159   0.93339369 
   58800    211.26153   -321.27082    133766.17   -41649.042     2628.495   -44277.537    31.369021   0.93367026 
   58900    209.01526   -200.43613     133810.7   -41696.004    2600.5472   -44296.551    31.171857   0.93335955 
   59000    211.60656   -356.17519    134023.76   -41682.919    2632.7879   -44315.707    31.304098   0.93187572 
   59100    212.55483   -154.66248    133976.29   -41689.553    2644.5862   -44334.139    31.465189   0.93220594 
   59200    208.60347   -200.97017    133986.43   -41700.225    2595.4238   -44295.649    31.535501   0.93213539 
   59300     205.0852   -378.65405    133987.09   -41693.792    2551.6498   -44245.442    31.525448    0.9321308 
   59400    209.17426   -270.18561    133825.93   -41741.739    2602.5255   -44344.264    31.457265   0.93325328 
   59500    209.82985    -426.0309    133839.28    -41705.47    2610.6823   -44316.152    31.615088   0.93316019 
   59600     211.5954   -376.27209    133805.02   -41694.909    2632.6491   -44327.558    31.569808   0.93339918 
   59700    205.33788   -169.81711    133946.81    -41718.19    2554.7937   -44272.984     31.69769    0.9324111 
   59800    206.49962   -209.80695    133991.93   -41710.579    2569.2479   -44279.827    31.609144   0.93209714 
   59900    209.88988   -160.27693    133846.62   -41686.213    2611.4291   -44297.642    31.618566   0.93310902 
   60000    211.88022    -287.2463    133784.25   -41731.022    2636.1928   -44367.215    31.738064   0.93354404 
   60100    207.60224    -269.7799     133871.1   -41696.018    2582.9665   -44278.985     31.73228   0.93293843 
   60200    208.71778   -365.96003    133812.04    -41673.77    2596.8459   -44270.616     31.72239   0.93335021 
   60300    212.29565   -180.72342    133817.74   -41642.724    2641.3615   -44284.085    31.723831   0.93331041 
   60400    211.94303   -324.06443    133886.74   -41596.987    2636.9743   -44233.961    31.740188   0.93282945 
   60500    210.14634   -221.53388    133821.39   -41617.306      2614.62   -44231.926    31.681065   0.93328498 
   60600    210.34976   -242.31085    133806.85   -41669.583     2617.151   -44286.734    31.643512   0.93338636 
   60700    208.84647    -185.8479    133713.53     -41691.8    2598.4471   -44290.247    31.643361   0.93403779 
   60800    211.92116   -18.713317    133858.66   -41649.464    2636.7021   -44286.166    31.712971   0.93302509 
   60900    210.67628   -279.42979    133984.53   -41647.317    2621.2134    -44268.53    31.862972   0.93214857 
   61000    206.29535   -334.73001    133771.27   -41692.008    2566.7064   -44258.714    31.823231   0.93363461 
   61100    210.29772     -185.735     133840.3   -41734.558    2616.5035   -44351.062    31.914138    0.9331531 
   61200    211.75524   -365.76341    133828.08   -41737.622    2634.6378   -44372.259    31.940567   0.93323834 
   61300    207.97631   -329.24944    133875.78   -41730.555    2587.6206   -44318.176    31.887473   0.93290577 
   61400    206.75213   -251.76971    133970.47   -41757.847    2572.3895   -44330.237      32.0616    0.9322464 
   61500    209.04937   -343.86219    133879.19   -41757.594    2600.9716   -44358.565    32.010863   0.93288205 
   61600    210.35531   -187.89787    133904.91   -41709.889      2617.22   -44327.109    31.805369   0.93270285 
   61700    208.14878   -212.30394    133884.52   -41778.921    2589.7665   -44368.688    31.889585   0.93284492 
   61800    202.64418   -151.75427    133879.84     -41839.3    2521.2788   -44360.578    31.931936   0.93287754 
   61900    206.72303   -209.31257     133971.3    -41767.48    2572.0275   -44339.508    32.021754   0.93224067 
   62000    208.16328   -284.74568    133859.17   -41724.986     2589.947   -44314.933    31.999636   0.93302153 
   62100    208.40225    -281.6387    133789.12   -41730.565    2592.9201   -44323.485    31.924523   0.93351009 
   62200    212.81573   -272.13366    133789.87   -41682.813    2647.8323   -44330.645    31.879992   0.93350481 
   62300    206.77216   -254.66454    133713.42   -41724.645    2572.6388   -44297.284    32.016036   0.93403859 
   62400    211.39901   -280.24591    133786.12   -41672.402    2630.2056   -44302.608    31.976961   0.93353098 
   62500    208.64839   -377.31081    133761.73   -41678.605    2595.9827   -44274.588    32.221068   0.93370119 
   62600    212.18305   -342.65274    133819.96   -41681.853    2639.9606   -44321.814    32.070078   0.93329495 
   62700    207.81372   -272.08882    133774.74   -41709.055    2585.5977   -44294.653    32.084443    0.9336104 
   62800     209.2823   -223.96522    133740.66   -41702.984    2603.8697   -44306.854    31.887513   0.93384835 
   62900    209.77611   -264.56179    134012.95   -41660.864    2610.0136   -44270.878    32.051415   0.93195091 
   63000    211.15779    -308.3339    133960.95   -41625.442    2627.2043   -44252.647    32.064308   0.93231265 
   63100    211.96363   -336.81092     133949.3   -41609.019    2637.2306    -44246.25    32.087477   0.93239376 
   63200    211.39475   -405.41215    133681.17   -41643.104    2630.1526   -44273.257    32.069429   0.93426393 
   63300    208.92716   -208.57598    133731.95   -41677.123    2599.4511   -44276.574    32.116261   0.93390913 
   63400    211.61474   -175.00403    133811.45   -41601.305    2632.8897   -44234.195    32.211832   0.93335428 
   63500    207.27733   -333.21635    133722.05   -41683.537     2578.924   -44262.461    32.287824   0.93397827 
   63600    208.83907   -277.23591    133910.39   -41681.591    2598.3551   -44279.946    32.406103   0.93266467 
   63700    212.41976    -153.5175    133921.95   -41682.346    2642.9057   -44325.251     32.36599   0.93258417 
   63800    210.84065   -161.01546    133870.17   -41790.536    2623.2585   -44413.795    32.392193   0.93294489 
   63900    206.56397   -300.58759    133755.65   -41795.433    2570.0485   -44365.482    32.462938   0.93374365 
   64000    205.66004   -344.67426    133728.51   -41786.625    2558.8019   -44345.427    32.557599    0.9339332 
   64100    210.82953   -86.461871    133683.65   -41703.265    2623.1202   -44326.385    32.565725   0.93424654 
   64200    211.76273   -267.05478    133766.11   -41694.308    2634.7309   -44329.039    32.654991   0.93367065 
   64300    217.01405   -116.36967    133677.75   -41616.293    2700.0673   -44316.361    32.812116   0.93428783 
   64400    210.09516   -282.41321    133797.81   -41641.919    2613.9832   -44255.902    32.777661   0.93344944 
   64500    213.38014   -288.78959    133747.41   -41634.402    2654.8546   -44289.256    32.567741   0.93380119 
   64600    209.49756   -222.09302    133777.64   -41691.688     2606.548   -44298.236    32.650774    0.9335902 
   64700    209.22854   -134.94631    133872.65   -41703.571    2603.2009   -44306.772     32.53925   0.93292759 
   64800    211.28876   -288.89906    134057.06   -41720.528    2628.8339   -44349.362    32.655618   0.93164427 
   64900    209.71062   -182.34689    134118.43   -41703.861    2609.1988   -44313.059    32.678819   0.93121796 
   65000    212.59419   -293.17282    134032.92   -41675.209    2645.0759   -44320.285    32.757729   0.93181209 
   65100    209.99481   -327.99937    134020.62    -41698.25    2612.7347   -44310.985    32.786089   0.93189761 
   65200    212.30288   -310.87852    133828.38   -41688.113    2641.4514   -44329.564    32.704404   0.93323619 
   65300    211.76716   -120.72894     133835.4   -41689.396    2634.7861   -44324.182    32.865115   0.93318725 
   65400    214.65698   -179.76551    133807.83   -41631.071    2670.7409   -44301.812    32.798432   0.93337957 
   65500    207.47372    -307.3106    133936.31   -41698.484    2581.3675   -44279.851    32.850646   0.93248418 
   65600    208.86906   -210.91083    134003.18   -41730.304    2598.7281   -44329.032     32.92944   0.93201889 
   65700    212.81325    -201.6662    134025.73    -41784.23    2647.8014   -44432.031    32.836189   0.93186202 
   65800    210.61424    -149.3957    134150.55   -41789.546    2620.4415   -44409.987    32.815365   0.93099503 
   65900    208.24243   -148.63095    134167.67   -41751.178    2590.9317    -44342.11    32.784666    0.9308762 
   66000    212.68685   -281.81074    134123.59   -41654.715    2646.2288   -44300.944    32.767535   0.93118213 
   66100    213.02411    -209.4886    134247.43   -41611.682    2650.4249   -44262.107    32.878053   0.93032315 
   66200    212.67436   -122.18566    134076.07   -41587.645    2646.0733   -44233.718    33.027791    0.9315122 
   66300    211.83663   -239.36227    133904.14   -41630.471    2635.6505   -44266.121    33.135169   0.93270818 
   66400    211.72357   -158.35002     133940.6   -41675.329    2634.2438   -44309.573    33.165522   0.93245435 
   66500    209.40749   -247.71764    134066.44    -41692.54    2605.4272   -44297.967    33.047815   0.93157909 
   66600     210.2079   -289.70268     133928.8   -41714.531    2615.3859   -44329.917    33.042987   0.93253651 
   66700    208.65763   -381.21106    134051.81   -41741.833    2596.0977    -44337.93    32.931018   0.93168076 
   66800    209.56919   -355.57457       134023   -41687.004    2607.4392   -44294.443    33.109156   0.93188104 
[...]
   84600    206.71395   -201.06602    133961.31     -41825.3    2571.9145   -44397.214     35.92947   0.93231018 
   84700    209.25088   -249.50437     134117.4   -41836.249    2603.4787   -44439.728    35.821064   0.93122509 
   84800    208.17784   -114.25081    134148.75   -41801.355    2590.1281   -44391.483    35.987148    0.9310075 
   84900    208.54499   -161.99027    134211.31    -41781.16    2594.6961   -44375.856     36.00422    0.9305735 
   85000    210.29616   -339.21589    134218.46   -41742.698     2616.484   -44359.182    35.991382   0.93052396 
   85100    209.25966   -221.06493    134221.15   -41756.355    2603.5881   -44359.943     36.04767   0.93050529 
   85200    210.26274   -149.95036    134164.39   -41778.118    2616.0683   -44394.187    36.003832   0.93089895 
   85300    208.02064   -278.29037    134190.19   -41814.444    2588.1722   -44402.617    36.164949   0.93071996 
   85400    207.15845   -306.04019    134336.34   -41794.745    2577.4449    -44372.19    36.172018    0.9297074 
   85500     210.5654   -309.89113    134241.92    -41766.89    2619.8339   -44386.724    36.198399   0.93036132 
   85600    212.85913   -280.30898    134172.16   -41746.658    2648.3723    -44395.03    36.167261   0.93084505 
   85700    208.28482   -313.12843    134052.27   -41782.856    2591.4591   -44374.316    36.207027   0.93167756 
   85800    207.92273   -178.94423    134016.18   -41790.667     2586.954   -44377.621    36.172248   0.93192846 
   85900    210.97957   -129.68002    134133.48   -41690.426     2624.987   -44315.413    36.284123   0.93111349 
   86000    211.93174   -265.14621    134167.62   -41734.856    2636.8338    -44371.69    36.352465   0.93087656 
   86100    215.01565   -263.09263    134271.26   -41735.119    2675.2035   -44410.322    36.247963   0.93015805 
   86200     215.4883   -255.67026    134332.23   -41714.717    2681.0841   -44395.801    36.272902   0.92973583 
   86300    209.88431   -84.654855    134336.75   -41749.987    2611.3598   -44361.347    36.342016    0.9297046 
   86400    208.41477   -198.47234    134326.92   -41768.759     2593.076   -44361.835    36.330716   0.92977259 
   86500    212.82167   -227.31716    134355.11   -41768.766    2647.9062   -44416.672     36.30393   0.92957753 
   86600    212.45667   -282.00324    134243.38    -41717.19    2643.3649   -44360.555    36.355504   0.93035123 
   86700    214.85338   -153.41875    134309.63   -41713.658    2673.1846   -44386.842    36.428827   0.92989234 
   86800    210.43573   -297.02855     134148.8   -41776.033    2618.2205   -44394.254    36.423569   0.93100713 
   86900    210.33488   -345.52844    134272.93   -41750.113    2616.9658   -44367.078    36.440781   0.93014646 
   87000     211.8262   -282.34206    134295.11   -41751.019    2635.5206    -44386.54    36.520053   0.92999285 
   87100    207.91878   -131.90725    134353.49   -41785.578    2586.9049   -44372.483    36.509756   0.92958875 
   87200    214.95938   -329.28284    134407.85   -41785.398    2674.5033   -44459.901    36.432217   0.92921279 
   87300    211.63324   -217.16417     134298.9   -41788.629    2633.1198   -44421.749    36.441119   0.92996662 
   87400    213.37512   -430.60248    134250.74   -41808.702    2654.7921   -44463.494    36.404159   0.93030018 
   87500    210.73563   -208.67928    134091.33   -41826.407    2621.9518   -44448.359    36.523048   0.93140615 
   87600    209.52929   -204.71204    134190.05   -41837.903    2606.9428   -44444.846    36.702046   0.93072095 
   87700    208.34489   -258.42513    134107.57    -41840.47    2592.2065   -44432.677     36.42246   0.93129336 
   87800     208.7851   -277.14383       134081   -41824.118    2597.6836   -44421.802    36.383486   0.93147793 
   87900    210.79814   -79.083019    134147.54   -41844.061    2622.7296   -44466.791    36.348941   0.93101587 
   88000    206.76391    -297.7967    134063.91   -41871.108    2572.5361   -44443.644    36.410488   0.93159664 
   88100     207.9512   -288.24653    134147.62   -41816.245    2587.3082   -44403.553    36.587964   0.93101533 
   88200    208.77314   -206.57644    134090.57    -41789.38    2597.5347   -44386.915    36.684824   0.93141145 
   88300    212.63832   -141.65441    134168.41   -41823.584     2645.625   -44469.209    36.611509   0.93087109 
   88400    206.00063   -251.66307     134178.1   -41923.306    2563.0394   -44486.345    36.600965   0.93080384 
   88500    211.92745   -250.94586     134219.6   -41831.918    2636.7803   -44468.699    36.640233   0.93051608 
   88600    210.76015   -177.11002    134316.36   -41783.055    2622.2569   -44405.312    36.775624   0.92984568 
   88700    214.49831    -199.7917    134263.66   -41767.777    2668.7667   -44436.544    36.741947   0.93021071 
   88800    214.91156   -275.33181    134208.15   -41709.046    2673.9084   -44382.954    36.929549   0.93059544 
   88900    212.67307   -325.48829    134206.17   -41759.652    2646.0573    -44405.71    36.857348   0.93060915 
   89000    213.05567   -201.90124    134166.47    -41739.67    2650.8176   -44390.487    36.826762    0.9308845 
   89100    210.43623   -275.11474    134143.78   -41837.287    2618.2267   -44455.514    36.840924   0.93104198 
   89200    209.34479   -392.89434    134178.57   -41871.184    2604.6472   -44475.832    36.880728   0.93080062 
   89300    206.86744   -308.21811    134173.17   -41895.516    2573.8242    -44469.34    37.015859   0.93083807 
   89400    207.30602   -232.24539    134046.19     -41920.8     2579.281   -44500.081    36.895163   0.93171984 
   89500    206.83131   -79.469031    134085.93   -41948.328    2573.3747   -44521.702    36.922718   0.93144367 
   89600    203.55814   -344.77843    134060.18   -41976.317    2532.6503   -44508.967    36.900575   0.93162258 
   89700    207.83696   -285.98726    134081.58   -41939.409    2585.8869   -44525.296     36.76566   0.93147393 
   89800    204.06691   -312.83783    134087.25   -41893.665    2538.9804   -44432.645    36.816272   0.93143453 
   89900     203.8141   -286.29224    133890.13   -41949.369    2535.8349   -44485.204    36.884385    0.9328058 
   90000    207.30212   -123.11223    133987.98   -41867.393    2579.2324   -44446.626    36.899486   0.93212461 
   90100    209.31191   -216.63233    134184.21   -41884.718    2604.2381   -44488.956    37.134794   0.93076149 
   90200    207.24269   -320.24535    134178.34   -41907.923     2578.493   -44486.416    37.208583   0.93080216 
   90300     206.5681    -224.5467    134056.84   -41921.608    2570.0998   -44491.707    36.951536   0.93164581 
   90400    207.67184   -216.98227    134083.69   -41909.656    2583.8325   -44493.489    36.991341   0.93145924 
   90500     207.5046   -228.29437    134113.57   -41873.009    2581.7518   -44454.761    37.045736    0.9312517 
   90600    213.23807   -373.52336    134136.92   -41787.397    2653.0869   -44440.484    37.225299   0.93108957 
   90700    211.87033   -275.01826    134125.01   -41793.396    2636.0696   -44429.466    37.220515   0.93117225 
   90800    209.64447   -261.10592    134204.89   -41825.069    2608.3758   -44433.445    37.186459   0.93061805 
   90900    208.19457   -204.44638    134104.03   -41914.883    2590.3363   -44505.219    37.021859   0.93131796 
   91000    208.05915   -268.27077    134020.93   -41933.658    2588.6513   -44522.309     37.07978   0.93189541 
   91100    205.30732   -290.88208    134221.15   -41919.542    2554.4134   -44473.955    37.185414   0.93050533 
   91200    208.54268   -218.97834    134154.03   -41879.964    2594.6675   -44474.632    37.250869   0.93097087 
   91300    207.30995   -271.49454    134130.35   -41784.008    2579.3299   -44363.338    37.309445   0.93113521 
   91400    212.32806   -200.34645    134035.53   -41760.204    2641.7647   -44401.969    37.143364   0.93179388 
   91500     210.6935   -245.82501    133968.78   -41764.448    2621.4277   -44385.876    37.180064   0.93225816 
   91600    211.69937   -324.54072    134103.26   -41806.404    2633.9426   -44440.347    37.144307   0.93132333 
   91700     211.0006   -395.14268    134158.53   -41880.842    2625.2486    -44506.09    37.133419    0.9309396 
   91800    213.65187   -185.51663    134072.23   -41845.949    2658.2355   -44504.185    37.137497   0.93153887 
   91900    209.16224   -194.97851    134227.24   -41848.241    2602.3759   -44450.617    37.455694   0.93046309 
   92000    210.96835   -118.31728    134220.12    -41857.82    2624.8474   -44482.668    37.528252   0.93051245 
   92100    208.44745   -276.70729    134192.65   -41887.598    2593.4826    -44481.08    37.395624   0.93070295 
   92200     213.3918   -148.63479    134200.08   -41830.531    2654.9997    -44485.53    37.537858   0.93065142 
   92300    210.41895   -152.65571    134166.21   -41751.444    2618.0118   -44369.456    37.499807   0.93088634 
   92400     214.6835   -148.04362    134281.74   -41763.602    2671.0708   -44434.673    37.693446   0.93008542 
   92500    208.84909   -300.96766    134291.03   -41804.134    2598.4797   -44402.614    37.535299   0.93002107 
   92600    211.68744   -262.26516     134376.8   -41773.918    2633.7943   -44407.712    37.705565   0.92942746 
   92700     212.8852   -213.66178    134238.46   -41770.248    2648.6966   -44418.944    37.802861    0.9303853 
   92800    213.22749   -201.35381     134320.9   -41818.567    2652.9553   -44471.522    37.938842   0.92981426 
   92900    213.33648   -204.20289    134427.76   -41796.654    2654.3115   -44450.966    37.938104   0.92907516 
   93000    209.53413   -233.67722    134472.17   -41826.765    2607.0029   -44433.768    37.756005    0.9287683 
   93100    211.14755   -317.75263    134392.23   -41768.058    2627.0769   -44395.135    37.586568   0.92932079 
   93200    210.89923   -178.19575    134261.22   -41793.402    2623.9874   -44417.389    37.656541   0.93022757 
   93300    211.47268   -273.21193    134339.73    -41811.47    2631.1222   -44442.592    37.687838   0.92968397 
   93400     205.6204   -324.90527    134226.72   -41848.305    2558.3087   -44406.614    37.751187   0.93046672 
   93500    206.97523   -237.18118    134333.48   -41887.525    2575.1654   -44462.691    37.910893   0.92972723 
   93600    203.69595    52.978879    134392.04   -41954.014    2534.3648   -44488.379    37.836668   0.92932212 
   93700    207.20596   -264.91981    134421.38   -41921.638    2578.0361   -44499.674    37.650329   0.92911925 
   93800    208.72814   -135.22669    134286.07   -41875.901    2596.9749   -44472.875    37.819301   0.93005546 
   93900    207.21319   -308.28335    134357.91   -41854.842     2578.126   -44432.968    37.705002   0.92955818 
   94000    208.82922   -238.24475    134392.36   -41865.904    2598.2325   -44464.137    37.868377   0.92931991 
   94100    208.82203   -316.24379    134472.48   -41864.697    2598.1431    -44462.84     37.96579    0.9287662 
   94200    209.77805   -314.25156     134447.2   -41866.075    2610.0378   -44476.113    37.970318    0.9289408 
   94300    213.97826   -131.56706    134504.29   -41819.587    2662.2964   -44481.884    38.001552   0.92854651 
   94400     214.3231    -390.6731     134453.6   -41826.278    2666.5869   -44492.865    37.933751   0.92889656 
   94500    215.29193   -70.401229    134442.28   -41765.895    2678.6409   -44444.535    37.787772   0.92897478 
   94600    215.28391   -259.45212    134586.76   -41810.647    2678.5412   -44489.189    37.992977   0.92797757 
   94700    211.87817   -247.37476    134690.44   -41855.414    2636.1673   -44491.581    37.993482   0.92726321 
   94800    211.87637   -214.60385    134504.89   -41850.051    2636.1449   -44486.196    38.033053   0.92854239 
   94900    208.82847   -288.20855    134541.07   -41815.149    2598.2232   -44413.372    38.014707   0.92829272 
   95000    206.70256   -188.95169    134559.71   -41803.008    2571.7729   -44374.781    38.167514   0.92816407 
   95100    207.76763   -383.29389    134560.81   -41789.594    2585.0243   -44374.619    38.093702   0.92815649 
   95200     213.3759   -309.60033    134433.72   -41826.228    2654.8018   -44481.029    38.089144   0.92903397 
   95300    218.95787    -297.9682    134473.78   -41729.103    2724.2522   -44453.355     38.01984   0.92875722 
   95400    212.85533   -212.88661    134458.02   -41793.363    2648.3249   -44441.688    38.125296   0.92886605 
   95500    209.51042   -223.27053     134387.1   -41805.165     2606.708   -44411.873    37.929993   0.92935626 
   95600     213.3835   -225.79348    134465.96   -41797.939    2654.8964   -44452.835     38.01441   0.92881119 
   95700    211.41933   -293.26267    134379.44    -41853.81    2630.4584   -44484.268    37.891869   0.92940925 
   95800    208.20618      -384.32    134358.65    -41898.81    2590.4807   -44489.291    38.042726   0.92955307 
   95900     209.1184   -275.85111    134424.67   -41852.801    2601.8305   -44454.632    37.922475   0.92909652 
   96000    210.10483   -388.87735    134408.51   -41929.151    2614.1035   -44543.254    37.917622   0.92920819 
   96100    209.11945   -155.52953    134409.31    -41881.49    2601.8435   -44483.334    37.974913    0.9292027 
   96200    208.03751   -325.79844    134467.08   -41921.471    2588.3821   -44509.853    38.065736   0.92880348 
   96300     210.0701   -218.01423     134374.8   -41869.083    2613.6714   -44482.754    38.099824   0.92944134 
   96400    207.91777   -287.86512    134267.84     -41852.9    2586.8924   -44439.792    38.029506   0.93018175 
   96500    207.05417   -261.67283    134357.22   -41896.914    2576.1475   -44473.062    37.929012   0.92956294 
   96600    207.02675   -176.94211    134370.44     -41891.3    2575.8063   -44467.107     37.99668   0.92947147 
   96700     210.2889   -225.37353    134413.04   -41971.411    2616.3937   -44587.805    38.122084   0.92917692 
   96800    204.43463   -289.66965     134460.5   -42023.049    2543.5555   -44566.605    38.086712   0.92884893 
   96900    203.13722   -252.13877    134375.53   -41950.345    2527.4132   -44477.758    38.213551   0.92943629 
   97000    208.47154   -223.40373    134430.92   -41939.006    2593.7823   -44532.788    38.213982   0.92905333 
   97100    208.88973   -339.94781    134461.76   -41924.899    2598.9854   -44523.884      38.1912   0.92884021 
   97200    211.01485   -220.93985    134494.15   -41931.803    2625.4259   -44557.229      38.2953   0.92861652 
   97300    210.43593   -304.94496    134411.71   -41936.443     2618.223   -44554.666    38.301766   0.92918612 
   97400     209.0212   -301.09845    134386.67   -41937.105    2600.6211   -44537.726    38.219304   0.92935923 
   97500    210.84984   -271.98202    134461.89   -41845.399    2623.3728   -44468.772    38.171763   0.92883932 
   97600    208.80905   -177.65267    134589.22   -41910.454    2597.9816   -44508.436    38.258331   0.92796056 
   97700    211.69366   -244.57294    134711.43   -41845.248    2633.8716    -44479.12    38.317129   0.92711876 
   97800    211.40733   -166.24548    134618.18   -41824.602    2630.3091   -44454.911     38.51863   0.92776095 
   97900    210.64264   -279.75306    134722.03   -41796.821    2620.7949   -44417.616    38.333872   0.92704578 
   98000    210.62518   -346.81464    134693.36   -41820.695    2620.5776   -44441.273    38.303732   0.92724309 
   98100    209.06634   -360.99385    134628.98   -41890.352    2601.1827   -44491.534    38.302969   0.92768654 
   98200    212.08105   -260.73762    134512.45   -41860.517    2638.6914   -44499.209    38.450787   0.92849022 
   98300    210.19734   -281.65517    134586.72   -41885.956    2615.2546    -44501.21     38.34089   0.92797783 
   98400    206.99561   -454.16876    134475.21   -41894.494    2575.4189   -44469.913    38.418602   0.92874735 
   98500    206.39617   -266.13935     134540.2     -41899.9    2567.9607   -44467.861    38.501928   0.92829869 
   98600    207.53881   -340.70932    134603.82   -41921.558    2582.1773   -44503.735    38.406925   0.92785991 
   98700    205.85845   -235.94313     134475.3   -41972.546    2561.2705   -44533.817    38.423639   0.92874671 
   98800    206.63619   -276.51098    134304.33   -41941.706    2570.9471   -44512.653    38.572872   0.92992902 
   98900    209.58078    -283.1888    134470.78   -41939.396    2607.5833   -44546.979    38.554846   0.92877793 
   99000    203.18025   -253.80332    134277.54   -41968.988    2527.9486   -44496.937    38.538275   0.93011456 
   99100    210.01378   -271.14887    134317.57    -41887.18    2612.9707   -44500.151    38.423826   0.92983732 
   99200    210.41783   -115.08681    134345.15   -41877.151    2617.9979   -44495.149    38.414384   0.92964646 
   99300    208.55366   -239.42804    134323.35   -41840.333     2594.804   -44435.137    38.613621   0.92979729 
   99400    211.53876   -331.62208    134358.42   -41814.657    2631.9443   -44446.602    38.550722   0.92955462 
   99500    214.96927   -276.55796    134376.83   -41704.946    2674.6264   -44379.572    38.618588   0.92942729 
   99600    213.61586   -224.89452    134419.36   -41737.938    2657.7874   -44395.725    38.551532   0.92913319 
   99700    214.37292   -211.96036    134344.12   -41746.478    2667.2066   -44413.684    38.550592   0.92965354 
   99800    209.65152    -255.3369    134213.99   -41760.562    2608.4635   -44369.025    38.485755   0.93055494 
   99900    210.39991   -207.02586    134264.89    -41819.54    2617.7749   -44437.315    38.352032   0.93020215 
  100000    210.58282   -356.79694    134290.62   -41838.495    2620.0507   -44458.546    38.468703   0.93002392 
  100100    215.02872   -330.44911    134256.25   -41766.883    2675.3661   -44442.249    38.552625   0.93026203 
  100200    209.97352   -246.23427    134351.73   -41778.226    2612.4698   -44390.696      38.6234   0.92960092 
  100300    213.30148   -112.13219    134284.96   -41767.328     2653.876   -44421.204    38.537789   0.93006317 
  100400    210.29368   -278.01428    134253.97   -41798.492    2616.4532   -44414.945    38.721357   0.93027783 
  100500    213.10954    -300.8744    134139.72   -41734.314    2651.4878   -44385.802    38.675313   0.93107013 
  100600    213.23984   -101.03567    134133.95   -41812.229     2653.109   -44465.338    38.776681   0.93111021 
  100630    212.03062   -324.36533    134182.29   -41794.884     2638.064   -44432.948    38.762229    0.9307748 
Loop time of 72.7855 on 6 procs for 100000 steps with 4175 atoms

Performance: 593.525 ns/day, 0.040 hours/ns, 1373.901 timesteps/s
98.3% CPU use with 6 MPI tasks x no OpenMP threads

MPI task timing breakdown:
Section |  min time  |  avg time  |  max time  |%varavg| %total
---------------------------------------------------------------
Pair    | 58.794     | 59.226     | 60.494     |   7.6 | 81.37
Neigh   | 4.7272     | 4.7542     | 4.7729     |   0.7 |  6.53
Comm    | 4.9841     | 6.2688     | 6.677      |  23.8 |  8.61
Output  | 0.15933    | 0.16009    | 0.16371    |   0.4 |  0.22
Modify  | 1.7397     | 1.7653     | 1.7943     |   1.3 |  2.43
Other   |            | 0.6116     |            |       |  0.84

Nlocal:        695.833 ave         705 max         687 min
Histogram: 1 0 1 1 0 0 1 1 0 1
Nghost:        1451.83 ave        1462 max        1438 min
Histogram: 1 0 0 0 1 1 1 1 0 1
Neighs:        0.00000 ave           0 max           0 min
Histogram: 6 0 0 0 0 0 0 0 0 0
FullNghs:      18935.0 ave       19265 max       18624 min
Histogram: 1 0 1 2 0 0 0 0 0 2

Total # of neighbors = 113610
Ave neighs/atom = 27.211976
Neighbor list builds = 5179
Dangerous builds = 0

undump              1
unfix               2
unfix               3
unfix               4


################################################
#######         Run Simulation         #########
################################################

reset_timestep      0
log                 log.run_${NAME}
log                 log.run_liquid_density_MLmW
