LAMMPS data file via write_data, version 29 Oct 2020, timestep = 800000

4175 atoms
1 atom types

-0.5266463178153451 50.52664631781038 xlo xhi
-0.5266463178153451 50.52664631781038 ylo yhi
-0.5266463178153451 50.52664631781038 zlo zhi

Masses

1 18.015

Atoms # atomic

3225 1 45.111668138570664 21.550232558070423 14.516712656781232 -1 0 0
2071 1 49.41219679472884 13.951782660960092 -0.24941150463100042 -1 0 1
9 1 5.804885720896858 6.4469163766531 -0.4451149617672436 0 0 0
546 1 10.125941771850318 0.33948733852941015 2.4843048258531066 0 0 0
3585 1 14.091131012513445 0.2509988866299975 0.9005091149249869 0 1 1
3483 1 12.924789471095957 2.7051788131093715 0.7151328304800157 -1 1 1
509 1 18.44639769397796 1.0609671072715605 2.6144574328260775 -1 0 0
709 1 20.397123169019736 0.6097856201466927 0.5911542896480813 0 0 0
2183 1 11.139739658901606 23.890375716081188 7.8063919624348355 0 0 0
1465 1 29.13304405350575 2.552751339500935 0.8308757206909443 0 0 1
2606 1 47.29952482425715 23.467577801944195 15.101243397692231 0 0 0
1447 1 39.43146034086281 9.55683670791564 -0.3615175363637815 -1 0 1
3750 1 42.4291986847783 0.3583094898997884 1.3790751434243382 0 1 1
397 1 48.08683227512995 0.3465146124830625 2.014714876842734 -1 0 1
3948 1 -0.3202058518147908 3.7142843235097276 2.645910344422333 1 1 1
528 1 3.395887586629081 5.139975244431812 0.7206399404938608 0 0 0
3728 1 3.867219660004154 3.7388635319117105 3.217579327194936 0 1 0
309 1 6.888217632889007 2.3588312166513696 0.4746256705623073 0 0 0
3302 1 7.954083844294804 4.843862561666853 0.2112005848243379 0 1 1
4148 1 9.644192896593925 5.557187537616361 2.3408476289152507 1 1 1
263 1 1.2744906823586524 0.26366328758561053 1.834851168468059 0 0 0
1736 1 16.74215819608534 3.7050569399015956 3.131663771280415 -1 0 1
1039 1 21.998351858822293 1.6110520422908432 5.290022430184106 0 0 1
1490 1 24.275174223681184 4.851717634473651 0.2788035659275171 0 1 1
1613 1 25.057425061582883 4.443411281438605 2.952833551837382 0 0 1
153 1 31.593701214032958 1.7594809572289578 0.27688404890837615 0 0 0
1131 1 28.654129432512075 5.416604556618325 0.5544421638188486 0 0 0
982 1 36.72140119415995 2.0666581885904383 1.5525546323954824 0 0 0
3874 1 35.9191650572521 5.084487292244628 1.6948348314629005 0 0 1
3840 1 40.6766542045701 3.9289301057426353 0.9871664418756056 0 1 1
2129 1 43.20028526404337 3.024717242172099 1.6368103803580851 0 1 0
1312 1 45.916739445135704 5.74044979125354 1.1598987648889203 -1 0 0
1378 1 50.07564245509528 6.271759283759701 2.3490822675839813 -1 0 0
3908 1 1.2847321408445802 7.125128488032788 0.9233935836886371 0 1 1
1278 1 2.81708326502 8.86053615188954 2.267514611215523 1 0 1
3051 1 34.64494230118552 24.509647911302032 2.402509469610701 0 0 1
474 1 12.313911891517622 5.341532702287846 1.9451203671224406 0 0 0
2464 1 28.235814931249475 23.826620593351667 11.16629717660097 0 0 0
2496 1 40.770579832259386 -0.4272634537555007 11.713793431903081 0 1 0
931 1 14.081217845326831 7.533120728429557 2.13147068691998 0 0 0
1671 1 12.125786526833888 24.382681434086255 1.5574606001376248 1 0 2
3448 1 16.981434098966275 5.890893973337414 1.3284909250049153 0 1 1
3752 1 19.682791573782513 7.36793315282247 0.58987126637201 0 1 0
1854 1 23.089979530676217 7.508141002231268 -0.029061329658482682 1 0 1
1747 1 32.006645340154975 7.615733182599655 0.7134864921976749 0 0 1
3622 1 19.815498972095842 -0.05797876725548706 4.983389340081428 0 1 1
2218 1 3.5076248482220267 0.025830263383532448 15.485525648692555 0 1 0
4161 1 39.62367327896884 8.70260614629888 2.2968260298672467 0 1 0
190 1 41.398793230079306 6.4278444055304025 2.098288834204541 0 0 0
3239 1 43.835259182550274 7.547994052247905 1.228582571399965 0 0 1
3333 1 48.33867526643225 6.5108970057534625 6.667049746389431e-06 -1 1 0
3428 1 23.310291727516933 18.53013741446356 15.972189578915511 0 0 0
1023 1 0.9034735838105854 11.015917996477075 2.346593645912261 1 -1 0
3069 1 5.124841159692947 8.89826568498481 0.7291058301535513 0 1 0
2654 1 5.704804834261724 13.91014834684381 2.1466133138749175 0 1 0
860 1 11.018679351371867 10.470077708824414 0.6470307768926646 0 0 0
1455 1 12.674608358835147 9.900684867785746 2.645955517229126 0 0 1
831 1 39.59914491336892 19.563731134443902 -0.24701734974854134 0 -1 0
205 1 17.158475195273983 10.720322637515787 0.36529098578506247 -1 0 0
1433 1 20.08162720362349 10.298999004366108 0.4976639681084538 0 0 1
2732 1 21.64129915577623 11.865212730477197 1.985060667641894 0 0 0
3387 1 19.229772653128585 24.27485931484369 3.3916150459090764 0 0 1
2562 1 27.35075473561394 8.90681146846473 1.9243383048180687 1 1 0
2157 1 29.96995434847999 9.477147563257926 1.0884079266849396 0 1 0
1300 1 30.70248588168584 11.602822296046966 2.47207484881357 0 0 0
3992 1 35.427425003037555 10.61317710566137 0.9859535982771348 0 1 0
2339 1 37.736087902070025 11.563082922362875 -0.14283254209377383 0 1 0
2177 1 10.171871010082546 24.70184228456082 -0.48281504622699223 0 0 0
3423 1 42.74613914779208 12.237268207790528 0.24651704243307415 -1 0 1
2738 1 47.515701179005234 10.34081887696547 1.5131223407438408 -1 1 0
402 1 4.116972416642806 14.527723999332355 0.1785280627820789 1 0 0
668 1 8.298270568710459 12.138677182271435 1.6452148936183284 0 0 0
538 1 42.56771580591736 24.68073876042968 11.889598855579113 0 0 0
206 1 37.765623420649504 21.384699611568085 -0.2827353819402478 0 0 0
975 1 41.024713280125525 6.099199427017852 14.88237696693906 0 0 0
1912 1 18.25909602460062 14.43973463127672 1.4630170191590481 0 0 1
3702 1 22.712901722999927 13.694768494320632 0.000968371642213306 0 1 1
3438 1 28.992252264641007 13.964366696927533 2.9343402014123114 0 1 1
3393 1 7.816811219896495 24.623233511183912 4.716368052376219 1 0 0
1911 1 33.33777680980258 12.266632972500041 1.2173596345632107 0 0 1
379 1 34.43495092664337 14.373074680264109 2.4539678661405913 -1 0 0
1766 1 38.69794028796507 13.674697092613137 1.2499410749350954 0 0 1
3851 1 41.01823381755803 14.235262075531494 0.24288035618425263 0 1 1
4084 1 47.304619268008935 12.98086479815541 0.8638309311259886 0 0 1
1462 1 37.10833728507262 0.4253936284147869 4.731271148959803 0 0 0
443 1 -0.15813317076324557 15.694937693247649 1.2805077060542898 1 0 0
1579 1 2.3598356000330725 16.4637723810654 0.778865078170079 0 0 1
1746 1 3.2371195774091657 18.803214061423688 1.6984517375642532 0 0 1
512 1 7.307767366735726 17.53573949185956 0.5451315695785783 0 0 0
952 1 46.7089960304741 4.6144786312610035 16.03423561622331 0 0 0
1199 1 12.794978623325097 16.06349752324818 1.288380516096079 1 0 1
3091 1 15.334595696339258 16.354257588522394 1.0788406280759786 0 1 0
1415 1 19.8315601413714 16.843581293578573 2.1879171181680084 1 0 1
254 1 22.409405926346018 17.482388436689423 1.5528705072583158 0 0 0
1740 1 24.2144812020478 15.479458564730955 1.2305017380498218 0 0 1
1882 1 26.571432360246842 16.62526407505191 0.3395259487590041 0 0 1
1484 1 31.778542801852563 17.683893007004915 0.3619659132502674 -1 0 1
2387 1 36.542434555417344 15.714552174140145 1.458908165053564 0 1 0
169 1 40.08940738095251 18.53204555279763 2.1924117970347523 -1 0 0
121 1 41.99348769490119 16.4378016255871 1.7849763079093215 0 0 0
86 1 44.45248298761048 17.54141678767138 0.747723017294837 0 0 0
286 1 46.414769443444484 17.075825222181372 2.4457907140476207 -1 -1 0
3349 1 48.764334207958896 17.79595919901355 1.397717746882759 0 0 0
2691 1 42.32493559919121 3.6785097915042053 15.989957519175611 0 0 0
703 1 1.329310000646307 20.55291953229819 2.269877474458034 1 0 0
3983 1 5.7804352323112695 19.861114622587607 0.724141143179204 1 0 1
698 1 6.544467328981229 21.864421231813246 2.4802052569081146 0 0 0
134 1 9.83942904192336 20.35775078771813 1.6938517535115603 0 -1 0
706 1 3.0417996208975886 12.530306682905001 16.124807408466037 0 0 0
2258 1 14.411957914105914 21.45190216692513 0.8523228650127637 1 0 0
3480 1 15.826825361677368 18.947779574295744 1.3246331734773014 1 0 1
3332 1 18.41183916733346 19.34625132357162 0.9677965762628691 0 0 1
1099 1 22.742386121715956 21.55211067412404 1.7532314577555907 1 0 1
3977 1 25.921947250708023 21.252641918176927 2.16539239585398 0 0 1
3470 1 27.910890643927022 18.98237255594627 1.7406347368340902 0 0 0
2489 1 30.274500049076252 19.8208479474981 0.4473625634973746 0 0 0
359 1 35.68206585769646 20.336879077780857 0.703456166857797 1 0 0
3620 1 9.119732971658056 1.2104900227930764 0.043780336087996585 0 1 1
2755 1 43.636705062255245 21.369054906595927 2.379020919314652 -1 0 0
2432 1 44.204418202341685 20.158718442222973 0.018103293007118437 -1 0 0
2371 1 3.930286010169124 24.4022016459569 0.32855559312017346 1 0 0
2571 1 8.274296695546305 22.659810666016188 0.44123303346369724 0 0 0
1813 1 25.194873409963883 9.11759784365091 0.07349853578436083 0 0 1
2395 1 32.46104945790252 24.122914235708564 14.739058374736162 0 0 0
882 1 49.93712868839445 5.117165872299458 16.21538890330453 0 0 0
2620 1 12.060728474325163 21.86442051527432 2.5462504923192086 0 0 0
573 1 15.91344550423345 23.614761486302736 0.8047787520361369 0 0 0
2397 1 19.755517863537715 21.610290960947307 2.066665692672804 0 0 0
2761 1 23.058401005427587 24.338447158170528 1.6935988298348486 0 0 0
2989 1 30.393066656805367 22.3038630912217 15.527418389578592 0 0 0
555 1 29.306590770745434 23.82633047917873 2.1829675822806784 0 0 0
593 1 31.375156344980812 21.69844104998262 1.8680791138140083 0 0 0
1558 1 33.754303239168905 22.385890417663003 0.81107989801113 0 0 1
3273 1 10.429577509457992 24.680736688504727 14.070992639633683 0 0 0
2575 1 39.007678359828375 23.409589373998923 1.3534043102106181 0 0 0
1017 1 43.499404663585025 24.227768344062895 1.9175061014131725 -1 0 1
2299 1 41.4415621900272 23.983124503291243 0.30173551774142915 -1 0 0
1030 1 1.1507451210685238 6.872050481814414 16.182030060156492 1 1 0
961 1 28.736336143095595 24.87406452166459 -0.3102590555776527 0 0 1
3183 1 47.42286872127518 23.068226764293613 0.7799781979996705 -1 0 1
4174 1 2.629517557467536 0.76985284588809 4.172453545773935 1 1 1
2149 1 1.421897630621607 3.1620744792569564 4.789542311321544 1 1 0
1517 1 12.836571567992435 17.272616216921083 15.502157337956127 -1 0 1
2407 1 6.446954374963038 2.4541048414988027 3.1163110555841493 0 1 0
1560 1 45.18073910359357 3.6390796788948947 -0.1503191941837665 0 0 1
1132 1 14.649694094875883 2.3055323485032333 5.5411773472494446 0 0 0
2268 1 15.389920704479142 -0.42841907546351704 5.036270895410121 1 1 0
1449 1 46.4456717321692 0.8661050572028877 16.16826672283536 -1 0 0
2501 1 50.00228730655368 23.549856389775563 -0.3578144555511009 0 0 0
2907 1 24.616998261896292 0.40535380661932074 5.312117807328588 0 0 0
316 1 25.637766568629615 1.8336881259585152 3.2243176169686754 -1 1 0
441 1 28.3647512547341 1.3990959224278012 3.160547253367012 0 0 0
3644 1 30.596027867231626 2.1443657239884772 5.196489322385353 0 1 0
7 1 32.583834420438606 2.007321118455877 2.870067909292697 0 0 0
3523 1 34.90068494975493 0.415232238946048 2.870966482132801 0 1 1
609 1 0.6524523825613253 21.54084676086487 -0.15461821773216222 1 -1 0
3878 1 0.34149198646756784 2.34271150245488 0.41273900815339015 0 0 1
819 1 -0.43964314946997507 24.86867076486532 8.818660714924274 0 0 0
70 1 44.55408765338561 1.6459226421238706 6.153913658370393 -1 0 0
2544 1 40.331576479146264 24.186817423590636 13.69021361844314 0 0 0
2705 1 48.51500436709384 2.249847875207432 3.782528757277224 0 1 0
1757 1 50.01857497926993 1.787174629110173 5.908172333857835 0 0 0
136 1 4.248727326353165 5.434138311640087 5.388578293883075 0 0 0
2622 1 9.421947385822575 3.027125802547073 3.869072679909162 0 0 0
2042 1 12.014573351290908 2.8141933409018285 3.6774209084351943 0 0 1
2356 1 14.553822914506672 4.8918283853870355 4.110698473580483 0 0 0
2288 1 18.931743757134257 5.016710755836327 4.4878064441126435 0 1 0
2540 1 17.593458739994762 3.3745968782643203 6.354717621254836 0 1 0
2574 1 20.9041788614245 3.070927822785322 3.227645559321651 0 0 0
1908 1 22.87456818905313 5.251461722189131 4.172591172927855 0 0 1
487 1 33.8853172572848 4.535029146662781 3.5647864422090025 0 0 0
527 1 35.59283590248806 4.11684214343772 5.863156234958285 0 0 0
2281 1 39.07683015741341 2.863044132073882 2.901519599486354 0 1 0
2269 1 39.643513415910036 4.345852853866408 5.196749028845706 -1 1 0
958 1 42.14159353422974 5.335523819071971 4.525055990924426 0 0 0
3071 1 44.17925744457713 3.597157837881066 4.210829724885694 -1 1 0
2958 1 46.67372799000954 4.6041736318984565 3.6679251461091544 0 1 1
3748 1 3.0236373765344204 8.053510500851282 4.867809738620831 0 0 0
3959 1 6.694452152007668 6.117671165741562 5.486120483005105 0 1 0
3701 1 8.26220550006107 7.577349983547126 3.73636569405687 0 0 1
3029 1 15.076500157197883 7.5458908259967945 5.819690119337725 0 1 0
780 1 16.444323865411953 8.556530384887445 3.50704200504023 0 0 0
3220 1 19.188591891016767 7.736822114054807 3.2687279174957538 0 0 1
4163 1 22.123964879714634 7.76131050562141 2.682374764504815 0 1 1
3123 1 27.56799827059891 6.250373484392097 3.1000182664135205 0 0 0
2504 1 29.868329331803388 6.377365988900303 4.341544057168306 0 0 0
933 1 32.319171171806985 6.8155404295167665 3.055044216487933 -1 0 0
3619 1 37.35169496360491 7.527206413484272 2.557957221135971 0 0 1
632 1 37.637754928446185 6.151949666245781 5.275930365997486 -1 0 0
2787 1 42.93723074060159 7.47852037894018 5.937858418698209 0 0 0
3670 1 45.33617085020521 8.845373104264867 5.225262951649884 -1 1 1
513 1 47.102144973721266 6.767656766529462 5.368535141897746 -1 0 0
216 1 49.651359005566306 7.92853793670146 4.650822113795664 -1 0 0
2115 1 6.771948755679532 9.716500952607907 2.5314277112032015 0 1 1
3759 1 5.810926486564845 10.67253253725561 4.981963057098758 0 1 1
2471 1 10.59070112128773 9.24937065849717 4.746729204507356 0 1 0
2015 1 16.796306565562134 11.192293310813096 3.2962637256638696 0 0 1
75 1 19.205096964563772 8.931628894316367 5.86267093986215 0 0 0
2147 1 23.115842450735 10.314412162582629 3.7329954084298285 0 1 0
3433 1 22.026619929276706 9.691880466357938 6.227490864949163 0 0 0
2023 1 25.786721115451552 10.80975526378677 3.4794922339365355 -1 0 1
669 1 26.552054866508055 8.85523201455892 5.3098516039216745 0 0 0
2577 1 31.461062684002105 10.62301767636303 4.881656060723315 0 1 0
421 1 29.36484517467431 8.82768296165006 5.738743927430641 0 0 0
2697 1 33.4588556689438 8.59056123254936 4.986219368058468 -1 0 0
1390 1 35.65447908554006 9.611414691553783 3.517450799134319 0 0 0
3305 1 40.806588391850326 10.47428004886801 3.875340540603311 0 0 0
1002 1 43.0392497307035 11.730927918301877 2.706701025723023 0 0 0
4120 1 44.88551606027838 9.792080458187407 2.700449113079398 0 0 1
378 1 49.535074399239704 10.50981194225985 3.7169418412934174 0 0 0
1395 1 49.06538326741793 11.921410052691257 5.948494285138404 0 0 0
1846 1 1.895551449919846 12.87091839733385 4.022873584042675 1 0 1
3031 1 0.19978130104625724 15.187433891542542 4.169229489586141 0 0 1
608 1 4.552617662005243 12.946080746973143 4.414073848394736 1 -1 0
3933 1 5.661532030123131 14.71913033124144 6.19910976757845 0 0 1
1416 1 8.401756722587828 13.638071667478476 6.052354438751834 0 0 1
4031 1 9.432127663864003 13.988062786358222 3.420449845929818 0 1 1
1452 1 11.929119777134165 13.66313136382183 2.5272011915865655 0 0 1
1054 1 13.96668988266699 13.269715168141264 5.980180440488207 0 0 0
1522 1 14.231050524616393 12.048074363276562 3.603455226940465 0 0 1
2187 1 18.712558606439494 12.26566622962951 5.276519355051686 0 0 0
2338 1 20.355419910213975 13.593311107447509 3.480541191322345 0 0 0
3985 1 22.544826184198488 14.386531846602205 5.196068508740345 1 0 1
3493 1 24.671372999131247 15.18291732774491 3.799187640570276 0 0 0
919 1 26.71464249062797 13.210582982885331 4.084248377420994 0 0 0
285 1 35.370673835118424 13.535236364418767 4.999746264666946 0 0 0
1914 1 37.261422514986066 11.280299738754804 4.951290204735492 0 0 1
1412 1 39.31569345776224 12.710425320213442 3.8046462572440936 0 1 1
1238 1 40.428769062336414 14.385130631463387 5.577304101459479 0 0 1
3627 1 42.500998370945965 15.58400890267033 4.474072099980596 0 1 1
817 1 44.3398947445793 13.62670449198419 4.156227017999929 -1 0 0
3958 1 46.71267021178795 14.402904650191966 3.240738387696441 0 0 1
2553 1 48.66244497689634 14.475001064624983 5.1799400442604915 0 0 0
145 1 1.3322375595162523 17.54592323076608 5.297673007210897 0 0 0
300 1 6.002022999846848 17.209049994424554 4.79391382681629 0 0 0
1076 1 3.4948644359404692 19.016784419697004 4.570607139728098 1 0 0
1596 1 8.079777142005227 16.52061393905552 2.9567943118333617 1 0 0
960 1 12.07887330772721 17.064439857815962 3.8480103618124293 0 -1 1
369 1 9.65213112432659 18.597479956696862 3.7736405968474998 0 -1 0
3755 1 16.243373841025537 14.688608541799107 3.003329380546868 1 0 1
4025 1 17.076064441925713 16.369269558084383 5.038658184154187 0 1 1
950 1 19.590742946121527 17.390891143541648 4.741068575571694 0 0 0
13 1 25.62919250050173 17.528675260693195 5.034991148459478 0 0 0
1871 1 28.140746719104456 18.02409893241428 4.215742544421273 0 0 1
2321 1 30.06235454627959 15.944424903401178 4.338629032727092 0 0 0
465 1 32.54310408921366 16.365451130644974 2.968547788828297 -1 0 0
705 1 37.73016738897863 17.478985577422723 3.193880259281774 0 0 0
1727 1 38.57367737995894 16.267404259145835 5.548509280323707 0 0 1
547 1 43.29980926985445 17.453901290612013 6.055180870267266 -1 0 0
2283 1 45.710435797284575 18.562833892373476 4.754579143165233 0 0 0
794 1 3.0140726216423324 21.211957479084777 6.291967834121723 1 0 0
457 1 9.651709089814275 20.21945185444411 5.736010280752565 0 0 0
2192 1 14.285557717969203 18.7599701147338 3.8345854998243327 0 0 0
2134 1 19.324378686054473 20.162215322508295 4.59846538216706 -1 1 0
2923 1 24.073312017842234 19.194837494168723 3.4165705020862402 0 0 1
4108 1 22.128934473937626 20.14652732962367 5.33334934836951 0 0 1
1789 1 29.356188656122246 19.91745771707465 6.282222545385923 0 0 1
2667 1 31.697683378710078 20.466338191544097 4.479990138105307 0 0 0
370 1 33.57313182791731 18.36728829500323 4.511263854632512 0 0 0
2075 1 35.781100358523105 19.4002729118181 3.2905570191585665 -1 0 1
1096 1 37.17103663080724 21.447082006943354 4.735968548661174 0 0 0
674 1 41.41501105079158 20.649661701444085 3.6374928283949286 -1 -1 0
824 1 41.79819766884886 19.670299450048738 6.117644864322961 0 0 0
3401 1 45.52900935004 21.193033373089413 4.18072445098813 -1 0 1
1586 1 49.72097680189772 19.93003913214755 2.9407833280923796 0 0 1
175 1 50.11307017948212 19.118834689988475 5.378217206526217 0 0 0
3527 1 48.10199552321485 22.066344012191745 3.229094694574502 0 0 1
2634 1 5.6741923220657 -0.03887200260996487 3.958790906062988 0 1 0
688 1 2.224416697179647 22.399134074778612 3.889895665641655 1 0 0
2640 1 4.485545960200774 23.664632785929452 2.8259442596289728 1 0 0
3315 1 7.393416725263626 21.87341935306074 4.9531312463032915 1 0 1
614 1 38.05043721208425 0.6762348074755178 -0.43210278111839473 0 0 0
1961 1 13.640091828880466 21.430166007942553 4.867407497132343 0 0 1
1195 1 15.433407691111762 23.413148731955314 5.324480966796146 0 0 0
1504 1 3.3564673861721417 -0.47792456318524046 0.05709645478469838 0 0 0
450 1 23.115722847844 22.89523948745768 4.596283748919296 0 0 0
2350 1 27.098752915813062 23.332026349045485 3.6852670635468137 0 0 0
3909 1 28.50291318770036 22.830914902088573 6.110061445991739 0 1 1
3514 1 32.8519010381452 22.489525984846125 5.8580716975805736 0 0 1
1859 1 35.187769615760885 23.33881641514006 4.829271473628415 0 0 1
500 1 39.6703404541573 22.746303345616706 4.059082713548632 0 0 0
3938 1 40.52197917050378 24.563852042066006 5.404076969872201 0 1 1
2490 1 49.45350121051719 23.68212400706899 4.937205091431562 -1 0 0
2148 1 3.0743640871465177 1.124583074966354 8.006994254719526 0 1 0
360 1 5.524780586532647 0.47551457201824254 6.546686870117425 1 0 0
2216 1 7.012593516830642 2.70772574477287 7.651414893110507 0 1 0
3686 1 9.695098755459714 1.2311806605563063 6.329435340682847 1 1 1
1714 1 12.404510028456025 1.5125593566553222 7.1188304007167815 1 0 1
166 1 15.491285654143685 3.9213959252492323 -0.1502109679848353 0 0 0
2910 1 11.1113014121821 20.686355030263762 15.2749006724909 0 0 0
215 1 19.2051760485189 2.0009922474288224 8.55800456399152 0 0 0
59 1 21.647732432491015 3.1802908586911536 0.5654091558543213 0 0 0
3856 1 23.696992083749084 2.9751650616066687 8.73789323876305 0 0 1
3587 1 21.46362594503226 3.123787664189113 7.466817213105032 0 1 1
1066 1 0.5826201319871935 24.35543435364667 3.847659292652412 0 0 0
2641 1 25.86925479770357 2.1260634016222206 7.242009506625729 0 1 0
1396 1 31.504483621847438 0.607534204636784 7.541793249569908 0 0 0
750 1 34.01950018667981 1.226322873502413 8.61501040179903 0 0 0
239 1 36.261332271924175 1.704067365060168 6.882728735551217 0 0 0
3590 1 38.40177510663912 1.9845927477074228 8.791632705854518 -1 1 1
2587 1 40.40392097508216 2.460008667750964 7.315374358813455 0 1 1
435 1 45.288821450999194 2.0572658274782047 8.913909997264904 0 0 0
161 1 0.45770974743610715 4.6501352247514545 9.354933001820676 1 0 0
1688 1 2.38092517914993 3.944070533584598 7.406838142705564 0 1 0
1370 1 4.721823631165571 4.149730070856652 8.558122680766035 1 0 0
2569 1 8.750244297824906 4.314799920842514 6.4444481198799 0 0 0
1822 1 10.108304842567794 4.758012611705202 8.814506902256406 0 0 1
2537 1 12.59148736114448 3.8479571433279993 9.011710623497592 1 1 0
3512 1 15.225675131693585 5.045655626661192 7.2922562205025 1 1 1
1172 1 18.186806302594682 5.62371238587795 8.69831943480982 0 0 0
3012 1 20.336738557227374 5.499179848861155 7.044051438522507 0 1 1
749 1 27.11623543211743 4.561989779016504 7.480850362362922 0 0 1
289 1 29.64151920008591 4.5255516912763625 6.400886906247593 -1 0 0
659 1 42.189805836938575 2.8899415024402133 9.429047302268911 0 0 0
2359 1 45.7406600536993 4.857355441058621 9.283208069655064 0 1 0
455 1 49.26390320047325 3.4024985705278277 8.428575974363696 0 0 0
730 1 47.79296308436986 5.8275425748433936 7.853375207378146 0 0 0
1995 1 0.8473609846391437 9.013130813819906 6.215956187851943 1 0 1
1031 1 0.9070416914988648 7.32785031802388 8.689769863685907 1 0 0
3608 1 5.425768049151493 6.508610498396764 9.456433673670885 0 1 0
1113 1 6.596878396006268 7.876480104277819 7.507401839568679 1 0 0
2261 1 10.82154543156025 7.328741854128478 8.393847786263668 0 0 0
2726 1 12.511966130793969 8.592335341943103 6.494068230788861 1 1 0
275 1 17.36775169551863 8.002822878142407 7.566526206744632 0 1 0
988 1 22.960090538870457 7.003682034274134 7.03935540225178 0 0 0
438 1 25.47935148072745 6.313066319486692 5.757814841494477 0 1 0
1335 1 30.394431056745344 8.32840829563055 8.415795992481302 0 0 1
2965 1 31.23756533945067 5.634897337145794 8.165069653069288 0 1 0
1377 1 33.896233837687845 5.155075633375046 7.949148073395865 -1 0 0
47 1 33.64193195905196 8.113729517758566 8.175049407350299 0 1 0
1631 1 38.701645931076584 7.606351241436229 7.63604823974571 0 0 1
2316 1 44.07406237415948 6.9547738803288865 8.486654232766757 -1 1 0
2196 1 49.130212626918194 7.362725938236446 9.695217892890598 0 1 0
2448 1 0.8922494283358848 11.894771136055232 6.524179709565895 1 1 0
1872 1 4.402284344741859 9.367970266818366 7.003738676040228 0 0 0
2741 1 3.746115938296591 10.806646252096376 9.551467482385858 1 1 0
1768 1 8.607604897826583 10.826454688901261 6.137817666715556 0 0 1
2677 1 8.599651835003565 9.61421958766244 8.76962730048989 0 1 0
298 1 10.767723336008597 11.611362293615063 9.243259696199845 0 0 0
2045 1 12.95572586983227 11.170001643696517 7.581450704415557 0 1 1
2372 1 15.262027284881343 11.867528565935917 8.858944603024678 0 0 0
1494 1 16.675684943825377 9.729161344073292 9.343188610571097 0 1 0
1351 1 20.336203609947102 11.783870132920539 7.224621458424418 0 0 0
3826 1 23.701471731287885 10.830318184818378 8.237220869462739 0 1 1
3045 1 26.226770305355487 10.556601952089657 7.498078792046606 0 1 0
582 1 36.62162820523258 9.19168078653992 8.455699048791178 0 0 0
317 1 36.5233727687272 11.786668563722271 7.802543095966364 0 0 0
2897 1 41.01455197367416 9.12404711224455 6.274271715890816 0 0 0
2567 1 42.20162855368409 11.215978097408527 7.72801958285298 0 0 0
2767 1 46.5833411430756 10.759552099991618 6.767082515451257 -1 1 0
3842 1 2.0948662022775983 13.132728647878753 8.91066595508498 1 0 1
210 1 4.815619861864987 14.016117849037855 8.852768898469213 0 0 0
57 1 9.785533171726733 15.533235856676566 7.571019526062521 0 0 0
2131 1 16.750697528319478 13.989069670406929 6.4575193186438895 0 0 0
1006 1 17.02830510892791 14.748416664506559 8.967878965772012 0 0 1
3563 1 23.074964616918372 13.573723801868924 7.679019832231782 0 1 1
2714 1 25.414080862061724 14.624189583227272 8.651937566425023 0 0 0
1611 1 27.169135321159846 13.011590038019952 7.027871888293361 0 0 1
405 1 29.320711927014912 14.467333391019451 8.258487971575668 0 0 0
339 1 32.76531915454716 12.93164198209486 6.0666730152046275 0 0 0
446 1 33.72180785858123 12.396125077144832 8.61543067971275 -1 -1 1
1334 1 37.39839111387772 15.91853166144314 9.55414010754396 0 -1 0
144 1 38.20075044309763 13.21673686741172 9.448963023585307 0 0 -1
2113 1 40.45544994702345 13.094533769027173 8.223998417526 0 0 0
1021 1 44.41385965867124 12.488800651268242 6.646203498772497 0 0 0
1486 1 45.9130068389221 14.37295320180314 8.313217015130979 0 0 0
1618 1 1.63125276843322 17.064771991733824 8.140793614769986 0 0 1
1052 1 4.150837014386894 16.71527479367587 9.414768571035843 0 0 0
170 1 5.849127284699952 18.260220168807702 7.5550055857438245 0 0 -1
3711 1 8.723304375864142 18.239680358094578 7.623908465382133 0 1 1
3113 1 12.17243702418686 15.447648177584265 6.1005997524754925 1 0 0
993 1 13.531555483823102 17.209746911169333 7.779503292487382 0 -1 1
696 1 15.57399202555985 18.17427803886113 6.1530307644644635 0 0 0
2628 1 21.068687240731975 16.45914146971307 6.807009620429124 1 0 0
3043 1 18.813885451039912 17.09625039860221 8.790795273303798 0 0 0
2718 1 22.58680052426102 18.87409611337388 7.977280888298049 -1 1 0
1956 1 24.7171713193227 17.571399767075935 7.493599520161778 0 0 1
784 1 31.24162609973453 15.043160781433894 6.61864632465968 0 0 0
1214 1 32.756749787275595 16.56412884565929 8.4971564616131 -1 -1 0
1616 1 34.69365842221916 17.611034374821234 6.841872550172689 0 0 1
863 1 36.235124907601545 15.515225041452279 6.81943514862892 0 0 0
2678 1 43.97767102821358 16.505105590962234 8.625073309443602 0 1 0
91 1 41.50192373488633 15.368557919503957 9.35371541600305 0 0 0
3108 1 48.18349902465512 15.860526177586287 7.4796986797433505 -1 1 1
2572 1 50.27493318815327 16.366708596288397 9.248565664558402 -1 1 1
586 1 47.88205975106155 18.256907994130067 6.625013077850265 0 0 0
1918 1 0.4459848244162935 20.620862421785034 7.357167787901051 0 0 1
3911 1 5.7014769193645 20.947308254284536 7.114812312645367 0 0 0
2785 1 12.431284639865208 19.665088801341735 8.756668578163037 1 0 0
101 1 18.968370676092185 21.22477409911825 7.169562197583026 0 0 0
1267 1 17.24689041868241 19.22330162250526 8.132394288518508 0 0 0
539 1 23.65300813722953 21.42473770943254 9.002569243822796 1 -1 0
4075 1 27.33100384646211 18.557177608062055 8.13408263482392 0 0 1
2162 1 30.98299902293619 20.3823653917606 8.628314361045755 0 1 0
373 1 35.29837396103491 19.95656642939039 8.332873187993517 -1 -1 0
838 1 37.92839216576871 20.692608153212444 7.149386420971346 0 0 0
1168 1 39.48716765895837 18.67317661505197 6.909025604445663 0 0 0
3720 1 42.922312646784576 21.556720264836247 7.834962246402709 0 0 0
2728 1 46.93707385778525 19.419423139973915 9.105114523220092 -1 0 0
434 1 3.133273758423015 23.317694933430378 8.454428921926194 0 0 0
4068 1 6.045614276363877 22.924606224080087 9.267896822556606 0 1 1
3871 1 11.665730249649423 21.230085861427607 6.784587087624736 0 0 1
222 1 39.368671525616946 21.79494573083494 14.175638749575459 0 0 0
1148 1 17.35611017009919 23.264966078821164 7.340944660007432 0 0 0
2086 1 20.91506190598879 22.70520528115079 8.815946191814078 0 0 0
3828 1 27.25764941156211 24.21726046595122 8.468172815513048 -1 0 1
313 1 11.782665018287421 12.912540925360776 -0.03762411342361571 1 0 0
2579 1 33.29623194876419 21.85154356408656 8.459500779354535 0 0 0
1028 1 34.48375620308995 24.029319075608978 10.113504068350537 0 0 0
3835 1 38.55158450012138 22.8812048386357 9.058796006212035 0 0 1
2662 1 40.917987323803956 23.330766803287773 7.952919842030431 -1 0 0
1488 1 46.99127285123747 22.170285422137958 8.800478477642454 0 0 1
1946 1 45.23158478187902 22.646209292651502 6.649946363511076 0 0 0
2555 1 9.989885259249498 17.95157208549559 16.04944663388978 1 0 0
504 1 49.42656514548531 22.61868306685684 7.458929089930366 -1 0 0
2930 1 21.760315309019287 20.840775496698573 16.275735566657307 0 1 1
3671 1 3.682517302030308 0.617258112322427 10.644862444861728 0 1 0
1173 1 8.187069427870407 0.9668595228472645 11.947326829911354 0 1 1
3998 1 7.786904970288731 -0.4256311889124439 15.623950860856787 1 1 1
3501 1 11.37607911318138 1.9139191345545346 10.92413389955791 0 1 1
3396 1 17.029613147815994 1.2887480295351665 11.747892326566442 1 1 1
3342 1 19.23468550297632 3.2254577658726764 11.009049825715552 0 1 0
3213 1 27.192012996515857 0.7546255558441111 9.46712350562729 0 1 0
2171 1 29.965443988681688 0.7110360354489693 9.975960813989397 0 1 -1
734 1 30.593357693826995 2.8087974145025134 11.769527692598055 0 0 0
4049 1 33.292898269889875 2.1671438077642837 11.290315058824678 0 0 1
1515 1 35.683109764969785 0.7901780740953814 12.430286320942091 0 0 0
3324 1 37.692307693205194 2.5617866736282724 13.626356994041371 0 1 0
2883 1 40.005941487004094 0.12572005466542502 3.138104885410934 0 0 0
56 1 25.981995063505046 13.771491318972203 16.158636175910765 0 0 0
923 1 41.84955427492356 1.9645791861208304 11.941086078450336 0 0 0
163 1 38.7320696819378 0.0540168926575153 15.314523941008213 0 0 0
1145 1 50.044730461619636 1.5424596932818941 11.473407407159929 0 1 0
1527 1 48.00272123007356 1.0700292805392366 9.571035773813383 -1 0 1
3936 1 -0.060487348592047296 3.938684465210806 12.345881309871029 1 1 1
2610 1 4.6264531611696205 3.147543180774808 11.5670420668782 1 1 0