
# Create simulation box of size 50 x 50 x 50 Angstrom
#
lattice	            sc 1
Lattice spacing in x,y,z = 1.0000000 1.0000000 1.0000000
region 	            all block 0 50 0 50 0 50 units box
create_box          1 all
Created orthogonal box = (0.0000000 0.0000000 0.0000000) to (50.000000 50.000000 50.000000)
  1 by 2 by 3 MPI processor grid

# fill box with 4175 randomly distributed atoms
#
create_atoms        1 random 4175 63782 all
Created 4175 atoms
  create_atoms CPU = 0.001 seconds
mass                1 18.015

# Define potential
#
pair_style          sw
pair_coeff          * * ML_mW.sw mW
Reading sw potential file ML_mW.sw with DATE: 2019-02-27

# Run minimization
#
minimize            1.0e-8 1.0e-8 10000 1000
WARNING: Using 'neigh_modify every 1 delay 0 check yes' setting during minimization (../min.cpp:187)
Neighbor list info ...
  update every 1 steps, delay 0 steps, check yes
  max neighbors/atom: 2000, page size: 100000
  master list distance cutoff = 6.0032907
  ghost atom cutoff = 6.0032907
  binsize = 3.0016454, bins = 17 17 17
  1 neighbor lists, perpetual/occasional/extra = 1 0 0
  (1) pair sw, perpetual
      attributes: full, newton on
      pair build: full/bin/atomonly
      stencil: full/bin/3d
      bin: standard
Per MPI rank memory allocation (min/avg/max) = 4.255 | 4.258 | 4.261 Mbytes
Step Temp E_pair E_mol TotEng Press 
       0            0    7792709.3            0    7792709.3    5898794.3 
     630            0   -45180.336            0   -45180.336   -154.07449 
Loop time of 1.13564 on 6 procs for 630 steps with 4175 atoms

99.2% CPU use with 6 MPI tasks x no OpenMP threads

Minimization stats:
  Stopping criterion = max force evaluations
  Energy initial, next-to-last, final = 
      7792709.32924461  -45180.0188663597   -45180.336116598
  Force two-norm initial, final = 2.0191930e+08 4.9721331
  Force max component initial, final = 1.0948746e+08 0.73126211
  Final line search alpha, max atom move = 0.053306038 0.038980685
  Iterations, force evaluations = 630 1000

MPI task timing breakdown:
Section |  min time  |  avg time  |  max time  |%varavg| %total
---------------------------------------------------------------
Pair    | 0.87978    | 0.98516    | 1.0323     |   5.4 | 86.75
Neigh   | 0.023706   | 0.024645   | 0.025112   |   0.3 |  2.17
Comm    | 0.058557   | 0.1057     | 0.2124     |  16.7 |  9.31
Output  | 0          | 0          | 0          |   0.0 |  0.00
Modify  | 0          | 0          | 0          |   0.0 |  0.00
Other   |            | 0.02013    |            |       |  1.77

Nlocal:        695.833 ave         704 max         685 min
Histogram: 1 1 0 0 1 0 0 1 0 2
Nghost:        1494.17 ave        1515 max        1468 min
Histogram: 1 1 0 0 0 0 1 1 1 1
Neighs:        0.00000 ave           0 max           0 min
Histogram: 6 0 0 0 0 0 0 0 0 0
FullNghs:      19997.0 ave       20462 max       19320 min
Histogram: 1 1 0 0 0 0 0 2 0 2

Total # of neighbors = 119982
Ave neighs/atom = 28.738204
Neighbor list builds = 26
Dangerous builds = 0

# Add velocity/set timestep
#
velocity            all create ${TEMP} 120598 rot yes dist gaussian
velocity            all create 215 120598 rot yes dist gaussian
timestep            5.0

# Define output
#
compute	            1 all msd
thermo	            100
thermo_style        custom step temp press vol etotal ke pe c_1[4] density

# Neighbor lists
#
neigh_modify        delay 0 every 1 check yes

# Set fixes
#
fix                 1 all momentum 10 linear 1 1 1 rescale
fix                 2 all nve
fix                 3 all temp/csvr ${TEMP} ${TEMP} 500.0 928347
fix                 3 all temp/csvr 215 ${TEMP} 500.0 928347
fix                 3 all temp/csvr 215 215 500.0 928347
fix                 4 all press/berendsen iso ${PRES} ${PRES} 1000.0 modulus 20000
fix                 4 all press/berendsen iso 250 ${PRES} 1000.0 modulus 20000
fix                 4 all press/berendsen iso 250 250 1000.0 modulus 20000

# Run 0.5 ns equilibration
#
dump                1 all custom 1000 eq.${NAME}.dump id type x y z vx vy vz
dump                1 all custom 1000 eq.liquid_density_MLmW.dump id type x y z vx vy vz
run                 100000
Per MPI rank memory allocation (min/avg/max) = 3.506 | 3.508 | 3.511 Mbytes
Step Temp Press Volume TotEng KinEng PotEng c_1[4] Density 
     630          215    824.17143       125000   -42505.327    2675.0087   -45180.336 2.7295415e-33   0.99914793 
     700     137.2336    170.30239     125249.1   -41685.024    1707.4469   -43392.471   0.25062234   0.99716081 
     800    171.06297    41.633255    125155.37   -40942.842    2128.3486   -43071.191   0.59369002   0.99790755 
     900    188.62169    166.58077    124930.93   -40526.539    2346.8124   -42873.351    1.0013151   0.99970031 
    1000    200.81132    283.66149    124662.74   -40268.776    2498.4746   -42767.251    1.4244077     1.001851 
    1100    206.11606    433.68155    124659.47   -40102.654    2564.4757   -42667.129    1.8446324    1.0018773 
    1200    207.23269    226.75977    124754.62   -40147.002    2578.3687   -42725.371    2.1940202    1.0011131 
    1300     210.3581     481.6456    124948.95   -40134.282    2617.2547   -42751.536    2.5407519   0.99955614 
    1400    211.39706    206.58063    125118.67   -40150.607    2630.1813   -42780.789    2.8585939   0.99820026 
    1500    212.24947    95.574311    125211.07   -40101.098    2640.7869   -42741.884    3.2270198   0.99746369 
    1600    214.68064    263.53533    125311.78   -40002.923    2671.0353   -42673.958    3.6050865   0.99666205 
    1700    215.21558    175.44983    125382.05   -40027.716     2677.691   -42705.407    3.9025555   0.99610345 
    1800    210.48096    417.17551    125407.59   -40107.074    2618.7833   -42725.857    4.2550289   0.99590057 
    1900    213.78654     273.6734    125430.54   -40098.835     2659.911   -42758.746    4.5597692   0.99571834 
    2000    218.65228    341.17529     125322.9   -40059.745    2720.4501   -42780.195    4.9363811   0.99657362 
    2100    217.60691    35.813675    125299.58   -40022.745    2707.4437   -42730.189    5.2633407   0.99675905 
    2200    217.76638    99.545866    125335.12    -40052.02    2709.4278   -42761.448     5.498725   0.99647641 
    2300    218.15223    111.55857    125514.13   -40066.082    2714.2285   -42780.311    5.8463689    0.9950552 
    2400    217.31556    315.78159    125704.73   -40086.456    2703.8188   -42790.275    6.2529124   0.99354646 
    2500    217.99383    382.41047    125651.14   -40059.164    2712.2576   -42771.422    6.7243949   0.99397019 
    2600    218.84616    385.74665     125749.4   -40006.401    2722.8622   -42729.263    7.1609453   0.99319351 
    2700    217.47412    373.39034    125744.61   -40028.781    2705.7914   -42734.573    7.2970371   0.99323134 
    2800    220.52358    320.62194    125802.89   -40021.899    2743.7326   -42765.632    7.5720782   0.99277126 
    2900    215.00991    378.62171    125913.67   -40104.137    2675.1321   -42779.269    7.9161145   0.99189781 
    3000    215.33236    141.89849    125850.34   -40140.798     2679.144   -42819.942    8.2024204   0.99239689 
    3100    215.51165     425.8764    126055.89    -40120.66    2681.3746   -42802.035    8.3437917   0.99077871 
    3200    216.39693    403.60592    126363.11   -40175.321    2692.3892    -42867.71    8.6110261   0.98836985 
    3300    216.67192    178.04468    126366.28     -40184.6    2695.8106   -42880.411    8.8919292   0.98834512 
    3400    212.26282    160.86979    126208.45   -40217.813     2640.953   -42858.766    9.1321414   0.98958107 
    3500     213.9219    205.26304    126077.29   -40238.157    2661.5951   -42899.752     9.366674   0.99061054 
    3600    212.35871    238.40906    126169.62   -40291.466    2642.1461   -42933.612    9.4858831   0.98988565 
    3700    211.49628    495.06751    126182.24   -40362.125    2631.4158   -42993.541    9.8711328    0.9897866 
    3800    218.22084    111.82554    126142.72   -40307.313    2715.0821   -43022.395     10.02598   0.99009674 
    3900    212.20686     248.1963    126246.72   -40342.437    2640.2568   -42982.693    10.331465   0.98928106 
    4000    214.96257    143.51092    126188.46    -40342.23    2674.5431   -43016.773    10.669039    0.9897378 
    4100    207.83678    369.52493    126213.96   -40331.393    2585.8847   -42917.278    11.020255   0.98953788 
    4200    214.60755    308.89896    126279.74   -40329.572    2670.1259   -42999.698    11.281834   0.98902242 
    4300    211.29391    245.30565    126330.45   -40342.344     2628.898   -42971.242    11.474078   0.98862539 
    4400    216.45141    399.08274    126259.69   -40350.996    2693.0671   -43044.063    11.661262   0.98917948 
    4500     212.8509    225.55981    126407.45   -40370.134    2648.2699   -43018.404    11.936039   0.98802319 
    4600    218.38455    434.88529    126511.34    -40437.95     2717.119   -43155.069    12.207313   0.98721182 
    4700    218.17725    305.03187    126423.28   -40344.987    2714.5398   -43059.527    12.405842    0.9878995 
    4800    214.68079    212.00581    126572.62   -40412.445    2671.0371   -43083.483    12.626492   0.98673387 
    4900    219.27324    382.99985    126590.83   -40299.306    2728.1759   -43027.482    12.961366   0.98659192 
    5000    217.99391    180.01368    126834.11   -40268.445    2712.2586   -42980.704    13.290354   0.98469953 
    5100    218.90092    199.36014     126859.9   -40338.545    2723.5437   -43062.089    13.538019   0.98449936 
    5200    216.84433    146.69055    126663.93   -40404.685    2697.9557    -43102.64    13.697207   0.98602252 
    5300    217.00647    266.36112    126544.98   -40374.477     2699.973    -43074.45    13.887249   0.98694941 
    5400    214.97866    145.97852    126491.94   -40416.131    2674.7433   -43090.874    14.100829   0.98736321 
    5500     213.8251    207.01407    126778.09   -40434.872    2660.3907   -43095.262     14.20939   0.98513466 
    5600    212.35694    221.88571    126595.38   -40445.595    2642.1241    -43087.72    14.416149   0.98655648 
    5700    215.48941     245.1477    126709.95   -40454.872    2681.0979    -43135.97    14.670332   0.98566442 
    5800    216.09834     218.8696    126604.19   -40473.049    2688.6742   -43161.723    14.924701   0.98648786 
    5900    215.82781    306.00036    126617.06   -40507.486    2685.3083   -43192.794    15.167964   0.98638754 
    6000    212.71479    146.38876    126721.77   -40509.018    2646.5764   -43155.595    15.293698   0.98557247 
    6100    213.73824    350.06694    126717.24    -40453.48      2659.31    -43112.79    15.512729   0.98560772 
    6200    214.60171     313.4181    126818.23    -40514.72    2670.0533   -43184.773    15.835805   0.98482283 
    6300     213.4362    482.69414    127078.09   -40483.515    2655.5521   -43139.067     16.12793   0.98280904 
    6400    217.48848    211.03916    127176.61   -40469.166    2705.9702   -43175.136    16.118326   0.98204762 
    6500    218.39646    349.15948    127170.28   -40425.862    2717.2672   -43143.129    16.359136   0.98209651 
    6600    215.51189    348.66128    127189.01   -40511.032    2681.3776    -43192.41    16.613572   0.98195191 
    6700     211.1339    61.334981    127266.11   -40589.902    2626.9072   -43216.809    16.771611     0.981357 
    6800    211.20504     282.1232    127335.32    -40511.96    2627.7922   -43139.752    17.043687   0.98082363 
    6900    217.82903    296.38652    127413.73   -40461.334    2710.2073   -43171.541    17.271798   0.98022006 
    7000    222.06615    178.47268    127551.77   -40460.528     2762.925   -43223.453    17.381032   0.97915922 
    7100    220.53665    404.36527    127558.19   -40503.156    2743.8952   -43247.051    17.555833   0.97910991 
    7200      213.612    274.79328    127604.67   -40573.118    2657.7394   -43230.858    17.822944   0.97875327 
    7300    209.58808    359.89566     127648.5   -40635.061    2607.6742   -43242.736    18.068939   0.97841722 
    7400    211.45026    261.62896    127566.65   -40682.648    2630.8432   -43313.491    18.071501   0.97904503 
    7500    216.67257    289.13218    127729.26   -40657.207    2695.8186   -43353.026    18.278692   0.97779859 
    7600    209.22286    412.97312    127596.13    -40739.35    2603.1301    -43342.48    18.448969   0.97881878 
    7700     214.6714      304.078    127691.39   -40646.732    2670.9204   -43317.653    18.673248   0.97808861 
    7800    218.25278    180.68988     127753.8   -40641.245    2715.4796   -43356.725    18.954925    0.9776108 
    7900    211.94764    394.52169    127777.48   -40715.519    2637.0316   -43352.551    19.094575   0.97742963 
    8000    212.51705    188.40039    127825.28   -40681.322    2644.1161   -43325.438    19.176841   0.97706408 
    8100     213.7817    255.85907    127757.35    -40745.53    2659.8508   -43405.381    19.199932   0.97758359 
    8200    207.64684    357.64375    127823.61   -40754.762    2583.5215   -43338.284    19.228185   0.97707686 
    8300    213.87663    289.71001    128023.19   -40734.166    2661.0319   -43395.198    19.312223   0.97555367 
    8400    211.18819    398.40782    128166.59   -40695.042    2627.5826   -43322.625    19.450756   0.97446212 
    8500    216.93241     407.5731    128226.23   -40639.589    2699.0516    -43338.64     19.68749   0.97400895 
    8600    213.87568     223.5443    128197.94   -40654.576      2661.02   -43315.596    19.813785   0.97422383 
    8700    218.32768      209.859    128244.35   -40627.013    2716.4114   -43343.424    20.011462    0.9738713 
    8800    212.56958    253.65616    128311.84   -40661.825    2644.7698   -43306.595    20.067973   0.97335907 
    8900    211.35879    194.39128    128225.53   -40746.689    2629.7052   -43376.394    20.181581   0.97401424 
    9000    210.40413    228.35202    128065.34   -40685.335    2617.8273   -43303.163    20.045244   0.97523258 
    9100    212.00733     303.1075    128293.32   -40760.975    2637.7742   -43398.749    20.247072   0.97349959 
    9200    212.58919    305.42622    128366.03   -40677.437    2645.0137    -43322.45    20.440526   0.97294817 
    9300    215.36323    343.36172    128492.67   -40722.029     2679.528   -43401.557    20.512592   0.97198923 
    9400    213.75963    202.72205    128471.54   -40696.007    2659.5762   -43355.583    20.576732   0.97214912 
    9500    215.17808    184.60067    128518.94   -40717.877    2677.2243   -43395.102    20.797538   0.97179057 
    9600    213.69525    197.60438    128356.52   -40694.359    2658.7751   -43353.134    21.019777   0.97302021 
    9700    217.21222    334.69435     128474.1   -40639.238     2702.533   -43341.771    21.156706   0.97212973 
    9800    212.55653    165.07686    128512.88   -40719.657    2644.6073   -43364.264     21.14151   0.97183636 
    9900    207.01966    125.53851    128412.04   -40795.635    2575.7182   -43371.353    21.390721   0.97259956 
   10000    208.14002    310.11948    128520.36   -40782.455    2589.6576   -43372.112    21.588955   0.97177977 
   10100    217.18872    183.74585    128598.07   -40757.926    2702.2406   -43460.167    21.926168   0.97119257 
   10200    210.68619    333.59966    128632.52   -40805.664    2621.3367       -43427     22.08482    0.9709325 
   10300    213.08615    350.20608    128699.92   -40795.898    2651.1968   -43447.095    22.203504   0.97042398 
   10400    215.48396    354.32194    128716.86   -40743.511    2681.0301   -43424.541    22.441086   0.97029631 
   10500    217.41769    309.99872    128751.16   -40729.013    2705.0894   -43434.103    22.570124   0.97003781 
   10600    216.30499    414.19096    128771.04   -40681.255    2691.2453     -43372.5    22.806444   0.96988805 
   10700    219.21968    76.121759    128768.79   -40667.266    2727.5096   -43394.775    22.928874   0.96990495 
   10800    220.17837   -15.931721    128588.35   -40662.727    2739.4375   -43402.165    23.058946   0.97126601 
   10900    215.19493    334.10287    128777.59   -40694.531     2677.434   -43371.965    23.287268    0.9698387 
   11000    215.03566    125.99883    128770.92   -40696.855    2675.4524   -43372.308    23.301457   0.96988895 
   11100    214.06089    116.02402    128647.49   -40731.136    2663.3244   -43394.461      23.3439   0.97081952 
   11200    215.54754    384.67016    128673.15    -40737.67    2681.8212   -43419.491    23.500155    0.9706259 
   11300    217.67807    332.43782    128593.81   -40734.087    2708.3291   -43442.416    23.687029   0.97122473 
   11400    215.95907    347.50003    128821.28   -40751.553    2686.9414   -43438.494    23.939257   0.96950975 
   11500     214.9728    213.57768    128924.37   -40779.065    2674.6703   -43453.735    24.062431   0.96873451 
   11600    214.27693    296.73979    128988.78   -40774.358    2666.0123   -43440.371    24.207084    0.9682508 
   11700    215.98409    347.11326    129133.95   -40675.868    2687.2526   -43363.121    24.588061   0.96716235 
   11800    214.89538    65.236216    129186.63   -40759.065    2673.7071   -43432.772    24.792943    0.9667679 
   11900    215.97033    228.48954    129066.01   -40783.019    2687.0814   -43470.101    24.602369   0.96767146 
   12000    215.04714    204.40927    128867.89   -40784.703    2675.5952   -43460.298    24.784508   0.96915911 
   12100    212.68892    233.11018     129099.7   -40733.029    2646.2546   -43379.283    25.069739   0.96741892 
   12200    212.27625    124.43676       129021   -40717.563    2641.1202   -43358.683    25.060201   0.96800902 
   12300    214.75844     151.9687     128965.1   -40721.621    2672.0033   -43393.624    24.987252   0.96842858 
   12400    219.14174    178.81537    128863.15   -40711.854    2726.5399   -43438.394    25.095896   0.96919478 
   12500    213.28718    380.87332    128767.95   -40811.382    2653.6981    -43465.08    25.131726    0.9699113 
   12600    211.91555      286.185    128691.07   -40742.594    2636.6323   -43379.226    25.390143   0.97049073 
   12700    218.21449    192.22568    128843.02   -40705.343    2715.0032   -43420.347     25.59398   0.96934623 
   12800    218.48657     141.0637    128900.45   -40677.702    2718.3883    -43396.09    25.911092   0.96891431 
   12900    216.35549    329.91963    128951.51   -40732.986    2691.8736    -43424.86     25.98535   0.96853064 
   13000    217.37186    306.47567    129059.79   -40667.789    2704.5192   -43372.308    26.096553   0.96771806 
   13100    217.21957    184.83035    128972.21   -40649.944    2702.6244   -43352.569    26.271885   0.96837522 
   13200    221.50945    163.84803    129053.35   -40579.886    2755.9986   -43335.885    26.344193    0.9677664 
   13300    219.47501    121.85084    128904.79   -40626.962    2730.6863   -43357.649    26.400994   0.96888166 
   13400    214.72341    364.65897    128887.68   -40709.171    2671.5674   -43380.738    26.466306    0.9690103 
   13500    213.72694    310.91516     129007.3   -40745.403    2659.1695   -43404.573    26.760354   0.96811181 
   13600    213.20867     190.1039    129096.69   -40777.991    2652.7213   -43430.713    26.764598   0.96744144 
   13700    212.55703    160.06218    129020.48   -40764.968    2644.6136   -43409.581    26.957298   0.96801292 
   13800     217.1862    280.68296    128973.67   -40677.356    2702.2093   -43379.565    27.203835   0.96836422 
   13900    214.22431    260.57777    129040.65   -40711.748    2665.3576   -43377.106    27.544412   0.96786164 
   14000    219.36009    235.25569    129022.92   -40696.275    2729.2566   -43425.531    27.768113   0.96799464 
   14100    213.22472    306.24027    129065.17   -40697.638    2652.9209   -43350.559    27.973983   0.96767775 
   14200    213.85851    335.61447    129148.29   -40741.617    2660.8064   -43402.423    28.011526   0.96705493 
   14300    211.46417    415.33462    129173.29   -40809.107    2631.0162   -43440.123    28.105077    0.9668678 
   14400    217.46464    278.82989    129218.85   -40776.953    2705.6736   -43482.626    28.204052   0.96652688 
   14500    214.38038    124.06763    129221.82   -40726.365    2667.2995   -43393.664    28.390484   0.96650464 
   14600    213.32979    483.04545    128952.39   -40734.783    2654.2282   -43389.011    28.232422   0.96852407 
   14700    213.14767    394.71368    128977.09   -40776.139    2651.9622   -43428.101    28.342604    0.9683386 
   14800    214.00586    336.13286    128988.38   -40817.517    2662.6398   -43480.156    28.629126   0.96825379 
   14900     209.3327    270.46883    129028.56   -40882.308    2604.4967   -43486.804    28.855668   0.96795229 
   15000    209.11771    412.28289    129170.27   -40877.522    2601.8219   -43479.344    29.117357   0.96689037 
   15100    209.85713    299.72074    129342.38    -40889.72    2611.0217   -43500.742    29.069485   0.96560376 
   15200    215.99169    361.21639    129410.13   -40824.569    2687.3473   -43511.916    29.105575   0.96509825 
   15300    212.19695     332.1164    129321.97   -40840.633    2640.1334   -43480.766    28.935711   0.96575618 
   15400    210.23503    418.52875    129229.01   -40822.811    2615.7235   -43438.535    29.121138    0.9664509 
   15500    214.13691    211.70246    129154.45   -40805.749    2664.2703    -43470.02    29.023011   0.96700879 
   15600    218.14549    191.65536    129180.37   -40748.748    2714.1446   -43462.892    29.310062   0.96681479 
   15700     214.3508    176.30166     129263.4   -40843.331    2666.9314   -43510.262     29.66975   0.96619378 
   15800    216.13508    287.12784    129301.61    -40849.11    2689.1313   -43538.241    29.716586   0.96590823 
   15900    211.64001    329.66176    129245.92   -40888.806    2633.2041    -43522.01     29.91429   0.96632441 
   16000    213.06453    226.56064    129120.17   -40816.811    2650.9278   -43467.739    30.076064   0.96726553 
   16100    215.98568    292.19165    129246.43    -40766.18    2687.2725   -43453.453    30.060376   0.96632064 
   16200    210.64465    341.90743    129401.19   -40822.238      2620.82   -43443.058    30.304793   0.96516492 
   16300    210.17115    151.86818    129576.25   -40836.054    2614.9287   -43450.983    30.361305   0.96386099 
   16400    218.39428    110.19361    129404.52   -40745.631      2717.24   -43462.871    30.457814   0.96514012 
   16500    218.77721    170.77909    129202.34   -40754.241    2722.0045   -43476.246    30.456143   0.96665036 
   16600    217.16727    266.01342    129026.88   -40729.216    2701.9737    -43431.19    30.719658   0.96796488 
   16700    216.45486    153.00507    129120.96   -40756.994      2693.11   -43450.104    30.905341   0.96725965 
   16800    215.32264    219.93815    128941.77   -40756.169    2679.0229   -43435.192    30.949502   0.96860384 
   16900    213.35197    259.81772    128951.31   -40712.368    2654.5042   -43366.872     30.81062   0.96853216 
   17000    218.54126    380.00033     128961.4    -40735.13    2719.0688   -43454.199    30.647858   0.96845639 
   17100    222.40698    338.26106    129019.38   -40666.629    2767.1657   -43433.795     30.79197   0.96802114 
   17200    215.96179    270.51521    129209.83   -40695.236    2686.9752   -43382.212    31.018182   0.96659437 
   17300     217.8249    261.01201    129258.35    -40747.29    2710.1559   -43457.446    30.968791    0.9662315 
   17400    214.15004    183.86004    129549.71   -40779.954    2664.4336   -43444.388    31.161985   0.96405846 
   17500    214.87315    326.98287    129339.45   -40763.139    2673.4305    -43436.57    31.153973   0.96562566 
   17600    216.71375    301.21467    129403.15   -40735.413    2696.3311   -43431.744    31.428496   0.96515031 
   17700    218.52029    164.15451    129122.46   -40763.915    2718.8078   -43482.723    31.508064   0.96724841 
   17800     212.7873    272.35829    129369.28   -40771.722    2647.4785   -43419.201    31.735568   0.96540298 
   17900    214.98872    181.06747    129293.47   -40736.613    2674.8684   -43411.481    31.781104   0.96596906 
   18000    219.15863    272.17217    129321.85   -40689.135    2726.7501   -43415.885    31.903533   0.96575709 
   18100    215.37119    246.12307    129242.47   -40795.759    2679.6271   -43475.386    31.967301   0.96635022 
   18200    213.25465    493.55509    128972.44   -40804.238    2653.2933   -43457.531    31.955572   0.96837352 
   18300    221.00123    422.53372    129373.95   -40727.461    2749.6755   -43477.136    32.180794   0.96536818 
   18400    218.33653    342.67575    129405.71   -40792.227    2716.5215   -43508.749    32.157994   0.96513122 
   18500    214.11556    275.45673    129567.24    -40760.98    2664.0047   -43424.984    32.343373     0.963928 
   18600    213.46476    112.21951    129352.14   -40806.093    2655.9074       -43462    32.372517   0.96553095 
   18700    215.19016    350.58513    129347.74    -40763.25    2677.3747   -43440.625    32.611893   0.96556377 
   18800    216.51518    197.76156    129275.38   -40732.757    2693.8605   -43426.617    32.925049   0.96610425 
   18900    214.61369    341.50776     129440.7   -40766.217    2670.2024   -43436.419    32.924837   0.96487036 
   19000    219.55999    137.48461    129703.23   -40763.825    2731.7437   -43495.569     32.92305   0.96291737 
   19100    213.80266    252.00755    129634.38   -40832.681    2660.1115   -43492.792    32.930395   0.96342875 
   19200    215.82542    320.37046       129591   -40820.956    2685.2785   -43506.234    33.168934   0.96375127 
   19300    217.27444    204.26163    129556.62   -40780.071    2703.3071   -43483.378    33.177974   0.96400705 
   19400    216.51513    335.46429    129580.11   -40799.816    2693.8598   -43493.676     33.33394   0.96383225 
   19500      216.612    237.05383    129617.34    -40795.37     2695.065   -43490.435    33.480514   0.96355539 
   19600    217.41277    308.58019    129581.72   -40824.313    2705.0282   -43529.341     33.33935   0.96382028 
   19700    218.09781    117.38792    129469.14   -40810.934    2713.5515   -43524.485    33.321243    0.9646584 
   19800    212.71295    197.25674    129448.89   -40845.311    2646.5536   -43491.864    33.543275   0.96480928 
   19900    212.95023    327.41399    129397.89   -40851.632    2649.5057   -43501.138    33.707055   0.96518953 
   20000    215.29468    336.20036     129287.6   -40887.215    2678.6752    -43565.89    33.810091   0.96601295 
   20100    216.69299    294.26715    129355.73   -40849.951    2696.0727   -43546.024    33.996148   0.96550412 
   20200    214.67266    161.79612    129409.95   -40906.982     2670.936   -43577.918    34.114249    0.9650996 
   20300    213.33293    190.64512    129306.31    -40942.12    2654.2672   -43596.388    34.088633   0.96587313 
   20400    212.90868    301.73889    129355.01   -40939.986    2648.9887   -43588.975    34.063915   0.96550952 
   20500    214.45434    301.18995    129280.81   -40903.776    2668.2197   -43571.996    34.120369   0.96606369 
   20600    214.19783    271.25855    129249.88   -40932.982    2665.0282   -43598.011    34.298112   0.96629487 
   20700    215.37203    226.59527    129386.24   -40879.385    2679.6375   -43559.022    34.465803   0.96527649 
   20800    218.12805    146.24959     129444.1   -40873.493    2713.9277    -43587.42    34.493438   0.96484496 
   20900    215.12325    483.17666    129494.82   -40911.632    2676.5422   -43588.175    34.450729   0.96446708 
   21000    211.42223    210.45332    129621.26   -41008.352    2630.4945   -43638.847    34.594116    0.9635263 
   21100    211.42041     277.9372    129364.85   -41013.447    2630.4719   -43643.918    34.584178   0.96543606 
   21200    213.30073    159.08419    129412.61   -40976.923    2653.8666   -43630.789    34.845796    0.9650798 
   21300    210.62929    44.664452    129427.16   -40984.603    2620.6288   -43605.231    35.021096   0.96497129 
   21400    213.25349    282.35174    129338.06   -40956.884    2653.2788   -43610.163     35.21891   0.96563602 
   21500    211.31852    380.00004    129446.44    -40947.73    2629.2041   -43576.935    35.205447   0.96482756 
   21600    213.36894    288.65931    129639.44   -40893.601    2654.7153   -43548.317    35.222992   0.96339115 
   21700    216.75614    304.49804    129674.02   -40863.229    2696.8585   -43560.088    35.514066   0.96313423 
   21800    215.35866    236.84764    129609.95    -40851.85    2679.4711   -43531.321    35.414873   0.96361034 
   21900    216.40925    243.44136    129717.87   -40874.551    2692.5425   -43567.094    35.488208    0.9628087 
   22000    212.75266    303.50411    129697.17   -40910.514    2647.0476   -43557.562    35.510811   0.96296232 
   22100    213.66574    241.14209    129551.98   -40847.042     2658.408    -43505.45    35.748529   0.96404155 
   22200    214.34836    171.77373    129558.06   -40896.205    2666.9012   -43563.106    35.973133   0.96399631 
   22300    216.21213    233.09503    129372.39   -40882.243    2690.0899   -43572.333    35.932821   0.96537976 
   22400    217.79219    322.52918    129230.68   -40850.353    2709.7489   -43560.102    35.981433   0.96643842 
   22500    219.40342    253.90636    129108.83   -40869.721    2729.7957   -43599.517    36.122894   0.96735051 
   22600    216.26664    311.35183    129280.18   -40842.091    2690.7682   -43532.859    36.394788   0.96606834 
   22700    214.38493    263.84095     129406.3   -40832.321    2667.3561   -43499.677    36.524965   0.96512682 
   22800    218.93298    195.80299    129502.11   -40803.136    2723.9424   -43527.078    36.629932   0.96441277 
   22900    217.10446    263.55141    129507.33   -40851.778    2701.1922   -43552.971    36.547894   0.96437392 
   23000    215.06725     122.8641    129314.28   -40821.167    2675.8455   -43497.013    36.632107   0.96581364 
   23100    212.17508    237.15404    129514.21   -40926.843    2639.8614   -43566.705    36.953717   0.96432268 
   23200    212.79832    289.46818    129432.72   -40858.589    2647.6157   -43506.204    37.033167   0.96492984 
   23300    210.68979    164.00759     129529.5   -40905.791    2621.3816   -43527.172    36.868496   0.96420887 
   23400    218.07412    305.05941    129474.14   -40851.704    2713.2567   -43564.961    36.909177   0.96462114 
   23500    214.24303     226.7389    129585.43    -40886.28    2665.5906   -43551.871    37.286157   0.96379269 
   23600    215.08486     185.3625    129457.86    -40879.66    2676.0645   -43555.725    37.389214   0.96474246 
   23700    216.29596    339.66187    129526.98   -40920.389     2691.133   -43611.522    37.470555    0.9642276 
   23800    213.08709    283.19661    129599.93   -40976.465    2651.2085   -43627.674    37.691963   0.96368487 
   23900    214.91451    186.37333    129529.71   -40997.721    2673.9451   -43671.666     37.69085   0.96420731 
   24000     214.3699     297.3938    129593.88   -40923.795    2667.1691   -43590.965    37.709988   0.96372985 
   24100    211.29793    311.31764    129709.96   -40917.336    2628.9479   -43546.284    37.799577   0.96286737 
   24200    214.22988    357.02851    129714.74   -40971.596     2665.427   -43637.023    37.976003   0.96283194 
   24300    211.79088     227.1678    129790.68   -40937.397    2635.0812   -43572.478    37.893761   0.96226857 
   24400    211.75435    200.46234     129848.4     -40982.4    2634.6267   -43617.026    38.070422   0.96184081 
   24500    212.49738    276.45386    129877.56   -40947.471    2643.8714   -43591.343    38.187367   0.96162485 
   24600    210.76951    140.05785    129916.83   -40908.311    2622.3734   -43530.684    38.309148    0.9613342 
   24700    212.20229    321.07658    129715.22   -40930.093    2640.1999   -43570.293    38.553268   0.96282832 
   24800    213.24105    313.49955    129942.12   -40929.434     2653.124   -43582.558    38.760038   0.96114709 
   24900     214.2767    254.18996     129849.6   -40885.895    2666.0096   -43551.904    38.781708   0.96183193 
   25000    215.46125     442.2991    129663.85   -40867.051    2680.7476   -43547.798    38.730621   0.96320977 
   25100     216.4154    392.84853    129793.96   -40874.879     2692.619   -43567.498    38.864505   0.96224427 
   25200    216.38972    105.10054    129808.79   -40911.843    2692.2995   -43604.142    38.945466    0.9621343 
   25300    215.19075    322.35964    129689.73   -40923.172     2677.382   -43600.554    38.938648   0.96301762 
   25400    213.23585    74.201166    129505.16   -40922.278    2653.0594   -43575.337      38.8429    0.9643901 
   25500    215.69598    208.51646    129626.44   -40872.075     2683.668   -43555.743    39.140198    0.9634878 
   25600    213.51635    146.09385    129722.49   -40947.788    2656.5493   -43604.337    39.253674   0.96277439 
   25700     211.4917    242.04966    129745.34   -40960.794    2631.3588   -43592.153     39.38659   0.96260485 
   25800    213.24515    347.48112    129806.31   -40938.911    2653.1751   -43592.087     39.50501   0.96215269 
   25900     213.4659    319.77487    129790.49   -40905.921    2655.9216   -43561.843    39.559851   0.96226995 
   26000    219.77449    340.54524    130028.71   -40845.484    2734.4125   -43579.896    39.517055   0.96050706 
   26100    214.53421    226.67585    129918.81   -40934.833    2669.2135   -43604.046    39.602936   0.96131951 
   26200    215.39211    286.60556    129941.73   -40918.701    2679.8873   -43598.588    39.861583   0.96115001 
   26300    211.78755    232.77805    129897.67   -40875.662    2635.0398   -43510.702    39.826491   0.96147598 
   26400    214.84879    317.05528    129893.44    -40861.72    2673.1274   -43534.847    40.099365   0.96150727 
   26500    215.21315    228.30727    130010.39   -40919.739    2677.6608   -43597.399    40.317303   0.96064238 
   26600    216.71572    277.47197    129962.55   -40978.671    2696.3555   -43675.027    40.294656   0.96099602 
   26700    213.16823    220.55895    130010.13   -41004.868    2652.2181   -43657.086    40.586078   0.96064434 
   26800    214.58356    264.36696    130030.32   -40931.529    2669.8275   -43601.356    40.517233   0.96049513 
   26900    215.15818    216.15291    129865.21   -40928.622    2676.9769   -43605.598    40.492387   0.96171635 
   27000    210.64898    197.79035    129744.11   -40971.534    2620.8738   -43592.408    40.398167   0.96261399 
   27100    216.57631    128.17597    129496.35   -40964.849     2694.621    -43659.47    40.350082    0.9644557 
   27200    212.05939    300.40346     129647.4   -40966.778    2638.4219     -43605.2     40.61913   0.96333202 
   27300    210.92222     160.8993     129533.6   -40991.582    2624.2734   -43615.855    40.808516   0.96417833 
   27400    216.47461    6.1645568    129461.96   -40935.184    2693.3556    -43628.54    40.820589   0.96471187 
   27500    216.02101    328.16953    129469.91   -40868.744    2687.7121   -43556.456    40.853517   0.96465265 
   27600    214.23614    142.65765    129412.61   -40898.687    2665.5049   -43564.192     41.08069   0.96507976 
   27700    214.53304    379.73099    129602.49   -40892.199    2669.1989   -43561.398    40.931252   0.96366582 
   27800    214.88885    220.53951    129782.44   -40832.608    2673.6259   -43506.234    41.234004   0.96232965 
   27900    218.18032     296.4576    129776.48    -40861.34    2714.5779   -43575.918     41.40319   0.96237388 
   28000    216.65745    365.18506     129771.9    -40913.17    2695.6306     -43608.8    41.587378   0.96240781 
   28100    217.81502    225.22042    129823.65   -40911.031     2710.033   -43621.064    41.597142   0.96202421 
   28200     215.4133    337.01832    129892.27   -40970.017    2680.1509   -43650.168    41.679285   0.96151595 
   28300    215.24466    264.51947    129777.41   -40972.789    2678.0528   -43650.842    41.846639   0.96236696 
   28400    210.02416    275.00416    129988.37   -41021.081    2613.0998   -43634.181    41.913632   0.96080512 
   28500     208.3702    152.71925    129913.96   -41039.687    2592.5214   -43632.208    41.966335   0.96135546 
   28600    211.22226    204.14067    129899.26   -40986.325    2628.0065   -43614.332    41.950023    0.9614642 
   28700    214.44276    261.53491    129845.05   -40994.509    2668.0756   -43662.584    42.347079   0.96186565 
   28800    214.46124    279.20808    129931.22    -40959.47    2668.3056   -43627.775    42.478402    0.9612277 
   28900    221.28657    493.00703    130111.46   -40923.237    2753.2256   -43676.463    42.485812   0.95989615 
   29000    213.82863    398.92107    130289.66   -41009.673    2660.4346   -43670.107    42.578439   0.95858329 
   29100    215.01751    214.16901    130173.23   -40958.427    2675.2266   -43633.653     42.59162   0.95944064 
   29200    216.67576    271.17355    130049.13   -40928.648    2695.8583   -43624.507    42.660414   0.96035622 
   29300    215.84345    181.47907    130000.49   -40992.363    2685.5029   -43677.866    42.918465   0.96071553 
   29400    212.52121    106.97627    129761.48   -41053.756    2644.1678   -43697.924    42.931269   0.96248514 
   29500    211.50334    172.65226    129827.25   -41078.908    2631.5037   -43710.411    42.914804   0.96199753 
   29600    214.67587    255.51463    129717.15   -40992.546    2670.9759   -43663.522    43.014136   0.96281402 
   29700    217.10718    157.97438    129646.15   -41042.179    2701.2261   -43743.405    43.112528    0.9633413 
   29800    212.93492    214.83363    129784.15   -41016.453    2649.3153   -43665.768     43.15867     0.962317 
   29900    209.31589    214.58214    129955.95    -41041.82    2604.2877   -43646.108    43.135556   0.96104481 
   30000    214.46622    183.81731    129876.19   -41014.349    2668.3675   -43682.716    43.163623   0.96163498 
   30100    211.26708    273.55772     130001.9   -41000.217    2628.5641   -43628.781     43.07353   0.96070512 
   30200    212.65056    220.25292    130077.75   -41020.204    2645.7772   -43665.982    43.179048   0.96014496 
   30300    216.57104    297.06102    130081.62   -40990.631    2694.5555   -43685.186    43.437082   0.96011637 
   30400    219.72639    354.61317    130070.46   -40970.409     2733.814   -43704.223    43.646496   0.96019876 
   30500    213.85411     118.7284    129849.28   -40976.797    2660.7517   -43637.549    43.540376   0.96183431 
   30600    212.88259    204.34852    129721.84   -40964.857    2648.6641   -43613.521    43.524841   0.96277923 
   30700    212.18323     286.7377    129847.29    -40981.28    2639.9628   -43621.243    43.590017   0.96184904 
   30800    215.88795    85.272727     129870.9   -40928.999    2686.0565   -43615.056    43.729347   0.96167415 
   30900    209.44844    290.73539    129793.19   -41052.375    2605.9368   -43658.312    43.777185   0.96224998 
   31000    210.92203    322.44609    129669.69   -41085.521     2624.271   -43709.792     43.54536    0.9631664 
   31100    212.45752    169.47582    129721.14   -41076.463    2643.3755   -43719.838    43.660727   0.96278439 
   31200    210.72924    353.58241    129785.41   -41078.074    2621.8724   -43699.947    43.928706   0.96230763 
   31300    213.04881    325.23648    129759.12   -41023.401    2650.7323   -43674.133    44.110173   0.96250262 
   31400    212.98517     385.6845    129958.55   -40996.584    2649.9404   -43646.524    44.051686   0.96102559 
   31500    212.29734    175.91367    130010.52   -41055.027    2641.3825    -43696.41    44.226351   0.96064139 
   31600    213.12911    231.03724    130060.83   -40990.722    2651.7313   -43642.453    44.049142   0.96026983 
   31700    212.43136    309.57967    129962.06   -41022.449      2643.05   -43665.499    44.082652   0.96099966 
   31800     216.4257    411.67294    130001.07   -40959.147    2692.7471   -43651.894    44.171212   0.96071127 
   31900    216.26682    26.705157    129988.03   -40947.385    2690.7703   -43638.155    44.266704   0.96080766 
   32000    217.82962    181.72762    129830.83   -40943.139    2710.2146   -43653.354    44.370928     0.961971 
   32100    220.65833    306.01786    129944.13    -40954.34    2745.4091   -43699.749    44.465931   0.96113219 
   32200    215.49701    283.15546    130054.99   -40942.944    2681.1925   -43624.136    44.843627   0.96031292 
   32300     216.5483    185.94728    130052.87   -40925.918    2694.2725    -43620.19    44.957614   0.96032859 
   32400    215.47195    151.14924    130084.15   -40991.677    2680.8808   -43672.558    44.973781   0.96009766 
   32500    215.51476    238.17832    129940.19   -41002.278    2681.4134   -43683.691    44.915182   0.96116139 
   32600    213.64619    121.69819    129794.37   -40938.444    2658.1648   -43596.609    44.825146   0.96224118 
   32700    212.30366    261.74346    129931.82   -41005.453    2641.4612   -43646.915    44.823095   0.96122331 
   32800     212.5927    328.50461    130083.24   -41052.101    2645.0573   -43697.158    44.969753   0.96010438 
   32900    212.96197    247.03654    129889.53   -41061.239    2649.6517   -43710.891    44.960139   0.96153628 
   33000    212.35371    261.52764    130049.65   -41119.816    2642.0838   -43761.899    45.142275    0.9603524 
   33100    213.83046    277.53903    130157.14   -41036.373    2660.4574    -43696.83    45.643665   0.95955925 
   33200    212.92684    229.38567    130087.76   -41068.056    2649.2147    -43717.27    45.735702   0.96007102 
   33300     213.0949    328.20275    130136.41   -40997.023    2651.3057   -43648.328    45.661282   0.95971213 
   33400    213.03068    239.24901    130191.22   -41088.876    2650.5067   -43739.383    45.841233   0.95930812 
   33500    215.57171    305.42097    130270.67   -41061.919    2682.1219   -43744.041    45.618871   0.95872301 
   33600    216.10071    130.95503    130140.21   -41042.446    2688.7037   -43731.149    45.723592   0.95968409 
   33700     214.9999     167.7754    130206.57   -41033.365    2675.0075   -43708.372    46.049384   0.95919501 
   33800    213.29925    305.26107     130264.1   -41025.182    2653.8482    -43679.03    46.195162   0.95877137 
   33900    217.10336    152.98867    130277.13   -41040.735    2701.1786   -43741.913    46.014297   0.95867551 
   34000      216.117     393.1097    130206.57   -41013.156    2688.9064   -43702.063    46.110859   0.95919497 
   34100    218.65195    30.067801    130101.23   -41047.473    2720.4459   -43767.919    46.225728   0.95997166 
   34200    212.93097    241.61099    129986.19   -41033.885    2649.2661   -43683.151    46.131828   0.96082124 
   34300    213.04111    340.02168    130007.61   -41086.273    2650.6365    -43736.91    46.028196   0.96066289 
   34400    212.68218     280.7743     130147.9   -41024.555    2646.1706   -43670.725    46.463855   0.95962737 
   34500    213.16266    139.65497    130203.74   -41039.514    2652.1488   -43691.663    46.484729   0.95921584 
   34600    215.12421    161.85648    130064.76   -41015.736    2676.5541    -43692.29    46.395749   0.96024082 
   34700    213.89102    369.87969     130082.1   -41095.938    2661.2109   -43757.149    46.499254   0.96011279 
   34800    216.80477    300.68735    130280.77   -41098.544    2697.4636   -43796.007    46.867126   0.95864868 
   34900    212.68224    288.64569    130348.18   -41106.473    2646.1714   -43752.645    46.945761   0.95815293 
   35000    207.69401    258.29466    130383.53   -41174.791    2584.1084   -43758.899    46.994547   0.95789319 
   35100    209.58524    269.72896    130350.63   -41116.195    2607.6388   -43723.833    46.916329   0.95813493 
   35200    210.22338    389.59234    130089.83   -41124.176    2615.5785   -43739.755      46.9093   0.96005579 
   35300    215.20378    346.83339    130161.32   -41113.814    2677.5442   -43791.358     47.12184   0.95952849 
   35400    211.67942    166.32878    130332.64   -41135.788    2633.6944   -43769.482     47.19782   0.95826721 
   35500    216.21172     195.3213    130160.42    -41032.65    2690.0849   -43722.735    47.249741   0.95953511 
   35600    207.85348    171.68604    130143.86   -41053.165    2586.0925   -43639.257    47.263386   0.95965719 
   35700    219.16422    236.65582     130165.8   -41008.056    2726.8196   -43734.875    47.418229   0.95949541 
   35800    213.32276    247.60059    130193.03   -41041.448    2654.1408   -43695.589    47.707795   0.95929474 
   35900    215.94881    283.00399    130276.83   -40989.703    2686.8138   -43676.517    47.945356   0.95867769 
   36000    215.24306     307.9458    130124.79   -40964.964    2678.0328   -43642.997    48.006695   0.95979785 
   36100    215.54346    315.19281    130130.63   -40981.501    2681.7705   -43663.271    47.906582   0.95975475 
   36200     215.6958    209.02945    129944.51   -41021.185    2683.6658   -43704.851    48.094241   0.96112941 
   36300    212.60825    269.51646    129942.25   -41077.981    2645.2508   -43723.232     48.11962   0.96114616 
   36400    215.99488    301.19446    129951.52   -41015.236    2687.3869   -43702.622    48.197936    0.9610776 
   36500    215.02086    311.70723    130052.95   -40986.099    2675.2683   -43661.367    48.181531   0.96032798 
   36600    211.44573    370.33891    129939.99   -41110.299    2630.7869   -43741.086    48.141538   0.96116283 
   36700    214.80381    174.88885    130022.72   -41052.201    2672.5677   -43724.769    48.201157   0.96055129 
   36800     217.3946    128.30268    130180.48   -41047.808    2704.8022   -43752.611     48.23476   0.95938721 
   36900    213.67602    178.58367    130041.21   -41078.601    2658.5359   -43737.137     48.52201   0.96041468 
   37000    214.01609     319.9526    129986.61   -41009.483    2662.7671    -43672.25    48.568911   0.96081812 
   37100    213.50444    176.23818    129949.25   -40984.741    2656.4012   -43641.142    48.601311   0.96109434 
   37200    214.86152    360.62583    130067.75   -41038.941    2673.2857   -43712.227    48.680243   0.96021878 
   37300    213.85966    226.66732    130142.96   -41048.814    2660.8208   -43709.635    48.863118   0.95966382 
   37400    216.83065    292.78778    130246.51   -41085.049    2697.7855   -43782.834    49.147884   0.95890087 
   37500     214.5646    218.21636     130220.1   -41102.813    2669.5916   -43772.405    49.030481   0.95909531 
   37600      212.166     241.1661    130182.17   -41061.205    2639.7484   -43700.953    48.911077   0.95937475 
   37700    216.17459    215.35198    130253.14   -41068.573    2689.6229   -43758.196    49.097539   0.95885205 
   37800     211.0643    196.75094    130148.32   -41162.037    2626.0411   -43788.078    49.017145   0.95962427 
   37900    211.92277    260.58943    130039.86   -41124.951    2636.7221   -43761.673    49.112533   0.96042466 
   38000    211.26001    299.40445    129995.31   -41095.744    2628.4761    -43724.22    49.393752   0.96075383 
   38100    212.52329    320.62494     129890.6   -41048.073    2644.1938   -43692.267    49.476537   0.96152832 
   38200    214.14203    273.58141    130037.12   -41061.582    2664.3339   -43725.916    49.827721   0.96044493 
   38300     218.0956    298.97531    129993.05   -41011.102     2713.524   -43724.626    49.764358   0.96077052 
   38400    216.12246    93.680591    130235.63   -41074.907    2688.9743   -43763.882    49.846051     0.958981 
   38500    213.38214    301.23626    130213.57    -41090.29    2654.8795    -43745.17    49.904171   0.95914344 
   38600    215.76851    365.25986    130120.81   -41053.564    2684.5704   -43738.134    49.863917   0.95982717 
   38700    213.46936    349.38346    130190.57   -41047.202    2655.9646   -43703.167    49.927162    0.9593129 
   38800    217.47523    194.95156    130083.38   -41077.512    2705.8053   -43783.318    50.055873   0.96010336 
   38900    215.51336    159.46049     130021.2   -41029.562     2681.396   -43710.958    50.440307   0.96056252 
   39000    209.21706    384.34018    130252.67   -41077.735     2603.058   -43680.793     50.70406   0.95885551 
   39100    214.08544    171.68912    130310.77   -41048.019    2663.6298   -43711.649    50.915113     0.958428 
   39200    211.04668    109.97261    130256.03   -41076.437     2625.822   -43702.259      50.8659   0.95883079 
   39300    218.26141    287.69725    130313.42   -41079.104    2715.5869   -43794.691    50.765321   0.95840855 
   39400    218.15103    75.836015    130342.94   -41042.503    2714.2136   -43756.717    50.884047   0.95819147 
   39500     215.6863    328.32077    130201.95   -41017.863    2683.5476    -43701.41    51.144381   0.95922905 
   39600    215.25796    275.19821    130118.54   -41050.879    2678.2183   -43729.097     51.01876   0.95984391 
   39700    214.27539    377.55236    130165.11   -41001.825    2665.9932   -43667.818    51.063081   0.95950054 
   39800    215.23001    274.43153    129971.44   -41075.631    2677.8705   -43753.501    50.746999   0.96093024 
   39900     210.3644     217.8257    130005.04   -41113.049    2617.3331   -43730.382    50.830738   0.96068194 
   40000    210.36781    89.321241     130010.5   -41139.144    2617.3755   -43756.519    51.005512   0.96064158 
   40100    215.80188    242.00351    130179.43   -41041.384    2684.9856   -43726.369    51.031543   0.95939495 
   40200    218.00395    390.60672    130084.57   -41064.267    2712.3835    -43776.65    50.953915   0.96009461 
   40300    214.83453    188.94952    130175.36   -41047.601      2672.95   -43720.551    51.073845   0.95942497 
   40400    213.34268    128.34725    130051.83   -40949.593    2654.3886   -43603.982    51.527381   0.96033625 
   40500    219.35987    270.35316    130000.18   -40960.393    2729.2539   -43689.647    51.658254   0.96071786 
   40600    217.30939     418.4864    129906.87   -40995.023     2703.742   -43698.765    51.693347   0.96140793 
   40700    213.70652    173.15411    129937.89   -41031.929    2658.9155   -43690.844    51.745682   0.96117838 
   40800    213.60131    145.49417    129975.55   -41081.352    2657.6064   -43738.959    52.092451   0.96089986 
   40900    210.89268    279.67921    129833.26   -41097.893    2623.9059   -43721.799    52.303924   0.96195295 
   41000    215.29723    310.42945    129826.89   -41014.542    2678.7068   -43693.248    52.271446   0.96200014 
   41100    216.96042    149.74223    129988.62    -40995.06    2699.4001    -43694.46    52.213665   0.96080331 
   41200    218.50581    416.16493    129936.54    -41005.31    2718.6276   -43723.937     52.23478    0.9611884 
   41300    209.94326    262.83571    130048.55   -41165.869    2612.0932   -43777.962    52.098301   0.96036052 
   41400    211.43955    303.19364    130058.24   -41110.476      2630.71   -43741.186     52.48547   0.96028897 
   41500    208.60852    143.65404    130202.84   -41109.781    2595.4866   -43705.268    52.751596   0.95922246 
   41600    214.52772    216.52866    129926.09   -41079.521    2669.1327   -43748.653    52.760759   0.96126571 
   41700      211.449    201.34967    129955.94   -41059.397    2630.8275   -43690.225    52.653467   0.96104488 
   41800    215.77772    331.86237    130067.59   -41061.852     2684.685   -43746.537    52.632535   0.96021995 
   41900    216.60694    198.94952    130134.02   -41031.045    2695.0021   -43726.047    52.954533   0.95972973 
   42000    215.28634    175.89076    130232.13   -41024.333    2678.5713   -43702.904    53.052538   0.95900671 
   42100    217.95006    201.53148    130239.79    -41021.89    2711.7131   -43733.603    53.060943   0.95895032 
   42200    219.81064    384.49143    130246.48   -40995.801    2734.8623   -43730.664     53.29906   0.95890109 
   42300    220.29662    362.92244    130466.27   -40983.498    2740.9088   -43724.406    53.255333    0.9572857 
   42400    216.17467    302.95946     130419.4   -41038.168    2689.6238   -43727.792    53.196296   0.95762968 
   42500    215.12557    386.66539    130389.58   -41043.437    2676.5711   -43720.009    53.409222   0.95784873 
   42600    216.67479    78.509839    130324.68   -41058.755    2695.8463   -43754.602    53.828018   0.95832568 
   42700    215.74629    329.52838    130317.15   -41070.437     2684.294   -43754.731    54.160518    0.9583811 
   42800     215.0198    257.29305    130311.33   -41010.338    2675.2551   -43685.593    54.056698   0.95842387 
   42900    216.89192    375.52729     130351.9   -41070.792    2698.5478    -43769.34    54.096893    0.9581256 
   43000    212.98071    359.98674    130402.07   -41093.659     2649.885   -43743.544    53.928989   0.95775698 
   43100    213.08275    210.52517    130482.02   -41072.259    2651.1545   -43723.413    54.145118   0.95717013 
   43200      215.952    533.14775    130303.96   -41020.665    2686.8534   -43707.519    54.125272   0.95847806 
   43300    217.98042    169.20399    130409.28   -41032.802    2712.0908   -43744.893     54.23837   0.95770403 
   43400    218.21472    338.97332    130302.93   -40985.578     2715.006   -43700.584    54.352682   0.95848567 
   43500     215.2916    307.43654    130479.18   -40996.379    2678.6368   -43675.015    54.451991   0.95719097 
   43600     222.7677     341.6962     130345.7   -40917.918    2771.6537   -43689.572    54.650564   0.95817117 
   43700    217.00973    179.86499     130309.4   -40947.289    2700.0137   -43647.303    54.685937   0.95843809 
   43800    222.21632    51.206256    130344.51   -40953.216    2764.7935    -43718.01    54.633561    0.9581799 
   43900    218.83601    184.94942    130237.18   -41002.415     2722.736   -43725.151    54.539684   0.95896957 
   44000    216.47763    404.25381    130063.73   -41031.823    2693.3932   -43725.216    54.504834   0.96024839 
   44100    214.13995    213.94181    130151.21   -41029.612     2664.308    -43693.92    54.796285   0.95960298 
   44200    212.23916    251.61393    130225.51   -41046.177    2640.6586   -43686.835    54.872717   0.95905552 
   44300    215.16582    303.33632    130211.94   -41041.571    2677.0718   -43718.643    54.865116   0.95915548 
   44400    212.28306    187.73284    130107.98     -41009.6    2641.2049   -43650.805      54.8781   0.95992186 
   44500    216.41261    319.74032    130178.75   -41046.917    2692.5843   -43739.502     55.14052   0.95939996 
   44600    211.01642    135.81609    130063.68   -41101.294    2625.4455   -43726.739    55.287037   0.96024882 
   44700    212.92818    368.97476    130105.58   -41067.871    2649.2313   -43717.103    55.300651   0.95993952 
   44800    213.71589    150.21054    130106.78   -41033.216     2659.032   -43692.248    55.529236   0.95993069 
   44900    216.26985    364.41382     129972.9   -40986.618     2690.808   -43677.426    55.585372   0.96091945 
   45000    216.79003    269.04357    130092.49   -40994.217    2697.2801   -43691.497    55.877312   0.96003614 
   45100     213.8079     326.9196    130037.35   -40937.848    2660.1767   -43598.025    55.787141   0.96044322 
   45200    214.48342    183.67413    130004.03   -40995.794    2668.5815   -43664.375    55.892562   0.96068941 
   45300    213.63331    278.42605    129904.96   -41017.243    2658.0046   -43675.248    55.962304   0.96142202 
   45400     213.2367    300.67354    129690.79   -40988.586    2653.0699   -43641.656    56.047952   0.96300973 
   45500    215.18653    198.21353    129763.66   -40995.602    2677.3295   -43672.931    56.070371   0.96246893 
   45600    217.09754    278.85001    129724.49   -40983.239    2701.1061   -43684.345    56.081976   0.96275952 
   45700    214.44272     353.5805    129861.29   -40995.848    2668.0751   -43663.923    56.184686   0.96174538 
   45800    218.10105    265.02158    129912.69   -40955.418    2713.5917   -43669.009    56.149894   0.96136482 
   45900    218.32151    238.57236    129965.18   -40903.694    2716.3347   -43620.028    56.441456   0.96097655 
   46000    217.78377    336.70835    129981.54   -40890.116    2709.6442    -43599.76      56.6504    0.9608556 
   46100    221.30709    166.74141    130022.28   -40847.457    2753.4809   -43600.938    56.446659   0.96055452 
   46200    220.72982    148.02471    129928.15   -40846.703    2746.2986   -43593.002    56.471728   0.96125041 
   46300    221.28345    241.48608    129967.34    -40871.77    2753.1868   -43624.957    56.360311   0.96096057 
   46400    217.88203    198.12674    129999.99   -40917.841    2710.8666   -43628.708    56.496177   0.96071926 
   46500    219.58172    190.67941    130209.64   -40950.617    2732.0141   -43682.631    56.640269   0.95917236 
   46600    219.58558    210.59679     130190.8   -40942.608    2732.0621    -43674.67    56.600137   0.95931121 
   46700    216.05206    240.61223    130076.18   -41023.373    2688.0984   -43711.471    56.789147   0.96015655 
   46800    212.03206    227.23387    130180.95   -41059.513    2638.0819   -43697.594    57.083922   0.95938378 
   46900    214.70001    83.902553    130239.76   -40974.345    2671.2763   -43645.621    57.501598   0.95895056 
   47000    213.71191    207.98733    130302.45   -40954.855    2658.9824   -43613.838    57.384389   0.95848923 
   47100    217.10753    316.14234    130246.93   -40922.486    2701.2305   -43623.716    57.626457    0.9588978 
   47200    215.32405    216.18267    130200.62   -40980.686    2679.0405   -43659.727    57.661053   0.95923885 
   47300    213.87785    386.14664    130107.54   -40991.937    2661.0471   -43652.984    57.609377   0.95992506 
   47400    216.72516     389.3152    130009.02   -40943.675     2696.473   -43640.148    57.699071   0.96065252 
   47500    216.80557    219.04568    130146.39   -40879.792    2697.4735   -43577.265    57.655211   0.95963851 
   47600    217.25687     233.1849    130077.04    -40830.24    2703.0885   -43533.328    57.636702   0.96015016 
   47700    218.01201    138.28289    130072.56   -40877.261    2712.4838   -43589.745    57.925342   0.96018321 
   47800    220.00782    433.02792    130075.94   -40882.617    2737.3156   -43619.933    58.173856    0.9601583 
   47900    214.70224    156.40732    130141.24   -40964.838     2671.304   -43636.142    58.214504   0.95967649 
   48000     210.5526     374.8881    130001.94   -40975.779    2619.6746   -43595.453    58.177296   0.96070481 
   48100    212.40172    325.98665    130159.15   -40928.227    2642.6812   -43570.908    58.427821   0.95954448 
   48200     211.8439     69.87157    130071.48   -40959.644    2635.7409   -43595.385    58.414172   0.96019117 
   48300    214.61848    263.49557    130019.28   -40943.398    2670.2619    -43613.66    58.757787   0.96057669 
   48400    220.25535    260.58929    129883.35   -40876.543    2740.3952   -43616.938    58.859567   0.96158197 
   48500    217.56513    351.72086     129900.2   -40937.588    2706.9238   -43644.512    58.999925   0.96145726 
   48600    215.38458    200.12913    129968.58   -40936.828    2679.7937   -43616.622    58.868344   0.96095142 
   48700    219.73707    209.47828    129864.15    -40897.74    2733.9469   -43631.687    58.775452   0.96172415 
   48800    213.94661    199.50026    130015.48   -40918.379    2661.9026   -43580.281    58.975516   0.96060481 
   48900    214.04057    184.58299    130055.96   -40907.005    2663.0716   -43570.077    59.215081    0.9603058 
   49000    216.36701    316.61561    130123.08    -40924.87    2692.0169   -43616.887    59.474406   0.95981044 
   49100    214.86206    249.31322    129902.58   -40919.727    2673.2926   -43593.019    59.565221   0.96143968 
   49200    215.67616    302.22938    129893.31   -40950.754    2683.4215   -43634.175    59.508009   0.96150826 
   49300    215.89918    239.38638     129912.8   -40905.796    2686.1963   -43591.993    59.581547   0.96136398 
   49400    208.95792    254.32052     129926.7   -40876.368    2599.8338   -43476.202    59.532918   0.96126118 
   49500    216.33537    419.04933    129975.93   -40901.239    2691.6233   -43592.863    59.786733   0.96089709 
   49600     218.1842    64.498469    129978.08   -40916.891    2714.6262   -43631.517    59.693838    0.9608812 
   49700    214.51486    355.81491    129715.21   -40935.049    2668.9727   -43604.022    59.656029   0.96282843 
   49800    215.81444    402.05747    129710.58   -40979.698    2685.1419    -43664.84    59.605486   0.96286279 
   49900    220.96443    99.747613    129749.04   -40866.799    2749.2176   -43616.017    59.667562   0.96257736 
   50000    220.43747     375.2453    129609.72   -40904.678    2742.6612   -43647.339       59.847   0.96361204 
   50100    210.59482    244.43573    129621.62   -40924.138       2620.2   -43544.338    60.163049   0.96352364 
   50200     214.9084    254.42642    129744.17   -40964.782     2673.869   -43638.651    60.355078    0.9626135 
   50300    218.18526     200.6878    129675.49   -40942.491    2714.6395   -43657.131    60.408798   0.96312332 
   50400     212.4474    248.02481    129729.07   -40974.211    2643.2496    -43617.46    60.495855   0.96272558 
   50500    215.66818    275.61489    129776.42   -41010.283    2683.3222   -43693.605    60.291111   0.96237429 
   50600    214.70303    267.80122    129839.13   -41031.462    2671.3139   -43702.776    60.381376   0.96190947 
   50700    213.26593     92.78386    129901.89   -41043.972    2653.4337   -43697.405    60.520186   0.96144477 
   50800     209.6967    227.83562    129898.71   -41034.945    2609.0256   -43643.971    60.710388   0.96146828 
   50900    220.19601    164.50233    129799.79   -40943.811     2739.657   -43683.468     60.88743   0.96220105 
   51000    215.06797    437.12469    129901.72    -40971.36    2675.8545   -43647.215    60.958068   0.96144603 
   51100    215.83349    299.47834    129844.25   -41016.764    2685.3789   -43702.143    61.019978   0.96187152 
   51200     217.3367    101.55279    129893.83   -41004.157    2704.0818   -43708.239     61.15942   0.96150443 
   51300    210.84057    119.64534    129717.77   -41057.411    2623.2576   -43680.668    61.019983   0.96280942 
   51400    211.08285    212.61379    129782.64   -41051.757     2626.272   -43678.029    61.222395   0.96232821 
   51500    210.30355    169.37042    129753.45   -41031.176    2616.5759   -43647.752    61.427242   0.96254465 
   51600    213.54635    447.01329    129749.76   -40961.625    2656.9226   -43618.548    61.526777   0.96257203 
   51700    213.99176    127.84912    129745.01    -40948.28    2662.4644   -43610.744    61.654847   0.96260729 
   51800    215.03518    235.62046    129757.23   -40978.297    2675.4465   -43653.744    61.581873   0.96251659 
   51900    214.12927    363.39355    129835.18   -41027.856    2664.1752   -43692.031    61.520859   0.96193873 
   52000    209.56246    128.55505    129806.81   -41041.066    2607.3554   -43648.422    61.605115   0.96214901 
   52100    209.97507    230.92589    129837.91   -40974.235     2612.489   -43586.724    61.866034    0.9619185 
   52200    211.63971    354.48074    129938.76   -40987.033    2633.2004   -43620.233    62.021612   0.96117198 
   52300    216.13791    264.98731    129889.09   -40963.141    2689.1665   -43652.308    62.125097   0.96153947 
   52400    214.49443    117.11827    130204.36   -40919.532    2668.7184   -43588.251    62.375281   0.95921128 
   52500    212.74794    91.123146    130016.78   -40901.307    2646.9889   -43548.296    62.658929    0.9605952 
   52600    214.37119    376.03662    129961.97   -40928.769    2667.1852   -43595.954    62.480042    0.9610003 
   52700    214.19441    332.61547     129959.1   -40964.469    2664.9857   -43629.455    62.632364   0.96102152 
   52800    213.29353    212.62172     129883.5   -40922.646    2653.7771   -43576.423    62.876862   0.96158089 
   52900     216.4574    242.38935     129900.6   -40903.789    2693.1415   -43596.931    62.766278   0.96145434 
   53000    216.76968    274.72633    129993.53   -40871.966     2697.027   -43568.993    62.754583   0.96076697 
   53100    213.88747    201.86923    129956.69   -40912.803    2661.1667    -43573.97    63.151184   0.96103932 
   53200    216.23447    173.82712    129716.82   -40902.624    2690.3679   -43592.992    63.192842   0.96281646 
   53300    216.74389    301.22363    129815.46   -40905.795    2696.7061   -43602.501    63.481321   0.96208487 
   53400    212.86018    285.73617    129778.39   -40979.509    2648.3853   -43627.894    63.398005   0.96235968 
   53500    213.54385    215.37114    129718.53   -40993.742    2656.8915   -43650.634    63.676372   0.96280381 
   53600    210.37991    70.178428    129617.72   -40985.462     2617.526   -43602.988    63.724076    0.9635526 
   53700    210.19586    302.91899    129706.57   -41023.739    2615.2362   -43638.975    63.904404   0.96289252 
   53800     214.0441      214.529    129818.58    -40922.31    2663.1155   -43585.426    64.138234   0.96206179 
   53900     216.6713    234.22656    129808.48   -40985.243     2695.803   -43681.046    64.480857   0.96213662 
   54000    213.61516     367.0857     129777.5    -40968.86    2657.7787   -43626.638    64.454322   0.96236632 
   54100    212.22504    230.28749    129767.85   -40988.555     2640.483   -43629.038    64.477192   0.96243787 
   54200    215.34794    176.85203    129689.33    -40971.86    2679.3378   -43651.198    64.585339   0.96302053 
   54300    214.06285    272.18975    129602.05   -40937.739    2663.3488   -43601.087    64.680907   0.96366914 
   54400    213.43124    250.24819    129693.13   -40949.659    2655.4904    -43605.15    64.935903   0.96299234 
   54500    213.31744    315.12018    129553.15   -40921.598    2654.0746   -43575.672    65.054762   0.96403282 
   54600    218.31874      321.944    129742.58   -40830.862    2716.3002   -43547.162    65.269014   0.96262529 
   54700    218.94686    316.16153    129889.77   -40848.911    2724.1152   -43573.026    65.134139    0.9615345 
   54800    211.58129    198.34399    130018.48       -40935    2632.4735   -43567.473    65.332643   0.96058262 
   54900    215.27902    248.50942    129943.08   -40977.495    2678.4803   -43655.975    65.573034   0.96113999 
   55000    212.15777      248.607    129973.23   -41037.544    2639.6461    -43677.19    66.083647   0.96091706 
   55100    213.21377     308.5682    130107.98    -41017.85    2652.7846   -43670.635    66.521382   0.95992187 
   55200    213.19146    172.41392     130053.9   -41031.265    2652.5071   -43683.772    66.533081   0.96032098 
   55300    214.06005     396.7993    130016.29   -40992.504     2663.314   -43655.818    66.550781   0.96059881 
   55400    215.39906     160.2658    129902.57   -40980.459    2679.9738   -43660.433    66.417382   0.96143972 
   55500    220.77895    281.81804    130049.03   -40932.494    2746.9099   -43679.404    66.566986   0.96035697 
   55600    217.01157    313.85712    129950.76   -40983.851    2700.0365   -43683.888    66.716226   0.96108322 
   55700    214.40008    323.60117    129985.97   -40978.187    2667.5446   -43645.732    66.893349   0.96082284 
   55800    217.23062    347.52703    130072.54   -40978.286    2702.7619   -43681.048    67.045687   0.96018341 
   55900    214.68141    318.71228    129937.63   -40942.695    2671.0449    -43613.74    67.149004   0.96118028 
   56000    217.13926    363.45295    130018.54   -40936.351    2701.6253   -43637.977     67.35242   0.96058214 
   56100    216.20525    266.43677    129981.71   -40903.491    2690.0044   -43593.496    67.441247   0.96085434 
   56200    214.62389    439.33019    129938.33   -40903.055    2670.3292   -43573.384    67.368448   0.96117514 
   56300    214.88095    343.46961    130014.72   -40930.458    2673.5276   -43603.985    67.531206   0.96061042 
   56400    213.88124     283.0908    129988.14   -40906.902    2661.0892   -43567.991    67.857819   0.96080684 
   56500     210.9256    324.58254    130082.14   -40981.837    2624.3154   -43606.152    68.023113   0.96011254 
   56600    211.79068     180.3179    130058.85   -41008.019    2635.0788   -43643.098    68.098889   0.96028447 
   56700    211.86589    238.04533    130117.34   -41040.715    2636.0145    -43676.73    68.320561   0.95985278 
   56800    214.33577    188.46947    129975.13   -40985.423    2666.7445   -43652.168     68.34608   0.96090301 
   56900    215.91528    435.57203    130075.84    -40970.36    2686.3966   -43656.756    68.406193   0.96015905 
   57000    216.26605    246.15577     130187.7   -40920.471    2690.7608   -43611.231    68.394094   0.95933401 
   57100    217.41639    230.30271    130164.33   -40991.519    2705.0732   -43696.592    68.747448   0.95950624 
   57200    216.74307    269.82339    130102.56   -41048.441    2696.6958   -43745.137    68.704365   0.95996182 
   57300    212.78548    167.86196    130050.02   -41092.581     2647.456   -43740.037    68.753733   0.96034963 
   57400    211.96655    325.73303    129867.94   -41109.774    2637.2668   -43747.041     68.70034   0.96169606 
   57500    212.18275    210.01905    129892.83   -41156.394    2639.9567    -43796.35    68.785901   0.96151184 
   57600    211.86335    282.12764    129905.36   -41105.235    2635.9829   -43741.218    68.876701   0.96141909 
   57700    209.87801    163.62985     129995.6   -41146.594    2611.2815   -43757.875    68.912747   0.96075167 
   57800    205.69935    122.20447    129788.27   -41159.117     2559.291   -43718.408    68.925677   0.96228645 
   57900    209.23727    248.32513    129718.03   -41113.796    2603.3095   -43717.106    68.944436   0.96280751 
   58000    207.35745    123.01538    129633.41   -41097.823    2579.9208   -43677.744    69.074503   0.96343595 
   58100    212.09716    190.88261    129489.26   -41025.507    2638.8919   -43664.399    69.118665   0.96450853 
   58200    214.40508    209.20696    129581.37   -40975.129    2667.6068   -43642.736    69.284804   0.96382288 
   58300    214.59148    226.43266    129748.68   -40907.031    2669.9259   -43576.957    69.305621   0.96258005 
   58400    216.23579    128.40522    129780.38   -40909.406    2690.3843   -43599.791    69.308184   0.96234494 
   58500    216.46848    242.45142    129878.39   -40917.606    2693.2794   -43610.886     69.49163   0.96161873 
   58600    214.73794    172.95116    129761.71   -40880.036    2671.7482   -43551.784    69.684581   0.96248337 
   58700    221.28158    296.54896    129686.15   -40884.422    2753.1635   -43637.586    69.498605   0.96304417 
   58800    215.20773    268.11528    129667.98   -40932.901    2677.5933   -43610.494    69.535476   0.96317911 
   58900    214.84893     96.90126    129652.03   -40986.578    2673.1291   -43659.707     69.63643   0.96329764 
   59000    214.95231    177.40565    129669.84   -40978.653    2674.4153   -43653.069    69.911306   0.96316532 
   59100    217.80835    398.69128    129796.46   -40981.722      2709.95   -43691.672    69.699982   0.96222568 
   59200    214.61864    92.299343    129644.92   -40998.618    2670.2638   -43668.882     69.72497   0.96335044 
   59300    215.05409    369.82358    129552.18   -40985.373    2675.6817   -43661.054    70.022706   0.96404008 
   59400    217.12696    74.850214    129648.86    -41031.94    2701.4721   -43733.412    70.146378    0.9633212 
   59500    209.49153    318.37139    129686.12   -40981.297    2606.4729    -43587.77     70.36648   0.96304439 
   59600    215.79585    104.82004    129593.79   -40965.178    2684.9107   -43650.088      70.7621   0.96373052 
   59700    212.79212     16.57252    129366.24   -40987.469    2647.5386   -43635.007    70.756359   0.96542571 
   59800    216.34536    438.32132    129526.89   -40991.678    2691.7476   -43683.425    70.596134   0.96422831 
   59900    215.02898    266.28462    129546.53   -40980.676    2675.3693   -43656.045    71.069367   0.96408211 
   60000     212.2903     251.3317    129500.83   -41019.967     2641.295   -43661.262    71.000646   0.96442233 
   60100    214.59172     221.2636    129611.74   -40978.466     2669.929   -43648.395     71.12311   0.96359707 
   60200     213.9748     320.2277    129730.55   -40958.846    2662.2533   -43621.099    71.577531   0.96271455 
   60300    216.92556    258.47498    129665.19   -40922.514    2698.9664    -43621.48    71.722453   0.96319982 
   60400    220.29555     222.5639    129688.64    -40873.38    2740.8955   -43614.276    71.923099   0.96302567 
   60500    217.62064    289.66637    129814.51   -40907.846    2707.6145   -43615.461    71.872453    0.9620919 
   60600    215.53764    300.40559    129807.72   -40965.196     2681.698   -43646.894    71.978056   0.96214225 
   60700    212.79571    219.83483    129892.25   -40994.057    2647.5832    -43641.64    72.143907   0.96151608 
   60800    216.97753    182.50712    129710.58   -40961.075     2699.613   -43660.688     71.98672    0.9628628 
   60900    214.30498     186.8266    129807.94   -40962.892    2666.3614   -43629.253    72.124582   0.96214062 
   61000    213.68223    308.01519    129880.62   -41001.355    2658.6131   -43659.968    72.197126   0.96160221 
   61100    214.06844    300.67341    129893.87   -41036.302    2663.4184   -43699.721    72.159198   0.96150411 
   61200    212.02085    361.04834    129875.71   -41030.892    2637.9425   -43668.834    72.370016   0.96163854 
   61300     214.6576    315.04938    130048.89    -41018.76    2670.7486   -43689.508    72.288028   0.96035802 
   61400    213.29381    248.87254    130074.26   -41059.676    2653.7805   -43713.457    72.413659   0.96017069 
   61500     214.2035    134.37742     130009.3   -41065.719    2665.0987   -43730.818    72.485017   0.96065045 
   61600    215.46725    275.64345    129964.08   -41038.851    2680.8222   -43719.673    72.321582   0.96098471 
   61700    211.26764    196.43424    129864.91   -41119.554    2628.5711   -43748.125    72.285845    0.9617185 
   61800    209.57318    240.20593    129941.57   -41175.488    2607.4888   -43782.977     72.23627   0.96115118 
   61900    209.31632     290.1761    130040.88   -41110.114    2604.2929   -43714.407    72.485506   0.96041711 
   62000    211.01315    214.22761     130064.9   -41059.164    2625.4048   -43684.569    72.464441   0.96023976 
   62100    214.96979    304.09812    130011.92   -41071.223    2674.6329   -43745.856    72.791325   0.96063105 
   62200    212.22604    216.52671    129934.21   -41026.678    2640.4954   -43667.174    72.985459   0.96120564 
   62300    212.48155     273.1836    130014.58   -41037.768    2643.6744   -43681.443    73.069325   0.96061141 
   62400    218.43324    268.64791    130183.71   -40979.633    2717.7247   -43697.358    73.055292    0.9593634 
   62500    216.21072    279.44752    130017.27   -40998.899    2690.0724   -43688.972    72.862612   0.96059154 
   62600    213.71033    210.88324    130158.47   -40990.883    2658.9628   -43649.845     72.98763   0.95954945 
   62700    211.00078    295.47606    130156.28   -41012.409    2625.2508   -43637.659    73.150594    0.9595656 
   62800    212.61607    272.55053    130133.07    -41000.31    2645.3482   -43645.658    73.567896   0.95973674 
   62900     212.9777    408.82419    130209.09   -40964.374    2649.8475   -43614.221    73.711003   0.95917641 
   63000    219.60667    208.95797    130179.35   -40917.774    2732.3244   -43650.098     73.99145   0.95939554 
   63100    216.83019    212.47799    130072.64   -40912.311    2697.7798    -43610.09    73.775546   0.96018267 
   63200    217.43289    255.64082    130011.66    -40947.56    2705.2785   -43652.839     73.93037   0.96063299 
   63300    217.75611    510.44056     129962.4   -40984.431       2709.3   -43693.731    74.134571   0.96099713 
   63400    221.12463    113.09766    130066.53    -40912.73    2751.2108   -43663.941     74.07205   0.96022771 
   63500    213.47746    99.757732    130262.25   -40996.688    2656.0655   -43652.754    74.372631   0.95878498 
   63600    212.27723    282.08356    130236.87   -40995.147    2641.1323   -43636.279    74.569283   0.95897183 
   63700    212.94835    1.1177723    130241.79   -40996.943    2649.4823   -43646.425     74.82777   0.95893559 
   63800    211.70189    185.30034    130081.33   -41087.875    2633.9739   -43721.849    74.749132   0.96011852 
   63900    206.41257    304.09757    130259.39   -41075.166    2568.1648   -43643.331    74.730761   0.95880607 
   64000     210.0601    337.18857    130251.06   -41069.386     2613.547   -43682.933    74.659101   0.95886734 
   64100    217.65795    279.70331    130307.76   -40982.793    2708.0787   -43690.872    74.605607   0.95845013 
   64200    216.25794    355.29354    130437.55   -40981.496    2690.6599   -43672.156    74.759375   0.95749645 
   64300    219.07872    136.27359    130366.51   -40884.476    2725.7558   -43610.232    75.099957   0.95801824 
   64400    219.01955    51.436804    130257.47   -40907.267    2725.0196   -43632.287    75.522085    0.9588202 
   64500    215.34822     309.5711    130250.98   -40902.131    2679.3412   -43581.472    75.643749   0.95886796 
   64600    217.98037    276.50204    130171.41   -40952.455    2712.0903   -43664.546    75.446131    0.9594541 
   64700    215.35192    460.75961    129989.42   -40971.258    2679.3873   -43650.646    75.198547   0.96079737 
   64800    214.16017    175.87399    130039.58   -41002.445    2664.5597   -43667.005    75.142005   0.96042671 
   64900    215.71901    192.17453    129916.55   -40976.948    2683.9546   -43660.903    75.262287   0.96133629 
   65000    220.04335    262.38403    130086.23   -40946.803    2737.7576    -43684.56    75.447459   0.96008236 
   65100    215.68664    330.12525    130084.44    -40971.07    2683.5519   -43654.621    75.180367   0.96009553 
   65200    214.35705    335.15067    130164.58   -40971.801    2667.0093   -43638.811    74.944678   0.95950446 
   65300    214.16772    244.93351    130092.56   -40976.172    2664.6535   -43640.826     75.29681    0.9600356 
   65400    218.77352    182.81819    130115.03   -40915.016    2721.9585   -43636.975    75.772074   0.95986979 
   65500    215.98563    238.53066    129993.55   -40993.869    2687.2719   -43681.141     75.74433    0.9607668 
   65600    216.05854    299.09222    130108.28   -41040.369    2688.1791   -43728.548    75.518436   0.95991963 
   65700    216.70158    325.25217    130029.95   -41101.082    2696.1796   -43797.261    75.429639   0.96049787 
   65800     212.5102    111.09028    130068.06   -41112.231    2644.0309   -43756.262    75.288387   0.96021648 
   65900    212.84249    377.52259    130169.46   -41079.767    2648.1653   -43727.932    75.043115   0.95946847 
   66000    215.36567    298.62695    130316.83   -40986.944    2679.5584   -43666.502    75.147371    0.9583834 
   66100    217.66949    284.19317    130243.06   -40949.542    2708.2222   -43657.764    75.046308   0.95892624 
   66200    220.07139    172.26006    130211.39   -40927.367    2738.1065   -43665.473    75.196794   0.95915949 
   66300    217.79138    151.19362       130318   -40966.503    2709.7388   -43676.241    75.317405   0.95837484 
   66400    215.29433    169.29042    130242.74   -41021.504    2678.6707   -43700.174    75.379828   0.95892864 
   66500    216.24375    391.08176    130300.76    -41039.42    2690.4833   -43729.903    75.501524   0.95850166 
   66600    214.02965    202.74798    130271.06    -41036.11    2662.9357   -43699.045     75.37335   0.95872019 
   66700    216.90819    307.40192    130359.34   -41059.527    2698.7503   -43758.277     75.32157   0.95807089 
   66800    215.67802    267.55791    130329.96   -41008.345    2683.4446    -43691.79    75.450743   0.95828691 
[...]
   84600     211.9417    164.55424    131065.09    -41188.53    2636.9577   -43825.488     88.96227   0.95291196 
   84700    210.62893    240.46603    131024.56    -41203.13    2620.6243   -43823.754    89.006071    0.9532067 
   84800    213.94585     199.9411    131086.39   -41178.026    2661.8931    -43839.92     89.50953   0.95275714 
   84900    215.28162    288.56601    130898.15   -41163.713    2678.5127   -43842.225    89.388559   0.95412726 
   85000    214.83519    386.97419    130832.72   -41106.836    2672.9582   -43779.794    89.576563   0.95460439 
   85100    215.06224     381.3711    130965.53    -41115.71    2675.7832   -43791.493    89.772228   0.95363633 
   85200    213.31501    162.88336    131054.73   -41132.328    2654.0442   -43786.372    89.434385   0.95298728 
   85300     213.6064    179.29287    130925.99   -41178.249    2657.6697   -43835.919    89.398524   0.95392438 
   85400    214.02609    243.93885    130966.95    -41179.53    2662.8915   -43842.421    89.477384     0.953626 
   85500    214.31695    157.91412    131017.41   -41153.915    2666.5103   -43820.425    89.652106   0.95325874 
   85600    214.67503    270.91374    130980.95   -41121.394    2670.9655   -43792.359    89.782796   0.95352413 
   85700     216.5087    98.083908    131094.27   -41157.813    2693.7798   -43851.592    89.937437   0.95269985 
   85800    216.09671     177.7325    130950.01    -41162.98    2688.6539   -43851.633    89.837759   0.95374941 
   85900    216.73515    270.24637    131146.58    -41075.36    2696.5973   -43771.957     89.79951   0.95231988 
   86000    214.93597    159.18647    130991.11   -41137.479    2674.2121   -43811.691    89.795829   0.95345011 
   86100    216.68786    171.07133    130871.13   -41140.103    2696.0089   -43836.112     89.96032   0.95432425 
   86200    216.85051    243.93338    130913.48   -41110.579    2698.0327   -43808.611     90.37387   0.95401553 
   86300       215.59    495.11184    130913.64   -41139.084    2682.3495   -43821.434    90.625179   0.95401436 
   86400     213.7561    255.64133    130973.94   -41143.985    2659.5322   -43803.517    90.818449   0.95357511 
   86500    216.10301    265.33462    130948.74   -41126.071    2688.7323   -43814.803    90.976266   0.95375861 
   86600    219.67339    136.90497    130972.15   -41085.245    2733.1546     -43818.4    90.685873   0.95358818 
   86700    218.81934    166.76984    130825.09   -41088.537    2722.5286   -43811.066    90.507187   0.95466007 
   86800    215.36769    285.49814    130673.23   -41161.652    2679.5835   -43841.236    90.268986   0.95576955 
   86900    217.16178    390.95413    130706.31   -41130.536    2701.9053   -43832.441    90.422174   0.95552763 
   87000    216.70425    304.57774    130826.04   -41130.865    2696.2129   -43827.078     90.78392   0.95465313 
   87100    213.14331    277.96847    130705.87   -41150.794     2651.908   -43802.702    90.716561   0.95553083 
   87200    217.53551    136.30142     130626.6   -41127.395    2706.5553    -43833.95    90.833204    0.9561107 
   87300    216.60545    293.66687    130537.19    -41123.43    2694.9836   -43818.413     90.69401   0.95676559 
   87400    214.16648    249.39268    130468.69   -41126.416    2664.6382   -43791.054    90.551572   0.95726789 
   87500    214.56045    251.22457    130660.97   -41139.485      2669.54   -43809.025    90.619102    0.9558592 
   87600    217.14504    205.97535     130679.8   -41150.425    2701.6971   -43852.122    90.560175    0.9557215 
   87700    212.88328    239.10619    130565.61   -41152.631    2648.6727   -43801.304     90.42222   0.95655734 
   87800     212.4186    191.55952    130612.98   -41125.968    2642.8912   -43768.859    90.562427   0.95621043 
   87900    214.86025    102.83944    130731.47     -41140.2      2673.27    -43813.47    91.041419    0.9553437 
   88000    211.38486    252.56044    130906.38   -41162.503    2630.0296   -43792.533    91.004843   0.95406724 
   88100    217.84601    105.09237    130759.19   -41103.459    2710.4185   -43813.878    90.991541   0.95514123 
   88200    218.78349    195.65052    130668.45    -41082.78    2722.0826   -43804.862    90.916816   0.95580449 
   88300    215.69665    220.60526    130637.04   -41113.025    2683.6763   -43796.701    90.713106   0.95603433 
   88400    210.04902    226.12894    130610.04   -41222.175    2613.4092   -43835.584    90.523369   0.95623195 
   88500    214.32858    384.07146    130491.05   -41128.317    2666.6551   -43794.972    90.383021   0.95710389 
   88600    215.06319    449.45723    130574.68   -41091.996    2675.7949   -43767.791    90.516702   0.95649092 
   88700    222.34593    292.75437    130432.78   -41069.198    2766.4061   -43835.604    90.716036    0.9575315 
   88800    217.88822    188.73096    130560.45   -41003.674    2710.9437   -43714.618    90.901406    0.9565951 
   88900    218.73873    245.02855     130550.2    -41050.62    2721.5256   -43772.146    90.910246   0.95667027 
   89000    213.35287    183.70233    130629.77   -41034.296    2654.5154   -43688.812    91.010695   0.95608748 
   89100    211.50877    250.30576    130419.32   -41120.435    2631.5712   -43752.006    90.629451   0.95763033 
   89200    212.75136    283.99906    130540.86    -41138.63    2647.0314   -43785.661    90.531075   0.95673869 
   89300    211.25691    190.92117    130497.58   -41155.884    2628.4376   -43784.322     90.75071   0.95705601 
   89400    211.37296    170.60571    130411.92   -41184.122    2629.8815   -43814.004    90.749913   0.95768462 
   89500    214.35052    223.97546    130459.69   -41215.264    2666.9279   -43882.192     90.96169   0.95733393 
   89600    212.08715    326.96829    130386.32   -41258.747    2638.7673   -43897.514    90.989438   0.95787269 
   89700    208.16765    359.49645    130589.51   -41207.713    2590.0013   -43797.714    91.080625   0.95638229 
   89800    213.42232    147.38461     130671.4   -41172.418    2655.3794   -43827.797    91.318431   0.95578292 
   89900    212.33134    336.84008    130703.88   -41224.331    2641.8055   -43866.136    91.482669   0.95554542 
   90000    214.65106    144.06594    130727.78   -41135.343    2670.6673    -43806.01    91.511569   0.95537067 
   90100    212.27229    221.72737    130657.98   -41140.378    2641.0708   -43781.449    91.280267   0.95588105 
   90200    212.85821    313.22629    130670.51   -41183.525    2648.3608   -43831.885    91.335969   0.95578944 
   90300    216.53818    308.89635    130598.71   -41199.301    2694.1466   -43893.448    91.369893   0.95631488 
   90400    214.62056    204.10123    130661.51   -41185.525    2670.2878   -43855.813    91.862017   0.95585526 
   90500    213.92987    159.24366    130569.31   -41149.111    2661.6943   -43810.805    91.906087   0.95653024 
   90600    217.02434    299.23548    130576.22   -41070.489    2700.1954   -43770.684    91.825438   0.95647963 
   90700    214.75895    188.76413    130513.76    -41065.66    2672.0096   -43737.669     91.83377   0.95693733 
   90800    212.51766    98.698132    130611.16   -41094.002    2644.1237   -43738.126    91.761179   0.95622375 
   90900    210.83766    353.56799    130528.17   -41171.314    2623.2213   -43794.536    91.960964    0.9568317 
   91000    212.68547    286.35464    130483.71   -41183.287    2646.2115   -43829.499    92.112901   0.95715772 
   91100    211.71222    318.96323    130620.28   -41178.973    2634.1025   -43813.075    92.140617   0.95615696 
   91200    215.18855    355.86046    130838.48   -41135.997    2677.3546   -43813.352    92.081761   0.95456236 
   91300    216.76556    205.53333    130847.55   -41044.142    2696.9757   -43741.118    92.409172   0.95449625 
   91400    220.66141     268.7646    130920.79   -41036.059    2745.4474   -43781.507    92.425738   0.95396227 
   91500    218.21414    302.79995    130845.09   -41049.953    2714.9988   -43764.952    92.793295   0.95451418 
   91600    215.53227    216.31496    130623.95   -41097.304    2681.6312   -43778.935    92.369485   0.95613011 
   91700    211.31096    272.85445    130687.01   -41168.982    2629.1101   -43798.092    92.442823   0.95566874 
   91800    216.32348    246.78968    130606.04   -41146.966    2691.4754   -43838.442    92.392811   0.95626119 
   91900    215.00741      239.127    130687.55   -41153.227    2675.1009   -43828.328    92.649984   0.95566479 
   92000    217.57872    83.251917    130702.15   -41169.946     2707.093   -43877.039    92.793511   0.95555804 
   92100    215.80321     117.9085    130642.38   -41225.975    2685.0022   -43910.977    92.582471   0.95599524 
   92200    216.14912    433.13099    130744.46   -41178.378     2689.306   -43867.684    92.684768   0.95524879 
   92300     215.4763    141.13262    130645.12   -41092.551    2680.9348   -43773.486    92.948667   0.95597515 
   92400    217.93986    300.16192    130666.03   -41108.044    2711.5861    -43819.63    93.068037   0.95582217 
   92500    214.01224    101.36326    130827.49   -41159.888    2662.7191   -43822.607    93.076574   0.95464257 
   92600    218.79625    283.22015     130675.5   -41139.419    2722.2413   -43861.661    93.069351   0.95575293 
   92700    213.25635    115.75152    130732.06   -41123.154    2653.3144   -43776.468    92.971578   0.95533945 
   92800    216.20593    140.06685    130592.53   -41176.124    2690.0128   -43866.137    93.214233   0.95636016 
   92900    218.94927    107.45415    130628.23    -41135.34    2724.1451   -43859.486    93.216205   0.95609876 
   93000    210.74289    98.329421    130560.58   -41154.613    2622.0422   -43776.655    93.271262   0.95659419 
   93100    215.49959    355.96444    130568.57    -41085.14    2681.2245   -43766.364    93.346095   0.95653561 
   93200      215.503    327.53226    130654.09   -41103.334     2681.267   -43784.601    93.057169   0.95590953 
   93300     217.0928    350.92996     130780.9   -41129.772    2701.0472   -43830.819    93.101019   0.95498264 
   93400    214.04182    236.35287    130865.93   -41153.875    2663.0871   -43816.962    93.378255   0.95436213 
   93500    215.10251    382.35673    130730.02   -41193.882    2676.2841   -43870.166    93.329412   0.95535434 
   93600      210.197    280.51706    130736.87    -41259.89    2615.2503   -43875.141    93.586174   0.95530431 
   93700    217.97985    258.29501    130574.55   -41215.334    2712.0838   -43927.418    93.445698    0.9564918 
   93800     213.1039    343.78234    130627.04   -41169.934    2651.4176   -43821.352     93.59884    0.9561075 
   93900    215.87182    201.31699    130597.67   -41147.151    2685.8558   -43833.007    93.627618   0.95632252 
   94000    214.43082    209.50537    130627.58   -41150.724    2667.9271   -43818.651    93.655118   0.95610354 
   94100    214.02851    238.83654    130613.38   -41164.364    2662.9216   -43827.286    93.786446    0.9562075 
   94200    216.13964    339.16721    130594.38   -41170.906    2689.1881   -43860.094    93.925191   0.95634663 
   94300    216.73124    398.42423    130734.94   -41133.869    2696.5486   -43830.418    94.266716   0.95531837 
   94400    216.84622    323.96733    130643.66   -41130.968    2697.9793   -43828.947    94.187947   0.95598585 
   94500    216.30618    124.00373    130723.06   -41067.854    2691.2602   -43759.114    94.337202   0.95540521 
   94600    218.04279    190.31703    130718.69   -41117.696    2712.8669   -43830.563    94.099841    0.9554371 
   94700    215.95445    434.12714    130630.61   -41165.255    2686.8839   -43852.139    94.124541   0.95608134 
   94800    213.03494    133.10274    130614.34    -41155.92    2650.5596    -43806.48    94.767026   0.95620043 
   94900    214.04121     231.3426    130658.27   -41114.066    2663.0796   -43777.146    94.700666   0.95587898 
   95000    217.52146    289.88452    130614.41   -41096.124    2706.3806   -43802.505     94.87566   0.95619997 
   95100     217.4878    268.63619    130512.26   -41081.669    2705.9617   -43787.631     95.07485   0.95694834 
   95200    217.37235    202.55917    130562.52   -41093.096    2704.5253   -43797.622    95.007997   0.95657994 
   95300    220.58899    167.77083    130717.86   -40998.496    2744.5464   -43743.043    94.870022   0.95544321 
   95400    217.02602    192.74371    130510.86   -41063.298    2700.2163   -43763.515    94.713345   0.95695862 
   95500    214.96085    164.00842    130494.01   -41063.209    2674.5216    -43737.73    94.813947   0.95708217 
   95600    220.27343    281.42724    130411.99   -41046.584    2740.6202   -43787.205     94.55015   0.95768412 
   95700    214.49638    296.69431    130340.18    -41101.41    2668.7428   -43770.153     94.82079   0.95821176 
   95800     214.5644    213.91138     130408.4   -41148.695     2669.589   -43818.284    94.851201   0.95771048 
   95900    219.18511    324.30936    130503.78   -41103.578    2727.0795   -43830.658    95.308637   0.95701054 
   96000    215.09523    267.49675    130656.62   -41176.421    2676.1936   -43852.614    95.241632   0.95589105 
   96100    215.57285    294.47619    130519.25    -41136.04     2682.136   -43818.176    95.268137    0.9568971 
   96200    206.89396    190.46505    130557.39   -41163.809    2574.1542   -43737.964    95.559988   0.95661757 
   96300     216.8581    378.56479    130518.74   -41102.066     2698.127   -43800.193    95.497775   0.95690081 
   96400    218.50401    278.36295    130506.39   -41093.365    2718.6053    -43811.97    95.293412   0.95699136 
   96500    209.26687     237.9475    130498.33   -41136.559    2603.6777   -43740.237    95.142773   0.95705047 
   96600    213.34314    307.81793    130476.79   -41118.119    2654.3943   -43772.513    95.414303   0.95720849 
   96700    215.16659    359.14422    130563.57   -41187.741    2677.0814   -43864.822    95.493658   0.95657229 
   96800    213.44181    404.83441    130680.88   -41242.743     2655.622   -43898.365    95.635546   0.95571356 
   96900    212.74473    244.96519    130581.59   -41181.325    2646.9489   -43828.274    95.695144   0.95644025 
   97000    212.63988    104.59476    130768.54    -41191.63    2645.6443   -43837.274    95.877789   0.95507294 
   97100    213.01521    288.08107    130786.84    -41181.32    2650.3142   -43831.634    95.846773    0.9549393 
   97200    211.48663    204.21478    130674.21   -41188.697    2631.2957   -43819.992     95.80901   0.95576238 
   97300    209.91672    240.78177    130668.06   -41168.321    2611.7631   -43780.084    95.776949   0.95580737 
   97400    212.65474    360.18642    130713.43   -41178.572    2645.8293   -43824.401    95.647661   0.95547556 
   97500    216.55451    116.42638    130730.45   -41087.651    2694.3498   -43782.001    95.654966   0.95535116 
   97600     214.9339    274.33612    130570.32   -41152.705    2674.1863   -43826.891    95.919743   0.95652285 
   97700    215.79973    385.76731    130911.19   -41088.807     2684.959   -43773.766    96.168033   0.95403223 
   97800    217.49861    254.99174     130801.6   -41083.898    2706.0962   -43789.994    96.201294   0.95483154 
   97900    216.96404    261.43061    130626.96   -41050.768    2699.4452   -43750.213     96.20707    0.9561081 
   98000    219.45783     119.3447     130724.5   -41073.568    2730.4726   -43804.041    96.428556   0.95539464 
   98100    217.62973    368.04235    130587.62   -41137.918    2707.7275   -43845.645    96.135128   0.95639611 
   98200    218.39847    325.15261    130604.75   -41116.534    2717.2922   -43833.826    95.813197   0.95627065 
   98300    213.89791    164.46342    130530.08     -41142.4    2661.2966   -43803.697    95.655432   0.95681773 
   98400    214.12103    317.39692    130389.34   -41156.548    2664.0726   -43820.621     95.77268   0.95785049 
   98500    212.55514    277.69647    130678.56   -41163.468      2644.59   -43808.058     96.29572   0.95573057 
   98600    211.05287    231.31476    130430.02     -41183.6     2625.899   -43809.499    96.573518   0.95755175 
   98700    210.33741    344.04746     130474.5   -41231.757    2616.9973   -43848.754    96.633758   0.95722526 
   98800    210.56449    410.43945    130433.53   -41178.512    2619.8226   -43798.334    96.572462   0.95752599 
   98900    210.73596    192.37895    130662.82   -41177.308     2621.956   -43799.264    96.593203   0.95584569 
   99000     208.2132    175.29708    130677.96   -41216.288    2590.5681   -43806.856    96.662255   0.95573493 
   99100    213.79801    303.70899    130680.76   -41134.787    2660.0537   -43794.841    96.719486   0.95571444 
   99200    218.70403     470.9421    130624.91   -41122.537     2721.094   -43843.631     96.86441   0.95612308 
   99300    217.17079    303.81238    130627.07   -41096.355    2702.0175   -43798.373    96.471582   0.95610726 
   99400    217.92654    349.15251    130696.28   -41070.036    2711.4204   -43781.457    96.851294   0.95560099 
   99500    221.32401    163.22539    130718.48   -40961.767    2753.6915   -43715.458    96.848761   0.95543866 
   99600    218.36848    380.60428    130615.34   -40986.793    2716.9191   -43703.712    96.855293   0.95619314 
   99700    217.29934    228.22347    130592.93   -41009.436    2703.6169   -43713.053    97.044444   0.95635722 
   99800    217.59336    332.48548    130809.18    -41037.55     2707.275   -43744.825    97.540311   0.95477622 
   99900    211.73448    187.73221    130711.59   -41089.621    2634.3794       -43724    97.221171   0.95548903 
  100000    213.33886    305.23712    130700.64   -41079.529     2654.341    -43733.87    96.991516   0.95556912 
  100100     218.9389    276.54658    130816.11   -41003.987    2724.0162   -43728.003    97.400514   0.95472564 
  100200    216.34548    75.147507    130749.96   -41009.367    2691.7491   -43701.116     97.45072   0.95520864 
  100300    217.07224    225.64255    130682.29   -40996.384    2700.7914   -43697.175    97.459337   0.95570329 
  100400    214.69332    256.40324    130580.17   -41028.986    2671.1931    -43700.18    97.046044   0.95645066 
  100500    218.91411    180.44218    130499.58   -40960.061    2723.7078   -43683.769    96.995121   0.95704134 
  100600    215.78208    386.98042    130429.68   -41044.128    2684.7394   -43728.868    97.062062   0.95755426 
  100630    213.68822    317.01042    130411.68   -41026.466    2658.6877   -43685.153    97.092456   0.95768637 
Loop time of 83.0726 on 6 procs for 100000 steps with 4175 atoms

Performance: 520.027 ns/day, 0.046 hours/ns, 1203.767 timesteps/s
98.5% CPU use with 6 MPI tasks x no OpenMP threads

MPI task timing breakdown:
Section |  min time  |  avg time  |  max time  |%varavg| %total
---------------------------------------------------------------
Pair    | 66.096     | 67.797     | 69.96      |  18.1 | 81.61
Neigh   | 4.9758     | 5.0186     | 5.0705     |   1.4 |  6.04
Comm    | 5.5107     | 7.6903     | 9.459      |  55.0 |  9.26
Output  | 0.1591     | 0.16002    | 0.16363    |   0.4 |  0.19
Modify  | 1.7503     | 1.7757     | 1.8026     |   1.4 |  2.14
Other   |            | 0.6314     |            |       |  0.76

Nlocal:        695.833 ave         706 max         692 min
Histogram: 2 2 1 0 0 0 0 0 0 1
Nghost:        1465.50 ave        1483 max        1454 min
Histogram: 2 1 0 0 0 2 0 0 0 1
Neighs:        0.00000 ave           0 max           0 min
Histogram: 6 0 0 0 0 0 0 0 0 0
FullNghs:      19417.0 ave       19791 max       19048 min
Histogram: 1 0 1 0 2 0 0 0 1 1

Total # of neighbors = 116502
Ave neighs/atom = 27.904671
Neighbor list builds = 5390
Dangerous builds = 0

undump              1
unfix               2
unfix               3
unfix               4


################################################
#######         Run Simulation         #########
################################################

reset_timestep      0
log                 log.run_${NAME}
log                 log.run_liquid_density_MLmW
