LAMMPS data file via write_data, version 29 Oct 2020, timestep = 800000

4175 atoms
1 atom types

-0.5183417145686668 50.51834171457129 xlo xhi
-0.5183417145686668 50.51834171457129 ylo yhi
-0.5183417145686668 50.51834171457129 zlo zhi

Masses

1 18.015

Atoms # atomic

2505 1 -0.43328165869748136 4.0474195110011095 -0.3819796049963799 1 1 0
4105 1 8.503265661280956 0.8802292770199205 0.0006503479265113077 0 1 1
2455 1 43.143970881194775 24.86702251381751 12.123885575393816 0 0 0
690 1 13.32404362244629 0.24022746972743347 1.7339716677491714 0 0 0
233 1 16.465693635620244 2.5094588287091617 0.4282708123005561 0 0 0
536 1 4.438406016813105 0.2917454729277491 10.816176915339055 1 0 0
670 1 21.60117329668652 1.38744012624885 0.565864238168861 0 0 0
576 1 28.62617032146296 2.5681543463613976 0.6978615854464829 0 0 0
654 1 34.11030618738387 12.499675834787842 -0.4459581538760796 0 0 0
638 1 32.198947969369556 0.12330615784330878 1.8974036045491327 0 0 0
35 1 34.642044367293764 1.446987195119488 3.3182177978808163 0 0 0
395 1 1.4694075336608563 6.449365227406714 15.345351200919044 1 0 0
2744 1 40.9761376491614 1.561913087596607 0.8076676747723106 0 1 0
581 1 44.74216152937751 1.8490938210601056 2.037472902860454 0 0 0
567 1 49.69302539538947 -0.015336786030119787 1.5208713722843266 0 0 0
3580 1 48.52521884652043 2.1021916382035712 0.050637365945439106 0 1 1
193 1 1.3287341485585562 4.64156043646457 1.7011525244225965 0 0 0
3395 1 11.765174645335524 -0.3205343922301461 14.762327867599375 1 1 0
432 1 3.561057881183734 5.752924962430819 0.8262885255452359 1 0 0
1455 1 5.977840978627285 4.17841909478039 1.2360134301018144 0 0 1
686 1 10.241865140697087 5.72233638328969 1.5976873251853063 0 0 0
184 1 13.981799792427339 2.9464266353224158 1.1558818765238053 0 0 0
1716 1 11.897859616995712 4.263222337773275 -0.040685453003647065 0 0 1
198 1 18.315528584444387 3.6541341234559894 1.8445339343835356 0 0 0
1405 1 20.79035232472733 3.1612025939650206 2.3456343249092626 0 0 1
1689 1 21.935651673926696 6.063690257223737 1.650051238577095 0 0 1
2516 1 4.046011444648143 -0.23911968396417765 0.2247290134696227 1 1 0
2589 1 26.425294675691095 4.271997749126155 1.5534148865353266 0 1 0
2162 1 31.054655767344904 2.5151724884542244 1.8727411123789088 0 1 0
225 1 34.826939850124035 4.203059474092685 2.3421121225742803 0 0 0
2394 1 32.804261835223784 4.149738253266358 0.0970087502746323 0 1 0
2312 1 37.721554299145154 3.9882530598954498 2.542754131699718 0 1 0
2525 1 41.55203667087157 5.65081623861773 1.990611602850017 0 1 0
2766 1 34.8162639640054 6.470829173620495 -0.21143502449969365 0 1 0
1463 1 42.41372307221792 3.063589568313086 2.755170106711105 0 0 1
2638 1 46.48867618334434 3.8473246336694915 0.9672348233661923 0 1 0
358 1 47.23934880788397 5.3914948655197215 2.944832394103544 0 0 0
437 1 4.302465601577269 8.186588247211047 2.066090332301785 0 0 0
143 1 23.727171592921035 8.163416780319258 0.21997307546143008 0 0 0
2062 1 8.045395381055892 5.656555397231415 0.0809688791983244 1 0 1
12 1 11.29073444864465 8.219893126007104 2.1542140683193387 0 0 0
976 1 15.033813323137778 7.266218634348495 0.3329775312290809 0 0 0
1961 1 19.98152994398982 7.468195461865946 0.3872503343641911 0 0 1
4097 1 17.651815223820414 6.270087158957578 1.311799743275765 0 1 1
146 1 16.283588507987165 24.810800300862784 15.225223408453763 0 0 0
1877 1 25.8073221480374 7.885107864189436 1.9962545563676946 0 0 1
445 1 28.0629367332912 6.336881030174253 1.5883413735125975 0 0 0
586 1 32.18030929049354 6.517110495721669 2.0445042807824816 0 0 0
1870 1 29.641770444993146 7.570261380844572 -0.39252241483160943 0 0 1
357 1 0.966412822232571 22.754759613915944 -0.1480210510789669 1 0 0
600 1 37.428588020990986 7.426287684075288 0.46389424064444806 0 0 0
2630 1 39.05676137241822 6.401368417506578 2.485408125721779 0 1 0
2099 1 32.24823120260008 16.827315996607325 0.28250401404290704 0 0 1
1704 1 43.01293767458117 7.681515569784695 2.133393388840395 0 0 1
1983 1 48.390025979327746 7.309623829593633 1.352232446879267 0 0 1
162 1 1.771721255220113 9.173617981594104 2.634548608159151 1 0 0
2625 1 36.26512124726999 24.767001521900948 2.6862222321647837 0 0 0
1806 1 6.466679677003379 9.673917578618507 1.180321930046504 0 0 1
607 1 10.94908615456841 12.530743466558546 1.3241379339796284 0 0 0
560 1 14.23846573543677 9.131156657284958 2.2936751961440827 0 0 0
1972 1 14.840214268922535 11.750134077691587 2.077372313887754 0 0 1
61 1 16.86795782398136 -0.35706887717979896 15.979881210003505 0 0 0
2190 1 21.481160377958457 10.214504352256416 0.3108542151196102 0 0 0
495 1 28.273157167580997 11.14629704670042 1.02416121583382 0 0 0
1653 1 31.529012974614812 8.807528296243946 0.7467007827874164 0 0 1
454 1 30.63456476026795 11.044086805763996 2.6310336394587748 0 0 0
538 1 35.25849088061966 10.850082594593419 1.6472044757703217 0 0 0
588 1 3.742587080807576 16.106408269309597 16.429600475198374 0 0 0
1760 1 37.890832772893305 10.152913055357054 0.9255023540633933 0 0 1
631 1 46.24888135884255 9.022139052101696 0.9245533686467726 0 0 0
1727 1 5.883380655670202 1.7129924533263154 -0.38803554758529013 0 0 1
1454 1 4.7348015951366005 11.998371040035996 1.1555903624952708 0 0 1
136 1 6.451607485805735 14.148915690366703 0.950282939700476 0 0 0
2097 1 12.07808986684715 14.624100424500414 3.163486967123297 0 0 1
701 1 9.0592245589322 -0.04594762280878717 6.825096761261447 0 0 0
1474 1 17.558261585539334 12.209126710383975 1.8191750534796527 0 0 1
183 1 23.724427283049476 14.364373359690177 2.1888585199363586 0 0 0
267 1 3.35452043773346 -0.22488379110047146 2.9908529319150974 1 0 0
1729 1 26.793539324346998 13.60380066460264 0.0169716823842484 0 0 1
1833 1 31.393151081809478 12.830824851087488 0.4923599753502088 0 0 1
705 1 30.30814088336653 15.099088663891566 1.2258567839988992 0 0 0
108 1 34.44215137782281 15.183459838713244 0.11431047915088655 0 0 0
2068 1 39.812041929776115 13.110030218012426 2.4510929287906977 0 0 1
273 1 42.36046530700297 12.890065947615328 1.0353557924587504 0 0 0
547 1 46.08784928119849 14.515935827417598 -0.19671797247247308 -1 0 0
2130 1 46.80923795063765 13.373819992604108 1.9468142919658837 0 1 0
1026 1 49.32981003927959 12.86822012554011 2.094511916757289 -1 0 0
2287 1 1.4827381935691784 15.356413771923082 1.1624050538496145 0 0 0
2167 1 2.1005595378712645 18.127017413862077 0.5171038394563778 0 0 0
616 1 6.340739665336195 18.22926735386936 1.5258565076983062 0 0 0
527 1 5.421365024794906 16.720754172585597 3.736072524885911 0 0 0
2161 1 13.37221369936575 16.46842708283939 1.7155914272534778 0 1 0
1783 1 17.348359609890977 14.84733931171913 1.1234468202237333 0 0 1
343 1 19.04969714177336 16.69443057874119 2.016219178340022 0 0 0
548 1 27.645339217095117 15.754493078971137 1.452587905741375 0 0 0
2 1 28.184631476480174 18.74751986965413 1.9141804227714987 0 0 0
310 1 25.389965362454266 1.4048804783551123 16.25348960349653 0 0 0
237 1 43.196855238173654 15.687455368728934 -0.04117211491330741 0 0 0
2790 1 44.540382972279374 18.244794818457923 0.1403436946244322 0 0 0
903 1 49.8980164575985 15.387062168507756 1.5084369881606525 -1 0 0
3916 1 27.016835049389034 0.25190102085236277 0.06708549099780414 0 1 1
544 1 3.9088434586145766 19.62739479158793 2.0315900173596035 0 0 0
2666 1 3.609678862029728 22.12383784510906 0.8325655688054636 0 0 0
4083 1 6.906299075804668 21.262775619914112 2.0526522810897583 0 0 1
466 1 10.72503396984051 18.296432673923604 3.152684597767565 0 0 0
1924 1 9.162004410402094 18.03434537437048 0.6664356116004224 0 0 1
3754 1 13.456792559538174 18.90878337946913 0.3934899934945463 0 0 1
3316 1 13.693286957753015 20.95352786235167 2.146485226285831 0 0 0
424 1 19.863263528077866 18.790115351486946 0.19302999667875576 0 0 0
2459 1 21.799164033132758 20.161775160845593 1.8365036728877313 0 0 0
555 1 24.367472730510286 18.676928152618917 1.4365799545485267 0 0 0
52 1 26.145062683813627 20.52800001464451 2.457466704885767 0 0 0
6 1 30.108151336352297 20.49465007662457 1.3446087843853491 0 0 0
177 1 32.44979364061237 19.036990226859494 1.4885180166280199 0 0 0
418 1 34.425460459277446 20.441976710198627 0.287597494082654 0 0 0
1780 1 38.131123579325674 18.260897869648858 1.3666917634267046 0 0 1
294 1 36.8667948524249 20.917079761677762 1.9929750285093366 0 0 0
8 1 40.43986027042122 18.981081992797165 2.442012277725391 0 0 0
139 1 42.274755452166616 19.57179293159591 0.165261488133834 -1 0 0
123 1 45.36749317511784 19.19452191099515 2.5381304910345754 0 0 0
110 1 48.09066057428089 19.320445156858927 2.131205019656558 -1 0 0
477 1 6.211258871752378 3.88368255045793 13.176178071760491 0 0 0
275 1 1.2521273044314276 24.103630523049596 2.707467092329863 1 0 0
2117 1 3.8225117513108646 24.68475868981975 1.8237332003643973 0 0 0
3876 1 11.870317835316543 23.180390130075814 2.042689108504762 0 0 1
2538 1 16.131312415242128 22.308659799808716 2.817782192511199 0 0 0
3942 1 17.45768321549119 22.773763552965093 0.5036229394340406 0 0 1
3642 1 19.945209781439083 23.895001857671787 0.544091785543338 0 0 1
2073 1 22.108030599890625 22.341897318979843 0.3879659644154495 0 0 1
2578 1 11.547488663145643 -0.2552393620189804 5.991560084034378 0 1 0
417 1 26.657770053671303 22.98206557753088 1.3129397966313074 0 0 0
688 1 2.4189728904837735 24.92634097553509 15.212802346562361 1 0 0
485 1 49.58565968495422 23.91480443363771 1.077773017712134 0 0 0
2171 1 38.01167771266796 22.853265596638575 0.5705937330573196 0 0 0
2056 1 41.13129245683531 23.618545945750455 0.49178435354648764 0 0 1
1423 1 43.33124487358245 22.017248793183754 0.4083286926579659 0 0 1
175 1 47.26026896978833 23.203654594123876 2.876373951621066 0 0 0
2714 1 32.526462183185885 24.66289097293628 0.7946309375986418 0 0 0
1658 1 2.1983504351341385 2.407669342740905 3.0605411936105096 1 0 1
1943 1 0.5988237327592196 -0.07671828336546582 5.862028970775037 1 0 1
1057 1 -0.22077185470028493 0.19552581789835255 14.116768980598113 0 0 0
1592 1 7.334860462863436 1.315081608494642 4.999848183249783 1 0 1
684 1 8.927223089431983 1.9397294468447943 2.625464370238945 0 0 0
256 1 10.934800793183049 0.2860707321382632 3.199320823474143 1 0 0
2665 1 16.383071962784282 0.2940198600132178 5.648265853200354 0 1 0
2169 1 23.031124584675297 0.5726520331098472 4.723125555332509 0 1 0
4119 1 25.691676994541012 0.6248261355346363 4.2555503260147365 0 1 1
1168 1 48.50792171773992 23.586498560477903 13.216653330667684 0 0 0
461 1 30.566387323436853 -0.14871940839108017 5.6153464569694025 0 0 0
645 1 35.33341696227832 -0.34815697653699107 6.149826514587502 0 0 0
3180 1 14.01218159602947 7.084127689493753 16.37642602912573 0 1 0
414 1 46.37397112034249 23.888343521898957 15.027267099685565 0 0 0
1863 1 38.76963771216944 0.10871575008689183 3.60307790963789 0 0 1
2615 1 41.76665583522015 0.6220140060551145 4.413010463738271 0 1 0
685 1 43.42784366963011 0.3309295839302667 6.660429825607654 0 0 0
464 1 46.223370682552854 0.23658528626917585 3.5723613676102906 0 0 0
401 1 47.70355254177609 1.652035815065115 5.235668220401099 0 0 0
314 1 -0.3217079453638039 1.5407575181407336 3.726716640096238 1 0 0
2203 1 5.7583081527344495 4.685405483265047 3.963823676636008 0 1 0
657 1 7.987016937398293 4.09374136658436 5.505828545677446 0 0 0
2808 1 10.307937756191805 4.380490749047729 3.911003239672797 1 1 0
982 1 12.247629605275453 2.8129639904162036 4.915683766723844 1 0 0
1315 1 14.446637686402909 4.104695881526962 3.8758138213464557 0 0 0
350 1 17.036485797599727 3.1091247771780126 4.306039316140512 0 0 0
1309 1 18.53269067585338 5.000540165532629 6.223614548054151 1 0 0
530 1 22.208969236332333 3.2575173342347634 4.675797050097827 0 0 0
11 1 24.677901722039305 4.755808895425809 5.507854828398486 0 0 0
1537 1 26.562060862126604 3.1845867973237447 4.2953933632368875 0 0 1
2750 1 29.173216959411302 4.048032128451447 5.2314423811287645 0 1 0
474 1 31.311417086435803 2.45128911843334 4.728919210501418 0 0 0
649 1 33.31228452005875 4.489026665825026 5.26360502619101 0 0 0
341 1 35.47844611792887 2.5485280322218857 5.786521166247009 0 0 0
2430 1 38.20186000096247 2.6810614756914766 5.197922160922677 0 1 0
270 1 39.14255306311843 5.469915617284825 5.595034833424331 0 0 0
1854 1 43.31064851088581 4.40730830730818 4.914687791574206 0 0 1
2225 1 49.20943269693663 4.065349057123687 4.642054360915583 0 1 0
575 1 0.6416262789938558 5.518087106526901 4.139815783114456 1 0 0
322 1 3.563743126887215 7.615832944783486 6.619098157150759 1 0 0
702 1 5.246748751311369 7.332709336789353 4.471151055093166 1 0 0
627 1 7.553145477665927 8.49333886156013 5.4378642214928545 0 0 0
2149 1 9.506028459517545 7.040738746693481 6.551488429342666 1 1 0
36 1 14.350438515664656 6.678896058211743 5.309531036098776 0 0 0
2053 1 18.528292439548984 6.949081346702261 4.1110929859415215 0 0 1
272 1 21.29258936960759 8.213139506578582 4.075713842759823 0 0 0
1695 1 23.96117143936654 7.141598084866744 4.044698895637557 0 0 1
188 1 29.834097243415034 6.404208943117754 3.9093637334709035 0 0 0
2722 1 30.518627152247845 8.677859069054202 5.150744580391168 0 1 0
2365 1 34.30560599654176 8.165520366411375 3.026953730531249 0 1 0
9 1 35.18354484955792 7.108728336459761 5.48714450698375 0 0 0
436 1 42.65294160877632 8.410256977306364 6.487788876348134 0 0 0
1030 1 44.883576994392826 6.52271006292465 4.115721561069443 0 0 0
429 1 45.27976870325341 8.098231865983088 6.21844412905004 -1 0 0
945 1 50.457523013528075 7.855891271507174 3.3630539659202885 0 0 0
1568 1 2.009135926805369 11.016834887431862 4.803496924231201 1 0 1
312 1 8.586550375609352 10.657947525581944 4.390748702672371 1 0 0
599 1 9.360324270776456 10.141147626759807 2.0138596585249346 0 0 0
3086 1 10.6083486124033 10.761362014581115 6.546560862634445 0 0 0
112 1 14.36582614691892 10.055961927334831 7.520195704859416 0 0 0
130 1 16.109417705553536 8.698910974049236 4.22336490376613 0 0 0
286 1 21.829662547837657 10.814859089978135 3.0816010329154713 0 0 0
180 1 26.52874562193566 10.30964828545839 2.95917264075154 0 0 0
298 1 28.657926957423594 10.696482080202397 4.878086406222141 0 0 0
1476 1 32.8877767016203 10.006428383046865 4.184936021910043 0 0 1
74 1 34.09687910339464 11.691300618673706 6.088497811728146 0 0 0
420 1 39.25027833125053 10.4847249613166 3.47438418476838 0 0 0
511 1 37.47485119056607 8.299150375474248 3.9013940068861857 0 0 0
50 1 41.77077062647879 9.412723669137277 4.018468910253085 0 0 0
490 1 43.3440415590876 11.41820805155993 3.1669551374893214 0 0 0
525 1 46.02585254281196 10.879644375491111 2.775386908644447 0 0 0
535 1 46.66009821293672 10.533186966858711 5.437298407713167 0 0 0
140 1 49.41612213076212 9.569542854832054 5.45916834580943 0 0 0
1209 1 50.34653400888379 12.04200111315662 4.961187935592517 0 0 0
1794 1 4.079125322175002 12.628095659614253 3.823350192347001 0 0 1
78 1 6.649892933471811 12.661531391220198 4.589655425818845 0 0 0
648 1 7.559126224624135 14.917260672867274 3.3157802493361546 0 0 0
213 1 12.709395522184797 9.793918245504257 5.084939741461058 0 0 0
396 1 17.814890895048844 11.138150217182433 5.05398924268176 0 0 0
1533 1 16.28860039966607 13.195301491381453 5.428806513924043 0 0 1
132 1 19.932868480124384 12.593170653144774 3.707104978050414 0 0 0
1584 1 23.950186095779355 13.136260681132958 6.054684422717547 0 0 1
1916 1 24.495630643609033 12.151748022978625 3.6422461023665464 0 0 1
1903 1 29.557911702977474 13.273119740353156 5.429229738165157 -1 0 1
128 1 30.789447287561632 15.337862592932192 3.7619527711682528 0 0 0
703 1 34.96485498579719 14.78497185898077 2.948195786736515 0 0 0
1914 1 35.53680194011933 12.367451895725253 4.156910203542833 0 0 1
255 1 37.92237756089597 12.007606313591747 5.198995891379735 0 0 0
2020 1 39.24153424946836 15.341586858039141 4.189276711037377 -1 0 1
723 1 43.32479756247062 13.391711368266705 5.082795602169554 0 0 0
218 1 46.75306915507875 15.380706055154196 3.856064994185542 0 0 0
637 1 50.03385248699871 16.50503784956481 5.739218488092123 0 0 0
513 1 1.5482305628831243 16.714552004375506 4.822582185346834 0 0 0
1221 1 3.39572738459726 15.14891098972161 3.1485937213888393 0 0 0
31 1 4.9199945161046434 18.335603207434364 5.955261231631896 0 0 0
373 1 9.864715503220951 16.166927155335827 4.758932319988133 0 0 0
118 1 13.571843701665038 12.428216539434013 4.37603645570365 0 0 0
689 1 15.523850918584525 15.088082318891264 2.999345543692292 0 0 0
2768 1 15.100110393922595 17.532745999941643 4.685238729633965 0 1 0
449 1 17.797609772276136 17.904473635571488 4.419127835994674 0 0 0
516 1 19.387041783165564 17.139006711582866 6.431473040298975 0 0 0
77 1 21.08733881927178 14.960622873074701 2.6367672967679074 0 0 0
486 1 21.954546481992768 16.690703368507723 4.876832637956995 0 0 0
338 1 25.52029204831225 16.593003539193795 2.8855239411668077 0 0 0
2338 1 29.258775194181766 17.400315122217947 4.483725399689169 0 0 0
391 1 33.26485513956453 16.076042042483817 4.694293118953532 0 0 0
2328 1 39.411408103525176 13.863330956215618 6.62730497352502 0 0 0
2636 1 37.02693597644992 16.717474330183816 3.340993385732502 0 0 0
158 1 41.39622941300672 16.97983629923798 3.983189997672599 0 0 0
81 1 43.573640792490735 15.441778560823359 3.013411695782378 -1 0 0
608 1 44.8958918454763 17.631966264918336 4.466678160416742 0 0 0
398 1 48.86033143498233 16.949242221833618 3.213550565232567 -1 0 0
2342 1 0.8495657342064262 21.954430585052766 4.309389492067441 0 0 0
1210 1 2.4826897937638677 19.54876791842656 4.5667038779466536 1 0 0
2444 1 7.407664955862378 19.588704577657683 5.8729295791612515 0 0 0
668 1 8.90222940229101 20.604124531306432 3.7434681206386093 0 0 0
1173 1 12.925047635770909 19.48476340934093 4.457851179822947 0 0 0
2411 1 17.86150470315305 20.64574935402562 4.617952394186646 0 0 0
1712 1 20.674364377321886 21.304775712467375 4.08849405637322 0 0 1
117 1 22.4640847295805 19.628987164359778 5.147514036859417 0 0 0
90 1 25.09704981589032 20.83717282498745 5.201368852912938 0 0 0
510 1 33.00027428736573 18.71950542086015 4.088223727418404 0 0 0
1968 1 35.58292202622107 18.418124456828053 4.970836461441378 0 0 1
46 1 36.02040036216077 21.137415798533663 4.436281204996631 0 0 0
623 1 38.398430029176566 21.07944186209925 5.930979728065051 -1 0 0
594 1 40.31154848262385 20.94081666798163 4.359660751600646 0 0 0
672 1 49.25377543150053 20.981485955900197 4.310004773228409 -1 0 0
3622 1 5.341093076475962 24.617488172009704 6.251945644907064 0 0 1
1631 1 5.704062782789563 23.25820785704067 3.665678485426831 0 0 1
2066 1 10.141946793473549 23.025656820308175 3.924959713520604 0 0 1
3745 1 21.245118606396822 24.055030238277425 4.961845331372857 0 0 1
2383 1 25.057066723473408 23.484408338874843 6.283418948585842 0 0 0
153 1 29.38697910240941 20.97151046922486 6.029460597272208 0 0 0
2555 1 30.206403042503556 22.145668463767905 3.433849734195768 0 0 0
2457 1 32.16470355706842 23.95907430379396 3.444709564946446 0 0 0
3998 1 34.6293707144594 23.491077993556235 4.687487463090476 0 0 1
2446 1 40.21811757045151 23.273968780158263 3.156980340019136 0 0 0
698 1 43.56909931609326 22.537180342771148 5.113574019435148 0 0 0
2260 1 8.265793260166172 22.419980294581173 16.201159217914977 0 0 0
361 1 44.81674024916465 21.937884992682715 2.6861817989152774 0 0 0
2728 1 47.98670547761759 23.499059803271326 5.48913700581659 -1 0 0
300 1 20.556410348303352 22.01572486088481 15.82011702465368 0 0 0
2343 1 5.031761092307263 1.7530923217633738 6.674679621150123 0 1 0
2353 1 6.302994255195328 2.755131432030219 8.763236986851803 0 1 0
2786 1 8.416636361587553 1.336408954702327 9.143809469615286 1 1 0
2539 1 13.995391487619383 0.4956230528664922 7.550823455729731 0 1 0
2593 1 18.307246956253866 1.8774560173940604 7.437550595069134 0 1 0
2496 1 17.964029972865088 0.8450076063061802 10.107820813094452 0 1 0
2314 1 30.171633121691666 24.573301217546717 12.669007995660202 0 0 0
203 1 22.94316239226875 1.7520249872468914 8.835170844503025 0 0 0
2738 1 27.155589029469468 0.6881771939172183 8.142880119262978 0 1 0
349 1 29.47865452096736 2.045986241758037 9.138645244121616 0 0 0
2679 1 28.79631317749079 24.157201006794555 2.405116431771651 0 0 0
289 1 48.97485516525259 9.00202677280043 16.113389051598155 -1 0 0
568 1 41.202275336217184 0.008787420143930413 8.54656505739311 0 0 0
508 1 43.80225965775706 22.664339084464086 15.681985808810833 0 0 0
589 1 47.42915392138434 0.18132361021677768 10.060317593489495 0 0 0
1835 1 49.464146338627515 0.6691624575635464 7.35752631740722 0 0 1
1567 1 1.998675134448896 5.660246713064474 6.732561494985706 1 0 1
280 1 3.5435307273667274 3.737952739866513 5.267452118169184 0 0 0
867 1 7.1583447290272995 5.324444670103195 7.944142031082704 0 0 0
615 1 9.359024936643001 5.529883271293809 9.67030028329192 0 0 0
803 1 10.665073869376577 3.0350966103526873 9.375113523107569 0 0 0
2458 1 13.285933122459879 3.357469453584492 7.442463269265991 0 1 0
335 1 13.589893902675708 4.850059236629232 10.408479947269885 0 0 0
96 1 17.607209220132503 6.782675213966629 8.444328883994297 0 0 0
58 1 20.723464177489635 6.223165850350579 8.272218703726718 0 0 0
2332 1 21.083481842822643 3.509849123370323 7.158854347768236 0 1 0
274 1 25.370881726301576 2.9295671554559903 9.410658449533042 0 0 0
496 1 25.620596197462888 5.317267847776734 8.109775364488764 0 0 0
385 1 29.500650894560493 4.446503397209776 8.022092468954192 0 0 0
2587 1 32.04081031055031 5.574530731629866 7.454597222532486 0 1 0
2441 1 33.79934904484766 5.075811871470178 9.478719137317947 -1 1 0
285 1 38.45823188399004 3.8035334412242907 8.29745831774478 0 0 0
1021 1 35.654901396742815 3.2241563229287467 8.931996767379072 0 0 0
2488 1 40.63476984643323 2.6707563369982426 9.196481695900548 0 1 0
671 1 41.81513218370726 5.653983319589108 6.946904417241374 0 0 0
364 1 42.54271630486174 4.591145717951703 9.615087378126077 0 0 0
1183 1 45.10038321036032 2.7988582640416446 6.1883496210215485 -1 0 0
441 1 44.95540613655841 3.5708211937041003 8.861425821840031 0 0 0
23 1 49.28053725046546 2.9065063015418673 9.00313155753194 0 0 0
578 1 48.8055919966875 5.141597318368059 7.30403136885305 -1 0 0
2147 1 -0.11469232610895846 6.911737584856986 8.285646596917937 1 1 0
2675 1 5.692455003496211 7.626917760610192 8.149115878833733 0 1 0
598 1 7.04074384408742 10.103052882830802 8.159933034706103 0 0 0
447 1 11.618110540024775 7.011934035884398 4.661977476684848 0 0 0
356 1 9.995097319830439 8.75513391154158 8.801466474204762 0 0 0
1899 1 13.385036305777986 9.117735591994093 9.836374369386935 1 0 1
1132 1 11.739674618734071 6.845561589336538 10.749032671483102 0 0 0
967 1 15.0583170395855 5.643634654432268 7.853424778940047 0 0 0
48 1 17.256893879929866 9.492652375483994 7.329131719260346 0 0 0
434 1 20.00736895672793 8.497602755974293 6.788211866414045 0 0 0
459 1 23.54796162174107 6.872578908467612 9.230797739827514 0 0 0
479 1 24.729678572786707 8.131092957447091 6.473647523134103 0 0 0
676 1 27.917095633770217 6.193156893378727 9.462790418147733 0 0 0
37 1 31.726793139371754 7.976806377654537 7.462032054743387 0 0 0
593 1 34.68285486663591 9.09104142580155 7.504415168540257 0 0 0
809 1 38.89012743016433 6.474015406116472 9.375458247362117 0 0 0
403 1 46.311016547026 6.14569060608971 8.093812534453978 0 0 0
707 1 -0.1718246599601378 9.635210650865062 7.9789957188854235 1 0 0
652 1 2.3435109455065297 10.063853721621303 7.281478130199222 1 0 0
301 1 3.24979395377139 12.46810871502329 8.446131639417562 0 0 0
628 1 11.737620845757645 11.287072158608812 9.951882775871784 0 0 0
412 1 20.93497042477286 10.905402511514335 7.928894849154272 0 0 0
239 1 23.105020113649225 9.653880919028502 8.47533439320981 0 0 0
1808 1 25.393937192699198 11.829421379174445 7.988597549120717 0 0 1
69 1 27.99970168804498 8.89472822086981 9.335207868507359 0 0 0
641 1 27.090184911618657 9.821711103544049 6.995607111252215 0 0 0
663 1 30.430157034720516 9.618322370279838 9.455540000972567 0 0 0
404 1 31.451899687751162 12.170697886137708 9.370786525427746 0 0 0
534 1 37.440487317312886 10.557784448054097 7.493279456183549 0 0 0
1426 1 37.669554745197544 7.4073887380324095 6.742543497898308 0 0 1
1402 1 46.071062935418 11.041518832077362 9.023740261645155 0 0 0
1014 1 45.51775140937626 12.728974611448802 6.79108375791581 0 0 0
1061 1 1.0847231403488191 14.539674928949141 8.663914073400967 1 0 0
2508 1 5.8827394439515945 12.387280936812191 7.224722664224849 0 1 0
476 1 7.433156296376795 13.801892419335223 8.89331031017428 0 0 0
331 1 10.076306958759343 12.98598684748799 8.17710691239431 0 0 0
2778 1 13.998648299986058 12.890377960513192 7.736004240892186 0 1 0
57 1 11.597096767214499 14.348672096831946 6.447385410672319 0 0 0
558 1 16.52304342852156 14.571820074676749 8.091507787771759 0 0 0
1485 1 19.27136603838074 14.742079539435245 7.777642304901553 0 0 1
1265 1 21.128801979779126 13.037461059504873 6.348720626872085 0 0 0
580 1 27.131492804110174 13.648327055997095 8.938044895591215 0 0 0
410 1 31.989629165407518 13.255665151286676 7.004097484553506 0 0 0
506 1 42.04262336685426 10.390201805200455 8.206706910372622 0 0 0
332 1 41.861172783833155 13.046977708757986 7.371094238473755 0 0 0
1487 1 47.19755569114619 14.60687118253077 6.367908285719314 0 0 1
297 1 49.6496652841453 13.569892102488236 7.026231898310129 -1 0 0
2135 1 48.76036349034476 12.50255004397604 9.360988287367052 -1 0 0
3928 1 2.866854948124573 15.36488771657864 6.91003780105972 0 0 1
235 1 4.475800606543419 17.029653501444898 8.171027852232275 0 0 0
212 1 7.053222876477143 16.600916100722255 8.76755397079947 0 0 0
376 1 8.599950310027866 17.812231589139525 7.00269899135671 0 0 0
563 1 12.117969918633277 16.408519097074656 7.8331668423324 0 0 0
492 1 15.188590401934977 16.773083532137946 7.546009726661197 0 0 0
39 1 17.073611288483104 18.17761601036713 9.747853766488062 0 0 0
439 1 23.234985395068442 16.337919075769552 9.41768688115454 0 0 0
533 1 26.45439094829731 16.753173795945788 5.579337461654891 0 0 0
413 1 24.013767279961336 15.76161097162786 6.587906772457261 0 0 0
363 1 28.352335928847264 15.313293390535032 6.880138919463228 0 0 0
121 1 30.48018452169045 16.75173567950321 8.210993510188606 0 0 0
229 1 33.05392638110173 15.822578624593152 7.512407439232021 0 0 0
1501 1 35.525193102140605 16.141744896462342 8.868432901719997 0 0 1
2284 1 37.550232789014515 14.36759616575146 9.017581905238 0 0 0
2461 1 40.36167321392456 16.845550895879185 7.222085670151783 0 0 0
200 1 42.73982837187903 18.190954264520045 6.268146319463349 0 0 0
948 1 42.78648973228199 14.58915465221154 9.37931505923492 0 0 0
369 1 43.683618490788874 17.27551174481837 8.679780328172038 -1 0 0
2995 1 46.539848069117284 16.625205647319582 8.427588390383356 -1 0 0
626 1 50.25913356720639 18.231748484872863 7.948781566498351 -1 0 0
2737 1 1.1818577872702838 19.983238007663328 8.906789178575098 0 1 0
405 1 1.461323411914245 22.175596886799312 7.064295919060058 1 0 0
257 1 4.236034372104377 21.64552405863865 6.347135572650778 0 0 0
1263 1 3.2689213979720715 18.853410003413988 10.015572664063559 0 0 0
92 1 6.849823608670618 21.505216763951555 7.739187177125967 0 0 0
1641 1 10.94038525388265 18.770341439743905 7.821978797349519 0 0 1
3635 1 12.439693742212658 20.78808989422595 6.922179413566463 0 0 1
352 1 14.822483019798623 21.46153370680035 8.437616595054584 0 0 0
2490 1 17.420161334956266 21.37348408642388 7.220063842884449 0 0 0
370 1 19.10923609623207 19.51543984935323 8.267090877214814 0 0 0
561 1 21.979846969046744 20.732785340013603 7.861721010244684 0 0 0
543 1 26.017659983378213 19.876516360124228 9.512299154732878 0 0 0
223 1 26.866572811159156 19.44550933334967 6.692760953833008 0 0 0
271 1 31.106713145134126 18.696111507099193 6.420867597859858 0 0 0
4172 1 36.07309893004948 18.517166222614293 7.6075861859996525 0 0 1
570 1 33.53329556998192 20.09964196402738 8.033206259361972 0 0 0
500 1 38.6292885196853 19.242128591934993 7.916795261651167 0 0 0
481 1 42.060647004786944 20.88598158575954 6.5307167627245 0 0 0
1174 1 46.24223430770374 18.770313398721832 6.756008895942194 -1 0 0
295 1 45.56556229178071 21.06900636582319 8.225362163396506 0 0 0
2669 1 48.70502835853904 20.395652412584212 6.983674516827119 0 0 0
515 1 32.548257777496545 21.946081698863214 15.336524544008732 0 0 0
79 1 3.7443025129340413 23.667772307257888 8.91060258426248 0 0 0
2600 1 11.226497006780042 23.22925311928326 6.606878731902699 0 0 0
457 1 9.018402171774563 23.5263888303498 8.127850226680149 0 0 0
4158 1 13.667104425056339 23.71011696034315 9.7905993549561 0 0 1
2341 1 17.80852719263545 24.049536016988018 8.14181770573799 0 0 0
2319 1 31.625044559134725 24.389378035189672 8.02929154459837 0 0 0
85 1 22.822428618663718 23.351537511395563 7.977068297920724 0 0 0
501 1 27.51907723869557 24.460670510554056 7.3660330982458175 0 0 0
137 1 29.569497371665147 22.580411617997747 8.174551104717688 0 0 0
2526 1 33.86683515535029 22.79988514322819 7.36308120983232 0 0 0
3047 1 38.141926938910615 23.82799440069157 6.871549894417385 0 0 0
1088 1 35.75236163809731 24.530484244180375 8.532247702986865 0 0 0
1333 1 40.91731903673191 21.82031610200858 8.774857140919588 0 0 0
243 1 40.775886147824394 24.278688601101393 7.5027607762981 0 0 0
2699 1 45.38680252900116 23.38441822773232 6.756272107069504 0 0 0
471 1 48.286099713274425 22.637149890709516 8.893967540282013 0 0 0
3189 1 0.8212182862758866 2.6779278468051784 9.934106539275152 0 1 0
1773 1 15.601754616010233 24.742537889408517 3.9807211889668768 0 0 1
2424 1 36.54091524681577 0.1371730203841609 1.722595991733439 0 1 0
634 1 0.8635291604746143 24.93035895011855 7.6028646064232674 0 0 0
540 1 13.153332306046561 0.3944154119301406 10.251646595836236 0 0 0
2603 1 12.22591025326374 2.6164704500973652 11.590870454555494 0 1 0
871 1 41.56942296318009 22.015259306441262 14.52937563899563 0 0 0
2816 1 22.253977486096417 0.5240975810492623 11.22522157850686 0 1 0
2398 1 38.97368693903012 3.2947825263520554 0.13036207833177216 0 1 0
604 1 30.80688601728186 1.9744526893947363 11.778525824590407 0 0 0
2799 1 33.13978353231258 0.39796641194792426 12.138482172268924 0 1 0