LAMMPS data file via write_data, version 29 Oct 2020, timestep = 800000

4175 atoms
1 atom types

-0.8073134460887346 50.80731344608491 xlo xhi
-0.8073134460887346 50.80731344608491 ylo yhi
-0.8073134460887346 50.80731344608491 zlo zhi

Masses

1 18.015

Atoms # atomic

2338 1 0.014025242298874918 0.0011600217440395078 0.9713578799303311 1 0 0
972 1 1.623300634613512 1.897584731091607 1.2625804298744039 1 0 0
18 1 5.80541828367496 0.606247732258977 0.9775917417766105 0 0 0
2887 1 7.969110933963183 1.6766468677813586 -0.5702868973410984 0 0 0
3482 1 10.362083211669475 1.8257902533529826 0.6160192199056906 0 0 0
2458 1 11.707530206457333 -0.36669669441918623 0.7286603291606524 0 1 0
1241 1 19.21425766653078 -0.7834911503392145 -0.20756939437077992 0 1 1
3827 1 20.810849856487604 -0.2466537965905351 2.346219326105026 0 1 0
3986 1 25.088466446431365 0.26252069929930966 1.4171700643356626 0 0 0
3381 1 28.949417885926188 -0.3581814461607596 0.8462498607405016 0 0 0
1874 1 33.44236728199905 1.2307723678177114 2.010478473928335 0 0 1
3430 1 37.832329966112994 1.7983912817212295 1.2857099500456046 0 0 0
3028 1 39.304460052921556 -0.6342877208264639 1.2936224498217586 0 0 0
447 1 41.088181762114345 1.813668365723272 0.8379590435728956 0 0 1
3232 1 45.31607771112336 1.9701531421319194 1.6157970645195041 0 0 0
1568 1 48.93947297484299 0.6663648149416956 1.7060361359242382 0 0 0
1172 1 49.34712543470935 2.3156814184352106 50.683202028166434 0 0 0
2762 1 -0.07909286712529551 4.162016823094369 1.689609940735314 1 0 0
3445 1 7.660590437822629 4.484410229243584 50.60054637658847 0 0 0
1879 1 12.06725149476553 3.6300313855691613 50.797426257636545 0 0 -1
3391 1 15.980818084623202 2.595431762071351 1.4201065057503754 0 0 1
3437 1 18.669857663248692 3.144789840110792 0.7846588103942369 0 0 1
3320 1 25.12352772526804 3.03886251882244 1.2904794088933573 0 0 0
1096 1 27.788585269474478 3.4177888785234467 0.8522253948597491 0 0 0
1496 1 38.270654103470456 4.729578023406576 0.9338258383372291 0 0 0
3477 1 40.132698642534855 3.9208454365318097 -0.7352505420756033 0 0 0
2577 1 47.14023260235072 3.5936854658534267 0.5004501159786503 0 1 0
1808 1 1.7508432719993503 5.926358352390658 1.0469315617852943 1 0 0
566 1 7.678187693295634 4.707011203537512 1.5361599517942515 0 0 1
1486 1 8.15662937163033 7.363015517599903 0.7585749658252472 0 0 0
480 1 10.072122171961958 7.710341723292526 50.638101411548824 0 0 0
3597 1 12.614397698993649 5.227479781933073 1.5124204809776187 0 0 1
460 1 12.48326532285966 7.833326862308603 0.3056086846925046 0 0 0
1812 1 17.53149430407846 7.783651522521216 0.4327999913836389 0 0 1
4023 1 17.898765022329655 5.60053027904992 1.9748138621355387 0 0 0
1555 1 24.912799900553487 7.945558489501998 0.7501160351055505 0 0 0
2527 1 28.854613472839684 5.984235814710964 0.8616253746307094 0 0 0
3915 1 26.92922357658076 7.690665713758335 2.563040324380549 0 0 0
336 1 31.70191324343176 5.695844346374518 1.467533996597861 0 0 1
616 1 31.07089307289404 8.678522337349639 0.11540473259291617 0 0 1
2862 1 36.42743370086783 6.335136093233019 -0.03404967426527028 0 1 1
3336 1 42.01932970180714 6.430248740112066 -0.10997246024190732 0 0 1
2098 1 42.3722337887935 5.471316094293718 2.620976597274825 0 0 0
427 1 44.715917064513285 7.7919845240319905 -0.3038740549024138 0 0 1
970 1 49.32079295870057 8.555156345195636 -0.007470204724942642 0 0 1
43 1 48.369630128353464 7.710767429864875 2.307203292545817 0 0 0
3926 1 0.4352927343555739 8.291661268237387 0.030994359557930506 1 0 1
3375 1 1.5678632145887894 10.57816868240772 1.359963992814127 1 0 0
3683 1 6.065258514125978 9.127320716089791 -0.14459696453705184 0 0 0
3111 1 14.163418245563545 9.528131671838263 50.577662189061634 0 0 -1
2488 1 21.10407805375002 10.750450536340955 0.5300278133698872 0 0 0
2760 1 23.91352148814451 10.674794089809353 -0.16125492158882582 0 0 0
387 1 28.61589438847794 9.997005555010713 1.2197401197738453 0 0 0
1760 1 26.808893024220243 9.089688807704972 50.79776798666356 0 0 -1
316 1 33.389369310189586 9.851551237143772 0.7901108169815649 0 0 1
1754 1 37.23873049986965 10.655801539120372 50.74374333965095 0 0 0
3473 1 37.78425817414904 11.634152768493484 1.9781484214635325 0 0 0
164 1 40.192236890554135 10.318491354828467 1.8785516199471517 0 0 0
3144 1 40.509683730642436 8.95123300043871 -0.4639756889015903 0 0 0
2720 1 44.83480283957449 10.903342803180303 2.118125190664289 0 0 0
52 1 48.60177293345857 11.226344875851249 -0.712251156385669 -1 0 1
3774 1 1.8634001428065599 12.75604135556832 -0.33883833329792623 1 0 1
1130 1 7.089855671928288 13.28431321577005 0.5702032915522526 0 0 1
1082 1 6.199549777258725 11.582985566061554 50.40087410573423 0 0 0
4049 1 13.027977533123565 12.194063457774513 1.5114695929002906 0 0 0
3504 1 11.986801607580247 13.352127582218586 -0.6346029969720632 0 0 0
1235 1 15.532191051026327 11.457004621441406 0.29028475065023085 0 0 1
2961 1 20.845689347931597 13.776817528046436 0.5596054474587282 0 0 1
2010 1 24.799812092088604 13.24845012459755 0.5713162510389138 0 0 0
488 1 27.094400852847173 13.948017816234097 50.66781122384377 0 0 0
2192 1 29.28892138436056 12.18438229376525 -0.25984638917600333 0 0 1
2459 1 31.177992656001308 13.718439482068064 1.1219168658306249 0 0 0
2669 1 32.88650538811164 14.673193428081385 50.73834509800237 0 0 0
297 1 42.16961714345601 13.78010755541805 0.15722216443005232 0 0 0
308 1 42.32427896271529 12.098451419431282 2.318699589150808 0 0 0
2047 1 45.63176587767182 11.723475244233875 -0.5255969557143425 0 0 1
1141 1 48.77425003046488 12.741271238117612 1.7218688084095315 0 0 1
2021 1 0.2857122310703599 17.132493018615804 0.07109607417761599 0 0 0
975 1 2.370961739694592 14.599216107666642 1.5778270640502048 1 0 0
453 1 3.058312729123975 17.369421533800285 -0.14806044704112264 0 0 0
3717 1 5.210260463109046 15.522191120945937 1.2111920761070158 1 0 0
3660 1 9.403016895939217 14.30370256136983 -0.5810152252757057 0 0 1
891 1 14.457512622707918 16.508267955031435 0.640068757226163 0 0 0
2765 1 16.884184509996857 15.622298088096596 1.3861632734634122 0 0 1
2072 1 18.45327002663973 14.60586280182368 -0.7449877851958818 0 0 1
3322 1 22.981068022434872 14.722638385132207 -0.7430146316065007 0 0 0
2145 1 23.1801643183537 17.393364300824338 -0.1162744237945249 0 0 0
1348 1 28.000471507781832 16.369249099103538 0.21516954648943254 0 0 1
3387 1 35.68586920227876 15.221336100326088 0.3025723606655111 0 0 0
1532 1 40.684063421178855 15.730188350977098 1.1660793894488328 0 0 0
2453 1 44.67686435246937 14.223319544071604 -0.27137008450102174 0 0 1
3368 1 44.869223254133146 15.935235771072932 1.8735469977036372 0 0 1
3885 1 47.281495202675636 17.171013313414313 1.1992271325826893 0 0 1
2323 1 4.4098616661077195 19.307253862290146 1.1588291608982677 0 0 0
1111 1 6.619658469503217 17.516730402972946 -0.4112905096669042 0 0 1
810 1 9.543414060928557 16.837161873505064 0.1863570014365975 0 0 0
4173 1 15.388063927996747 19.320453714877395 0.24166299011985326 0 0 0
3214 1 18.921324611324252 17.71825572014143 1.0291403387514337 0 0 0
1367 1 21.505357675074244 18.41547259157116 2.020571244117269 0 0 0
594 1 25.70179026993853 17.783718003124193 0.8137671288759709 0 0 0
163 1 26.515894403018184 19.759229531197672 -0.5999270700227157 0 0 1
1418 1 29.253645649649904 20.389366821231206 -0.34166078252541215 0 0 1
3858 1 31.141899133343735 19.447561823385993 1.6988635185859917 0 0 0
2981 1 33.555111767725656 19.116179194705477 -0.045743691460704894 0 0 0
2440 1 35.72767099872912 17.83944527719422 0.9544873473957343 0 0 0
1556 1 37.6378427432574 19.252237338073886 -0.1047356828572269 0 0 0
508 1 42.56191494526683 17.57595307129272 1.8249142018586517 0 0 1
1726 1 43.14985630108233 19.56222382619648 -0.07296322168734115 0 0 0
4038 1 -0.7239774394536553 19.563887730623374 -0.5210417848209112 0 0 0
748 1 3.188125024235007 21.911421148980853 0.18942154044840043 0 0 1
2184 1 7.148306138098956 20.416735519158383 -0.15019002423939942 0 0 0
3185 1 5.350757965865774 22.15844572242047 49.84323019160918 0 0 -1
1723 1 12.525017288325392 20.052528191400963 0.8599158108825926 0 0 1
3506 1 18.619415152581375 22.187247551077988 1.593506648676997 0 0 0
3811 1 20.920367913381686 22.380225253358212 -0.2649312452892867 0 0 1
2977 1 23.127649423570915 22.37162792278148 1.4342179606573455 0 0 0
1725 1 25.67572653234986 22.315107677553403 0.5282451106162251 0 0 0
406 1 39.2804096221014 21.19568754542503 1.21273103531014 0 0 0
2334 1 41.60751019622407 21.742486029129378 -0.21042392506635232 0 0 0
2807 1 45.668834146325395 20.979106549878246 0.7070818759256943 0 0 1
2839 1 4.069985143344452 24.835590832627325 50.756098045024814 0 0 0
3935 1 7.840851000802916 25.28117814459385 0.10353527430575526 0 0 1
2308 1 10.73815248625218 25.811985922205622 -0.43634505910030863 0 0 1
2428 1 12.628257935022699 24.149897414226103 0.8896366882369144 0 0 1
1800 1 15.316887922780388 25.208775153135882 1.0043473532348866 0 0 0
2712 1 17.73497707724456 24.1804789193982 -0.2830834922738592 0 0 0
3071 1 21.868182088420113 26.00993685661663 0.7774869265193349 0 0 0
2610 1 31.944883002737498 24.15554597147386 0.1826043939700186 0 0 1
1474 1 29.976200131820256 25.932650538464884 -0.5009881073867896 0 0 1
252 1 34.57442607325248 25.73466555903292 0.1198455403685681 0 0 1
1401 1 38.26695268791829 25.156057005914853 50.770642464234975 0 0 -1
72 1 38.674441064976854 23.648288039991144 1.5648937657594924 0 0 0
3890 1 43.10592493961393 24.061288752889148 0.579707163029543 0 0 1
1404 1 45.570560418180186 23.776517176919143 1.7393398359792327 0 0 0
2790 1 47.654040475571875 24.952128912163897 0.11559646320089756 0 0 1
770 1 49.95257845470176 23.242583058943747 0.9622369554933399 -1 0 0
3790 1 0.29380782165180874 27.220343810072272 0.7068982650754752 1 0 0
1862 1 4.941628181710793 26.51605888395269 1.0212126104298 0 0 1
71 1 2.834499862860147 28.349368876495312 0.9039660840320907 0 0 0
472 1 7.569290067808938 28.180021496437263 -0.229650663080317 0 0 0
2027 1 10.980102688292634 28.476646880391694 -0.22086984737191384 0 0 1
1900 1 13.895937136199914 29.37500567602204 0.08844265693283526 0 0 0
2782 1 15.843200992388581 27.60111163562647 -0.7941280765287929 0 0 0
2629 1 18.363355757653743 28.815458827007035 -0.6498929393797872 0 0 0
1606 1 20.17380554094047 28.122574675518045 1.4156066159875773 0 0 1
1923 1 24.570986683306906 26.784734546919765 0.06474377757030869 0 0 0
2784 1 26.452382094998686 27.883533993552913 1.4073918496300308 0 0 0
3892 1 29.198094577528597 27.077036531590103 1.62105849859236 0 0 0
1799 1 33.06957422415706 29.874221919702016 0.6849462204937082 0 0 0
429 1 38.509085604056985 27.82077061670119 0.22636252808276436 0 0 0
865 1 41.03800162747105 28.094384014459546 1.6641529720257777 0 0 0
915 1 43.02331963199401 28.023233761588607 -0.3150791927453129 0 0 1
2291 1 45.385138849801926 29.288636879176565 0.426885617217315 -1 0 0
1924 1 47.41849573544173 27.65924079292206 -0.591397916491627 0 0 1
1383 1 49.789153859687744 28.7987420962365 0.07030425669788609 0 0 1
165 1 2.7628514461848024 30.590879580623323 -0.804981290013464 0 0 0
3925 1 6.7683238622284065 32.11559061961034 -0.049421124499896885 0 0 1
2316 1 7.198802606047854 30.150176940593422 1.751205695108918 0 0 1
3348 1 17.552654035782012 31.102078357656435 0.766919074660509 0 0 0
1508 1 15.096775396262492 31.311215144500267 50.24220950028256 0 0 0
3431 1 21.962028316984306 30.19996032678099 2.1437436098146088 0 0 0
189 1 23.3349697384097 30.73092785229255 -0.30023408453991896 0 0 1
3634 1 25.929761619074014 30.588899711747015 0.6072374559009743 0 0 0
4027 1 31.725581074863555 32.03051614405865 -0.7231811106974791 0 0 0
1424 1 35.31576513992284 30.436098177190505 2.2425367697558753 0 0 0
35 1 37.211270840168595 32.310299196062616 1.233271711543868 0 0 0
2943 1 44.8991734398679 31.975781584131802 0.8910152146398187 0 0 0
990 1 0.9030453719995728 35.085331320698785 -0.25361037849881596 1 0 1
3404 1 2.316853677431122 32.76255440977865 0.8985989532404535 0 0 0
1932 1 4.679251128844494 33.81551806371899 1.0437190728770296 0 0 0
3518 1 9.503117864285635 33.15506533289316 0.13292704275906697 0 0 1
337 1 14.047718154672525 33.4482510663605 1.818979963322119 0 0 0
2728 1 20.915949372908276 33.93516489315152 -0.10162746484177376 0 0 1
2740 1 25.657537921420683 35.10939336120613 1.0569089825671014 0 0 0
976 1 30.97688055094017 33.86904314418211 1.2907904408915631 0 0 0
30 1 35.04985156270739 33.968875666969005 0.44714159040029466 0 0 1
3295 1 33.3898460316475 34.42217757506983 2.5915273995967323 0 0 0
282 1 42.42567990728423 32.942417713488645 1.2283898102455337 0 0 1
3014 1 49.03174809520333 32.821251250418534 1.7584657573604634 0 0 0
3580 1 2.25328413633622 37.99895107224632 -0.28522550710847616 1 0 0
85 1 2.0109501717761904 38.543303609445445 2.3582493643056477 1 0 0
2626 1 6.951054786403299 37.08719169409723 0.3433199204031381 0 0 1
2672 1 9.558029583926158 35.78058692028973 0.519737888256921 0 0 1
3106 1 13.282005793216284 36.46335366564537 1.3052799592060746 0 0 1
673 1 16.82813344592588 36.77762534223087 1.4518713649056618 0 0 0
2194 1 19.310638622327403 37.86231285586313 2.220189050880673 0 0 0
1853 1 20.912550359383292 36.55825794383786 0.6334913491351792 0 0 0
2772 1 28.006249176883355 36.85107669968103 1.0046469659499602 0 0 0
3202 1 30.48246700541896 36.22759372692849 -0.11914165451331982 0 0 0
4016 1 32.427750885027244 38.08759925478419 0.4109898419812692 0 0 1
397 1 38.27439840489078 37.246260083974576 0.21159337535136302 0 0 0
121 1 42.44562243938258 35.69452487653491 1.0578608206622166 0 0 0
1806 1 44.88229995742257 35.98215314277651 -0.033626076717264475 -1 0 0
775 1 46.501386656371764 36.81228591295706 2.176212925918192 0 0 0
2658 1 48.84025909033248 37.928940067562046 1.1082895006505422 0 0 0
3239 1 6.4846267149210695 39.94453237070604 -0.07489268381066994 0 0 1
661 1 6.937248157662983 41.226752775583186 2.281461566622211 0 0 0
2952 1 10.832869370245747 41.62569630921724 2.2730985190348596 0 0 0
2254 1 13.423977168450865 40.938001046958036 0.9463465014854031 0 0 0
1013 1 14.799200067643563 38.7650532405202 2.045372748342647 0 0 0
3856 1 16.487317833986065 40.94383829469097 0.3800053592572441 0 0 1
174 1 19.324993354324672 40.62362091497099 1.527683565826249 0 0 0
1250 1 21.238907741013215 40.59566579467397 -0.5683738585487648 0 0 1
729 1 25.8579303363187 40.8756972172058 1.4505982696354356 0 0 0
3872 1 27.51790412265642 39.303074319583025 -0.1274134156505562 0 0 0
3918 1 32.15259983868025 40.70062904885792 0.7889503340497486 0 0 0
3741 1 38.022579271045 40.1031388226986 0.27673679784297156 0 0 0
3147 1 44.38249278363296 41.119825319129774 1.4574540985632884 0 0 0
3084 1 48.55197915145563 40.79264663943775 0.5309487498421481 0 0 0
1058 1 3.0368466722055465 42.69244992821596 0.36038787161306307 0 0 0
3862 1 5.065500796850816 44.57991521039468 0.33559039215367914 0 0 0
374 1 7.525448128733862 43.76558792430441 1.511141356361422 0 0 1
1041 1 10.073341673058115 43.669695940029435 0.14781814438208196 0 0 1
3004 1 12.530126151112203 44.87699371322443 1.4531453825399185 0 0 0
1402 1 14.413131511195365 43.452647583308384 0.1358774604385964 0 0 0
2282 1 16.47714338145797 43.378087936713506 2.2205085809926612 0 0 0
1613 1 23.30909098002441 44.117042838839986 1.8682055091374976 0 0 0
2575 1 23.52227926656936 41.863395131765394 0.2653873123580355 0 0 0
204 1 27.59965299411712 42.92407371902656 2.2722688380016547 0 0 0
2768 1 29.40026731856682 43.529205884589246 -0.1435787392268022 0 0 1
3771 1 34.30833168734433 42.01629619207461 -0.38639964179560216 0 0 0
2853 1 35.5794402175632 42.601026267870104 1.8335865318187632 0 0 0
1094 1 39.81419392439721 44.45145314984666 1.1774266242648643 0 0 0
2512 1 49.88657539207445 43.58378295301582 1.2471142959989692 0 0 0
3654 1 -0.5686313730730299 46.03233689103465 -0.340911593208479 1 0 1
746 1 -0.10644649202398815 46.92450286159367 2.3370985682434604 1 0 0
290 1 4.059727058927913 45.98970155412778 2.2808510509521756 0 -1 0
339 1 12.837712989079968 47.52977897462325 1.2515088813706807 0 0 0
1295 1 15.59976499350688 48.04801788000907 0.2506669518879121 0 0 0
978 1 17.207204236839384 46.11739379530597 1.3430946284590846 0 0 0
1338 1 19.412990624568298 46.112746241698204 -0.1816996725659068 0 0 0
3009 1 21.82942327584247 46.53720739727443 1.3017084813099977 0 0 0
844 1 25.319177915664387 46.58477638499157 -0.6669189838807676 0 0 0
2605 1 25.856399298535653 45.2297130446222 1.9124529525498888 0 0 1
3434 1 27.903605843354345 47.76684707626109 2.723038222509137 0 -1 0
2505 1 31.70799759687184 45.19405162371076 0.03161003474112789 0 0 1
2199 1 36.864979964931216 45.11563064393023 1.451985018328092 0 -1 1
2275 1 43.59011831627822 47.71547038758023 0.40995803877948456 0 0 1
923 1 44.924796979330445 45.91219281600339 1.9419469352150411 0 0 0
2965 1 47.64487929008592 44.956311249402 1.8181657861430724 0 0 0
2008 1 3.476171134577691 48.430424692998145 1.2623435854577645 0 0 0
3917 1 6.009923589835673 49.55192459891275 0.7538880034956845 0 0 1
3571 1 10.370489924374773 48.81408822102133 0.6933932407111694 0 0 0
1097 1 7.940522825898814 48.242170199130854 2.2236672579309626 0 0 1
2161 1 16.69944685297995 50.45069689907414 -0.05279572012918887 0 0 1
1551 1 22.644362580864474 -0.8052590275591953 0.31454812236148677 0 0 1
3729 1 28.624525465101083 48.51803796971054 0.18916291264362084 0 0 0
1996 1 31.686691353662596 50.63834707829987 1.3410050178378254 0 -1 1
401 1 35.41051920209947 49.153839304118016 -0.5878522730125904 0 -1 0
1829 1 36.36313562081186 49.94546853425219 1.9212798874710253 0 0 1
1718 1 47.81597998696961 49.86165658302911 1.8080723048084395 0 0 0
3100 1 2.5332666258911067 1.5615247015661473 3.785316792473826 1 1 0
2218 1 6.12101010688954 0.9762071166256783 3.801401747545526 0 0 0
4143 1 8.43730097927472 0.3799073885956745 5.268225169977118 0 0 0
524 1 10.243491663134861 2.6022797409328184 4.728474557203472 0 0 0
2217 1 12.892723957026432 1.7559577522328933 4.6284716195528635 0 0 0
1115 1 13.21668398147581 -0.2707742346863974 3.0898550512490317 0 0 1
2812 1 15.731837791721137 0.08523572686276759 2.2410129798958622 0 1 0
3262 1 17.418901106750223 -0.5131337805705118 4.577441723674386 0 1 0
822 1 23.40800170986008 -0.12663029016354976 3.6475846729633643 0 0 0
253 1 27.225439337057374 0.15506935516414388 3.1183939399605074 0 0 1
2500 1 35.902806684015545 0.8550320530742035 3.111547043834303 0 0 0
3752 1 35.61239579773253 0.9909698528263928 5.787251267675254 0 0 0
1702 1 40.643934020243776 0.8742742277901081 5.570305154698337 0 1 0
2191 1 43.29730904215195 1.426084336792857 4.890404905358657 0 0 0
1558 1 49.54590164431604 1.0911695860157258 4.590318753058664 0 0 0
2597 1 -0.02177184481991523 2.8266868822187408 4.529490808917786 1 0 1
1675 1 4.636715576096779 3.1587414454131104 4.910772768604517 0 0 0
1901 1 10.179110261234225 4.25283810174885 2.405760536286446 0 0 0
2753 1 14.25592329825278 3.8525472052508167 3.200608878418734 0 0 0
3520 1 19.85636379333456 2.466232297081239 3.1105503661117226 0 0 0
997 1 21.18410737138219 4.680184509917387 4.376924851403333 0 0 0
606 1 23.77703545531486 4.2607588623590775 3.854549844644991 0 0 0
4106 1 29.087650115190392 2.6419921978824896 3.035451358832981 0 0 0
1493 1 28.077314109815276 3.7174827636982615 5.473618137289032 0 1 0
2183 1 31.730867903834096 3.279832184049919 3.1355022075952816 0 0 1
270 1 32.26989893984915 3.622495581063429 5.877712194711386 0 0 0
3916 1 39.4120040413309 3.7258221786874497 5.102052494209805 0 0 0
105 1 42.78808069995893 2.960287333451939 2.5631939107839066 0 0 0
3854 1 47.42006284996757 4.259618056258045 5.175371224846658 0 0 0
1248 1 48.77580508195292 4.808109967329527 2.5322952350000096 0 0 0
3234 1 3.2562717999501274 6.7760340858902754 3.0667355312515534 1 0 0
3419 1 5.366192249156302 5.349720372665701 3.4932736247834644 0 0 0
1098 1 15.981823438474674 5.496803262265763 3.9238928885137083 0 0 0
1771 1 20.357733210695635 6.942076401360239 3.0106694991493166 0 0 0
3240 1 25.96842247840612 5.75596332077733 4.627027846960738 0 0 0
2392 1 33.32329018017538 7.0363790820214165 3.333423668602145 0 0 0
2573 1 35.25885658180272 8.178277485004116 1.8678557359385444 0 0 0
59 1 34.628757684919506 5.281371155990734 5.302311209545693 0 0 0
552 1 39.70514001919765 5.578863404756873 3.239225445242142 0 0 0
3501 1 39.580759877066946 8.295716912905057 4.074047672702105 0 0 0
2232 1 43.871519885757934 7.102408821117032 4.100297578257649 0 0 0
376 1 50.80468289305431 11.004149589672346 2.8236860285301706 -1 0 0
862 1 3.920646753637371 9.025294973040713 1.6654493424303198 0 0 0
3411 1 9.114694690626218 9.017307298704175 2.862516801748248 0 0 1
3870 1 12.052930237246715 9.620969859337245 2.313173540563984 0 0 1
438 1 17.026898887680282 9.900710633126547 1.9150192048842363 0 0 1
2176 1 14.617766371554923 9.833165053374563 3.636223367959123 0 0 0
2934 1 19.639132599226443 10.685677616498033 3.0741621813429707 0 0 0
668 1 20.06498403830465 8.661963932066948 5.105193626966539 0 0 0
3939 1 22.589671086191988 8.68702558728756 2.296855380417238 0 0 1
3832 1 23.61122283831523 10.597863229756081 4.1511247965577684 0 0 0
9 1 26.16804086051178 9.506770340740918 4.614460577998308 0 0 0
1580 1 37.04589279959202 9.588538367376978 3.8827024317187346 0 0 0
62 1 41.829131432353876 8.75444367000641 5.455082839410151 0 0 0
3493 1 45.719173990188516 8.29530794735798 2.2386049939478014 0 0 1
3934 1 49.302722711370755 9.37250100104257 4.369218780856432 0 0 0
2645 1 0.7711137938222634 12.183364853987142 4.52985893237537 0 0 0
343 1 5.11972347057917 10.480615716946451 3.6285085172867513 0 0 0
259 1 3.0951077804819005 12.752345680190132 3.3218965024310894 0 0 0
1730 1 7.665878738965558 11.35887296796703 2.7388904714557687 0 0 1
255 1 9.500505380144494 13.259646311880664 4.091457206308273 0 0 0
658 1 12.2813991134019 13.69446313961032 3.5995400252290164 0 0 0
3236 1 19.30885030143156 13.157080187901078 4.531136527193328 0 0 0
3052 1 21.16729275416301 14.36178597452917 3.17173307295932 0 0 0
2491 1 23.746051582662766 13.232365223716068 3.268666408051492 0 0 0
2690 1 28.624976218539366 11.37689231220668 3.786710709338304 0 0 0
2838 1 28.088869930991287 13.938761008585507 3.7314954672402054 0 0 0
1982 1 31.182369035210566 11.194519079021877 4.765794963214391 0 0 0
3130 1 32.68108955117842 11.987101507196456 2.4517687544477305 0 0 0
3821 1 34.535489203081006 13.246848584576405 4.2031616576720445 0 0 0
873 1 36.59588248970852 14.22755250471517 2.6690565486230087 0 0 1
1596 1 42.82162842149965 13.123233876133856 4.755181010332183 0 0 0
2623 1 46.641983984820854 12.25199640438321 3.1724450286567305 0 0 0
911 1 0.37601978982981654 16.19276141866024 2.9566748866819106 1 0 1
2209 1 1.6462929939869513 17.8527241734519 4.6798939200199285 0 0 0
714 1 6.076585282270937 16.12971368444729 3.6685725550457677 0 0 0
4052 1 8.566734186149716 15.603886447723617 4.414594554931494 0 0 0
3373 1 12.844486963249524 16.29117486246566 2.833864977467094 0 0 1
2156 1 16.966949582264174 14.299891828163226 3.956655038731279 0 0 0
3681 1 21.53006753207324 17.026400539214894 4.467271544500031 0 0 0
3119 1 25.529728569023224 14.559441509255262 4.746943246376278 0 0 0
1033 1 29.806014368872223 15.709090261054506 2.4582841979210213 0 0 0
2257 1 38.7475176787623 15.90565064576315 3.10534812032717 0 0 0
2164 1 40.374863275348716 14.622524053705487 5.08585113014401 0 0 0
1223 1 45.17582481326827 14.640047735666004 4.4204705244855775 0 0 0
1213 1 49.39280347851403 15.54644694888098 1.9366343066393412 -1 0 0
1039 1 4.40654979757951 18.381215795141525 3.873997233330387 0 0 0
3720 1 10.095801208651313 16.917949588105483 2.703896594864009 0 0 0
198 1 9.47483593703187 19.705877410907725 3.6736095725762468 0 0 0
3863 1 17.06290580486243 19.55294780072648 1.9335039737018302 0 0 0
307 1 16.361846177167486 19.091518331250505 4.677448273663642 0 0 0
527 1 23.13471794911183 20.53095227952727 3.4413946470544383 0 0 0
4007 1 25.64514569213743 19.32109314969559 3.1971747264648407 0 0 0
2432 1 31.123017638461103 17.650419566828006 3.8834962530003994 0 0 0
3104 1 33.506249962839156 17.22530259812441 5.1275519899021855 0 0 0
3582 1 35.28269128993364 18.779192473455993 3.5760383334082446 0 0 1
2910 1 37.89952894467906 18.38875161661378 4.404769587613062 0 0 0
325 1 39.797075423507216 20.287380763409438 3.7448288524552513 0 0 0
1685 1 42.06987348011348 18.915578821770794 4.300404270274426 0 0 0
2911 1 47.13021011086716 19.50779679708791 2.608282043667356 0 0 1
3533 1 0.6880927717908938 22.48295493757428 5.104869143649035 0 0 0
1275 1 3.0741927587752165 22.379951024361247 2.8976374393913487 0 0 0
3824 1 5.1532194534043425 20.939743652374464 3.9829515237122415 0 0 0
1989 1 7.760093044449492 21.3729435355514 2.4854011846285013 0 0 0
1135 1 11.804505868054893 20.714392309271222 3.4386855798820717 0 0 0
3947 1 18.702788782740424 23.427274138967665 4.122999986853176 0 0 0
1709 1 27.788684831657648 20.758152489957578 4.292717426444666 0 0 0
2082 1 28.03978760912336 22.509528265281048 2.225496985542336 0 0 0
2526 1 30.81433158686114 22.251084179186503 1.8954499591788352 0 0 1
4099 1 32.240908262803565 22.423933349910826 4.117449854272625 0 0 0
1983 1 34.84251121573919 21.553715349703886 4.167813876763793 0 0 0
2309 1 44.729245710933355 22.97596322994339 4.345294905029348 0 0 1
2107 1 49.53064792235689 20.80749455348709 2.0225319276589957 0 0 0
3479 1 50.15935401492 20.8029683560205 4.749755598588275 -1 0 0
69 1 0.17878320778364643 25.267751432137143 4.535672040156454 0 0 0
3035 1 4.164830199396733 25.127860650792563 3.3116190892924786 0 0 0
2918 1 8.931479532323545 25.385022429456253 4.864998547700477 0 0 0
3671 1 8.842248396393199 23.946454423605644 2.4322089078282176 0 0 0
167 1 11.445776163064982 23.50953106812241 3.2943001020586573 0 0 0
3492 1 16.561396089017954 25.47516342721899 3.5899716004595232 0 0 0
1544 1 23.058636020181734 24.556758519131648 2.8846494745023783 0 0 0
2647 1 20.933423439428417 24.508614266163132 4.734541840511529 0 0 0
3030 1 25.34855361242306 25.47259989507362 4.270248413758464 0 0 0
2063 1 27.57848738668656 24.74378693754171 3.5216585740011555 0 0 0
2803 1 35.246838913831866 26.344221093434737 2.593802382101671 0 0 0
585 1 36.324943034385704 23.882870959829457 3.510653940746904 0 0 0
2545 1 41.08784252520974 25.12378289899138 2.288586916654505 0 0 0
2049 1 42.215196547788366 24.14634575399785 4.6662961083035075 0 0 0
192 1 47.10946030936782 25.8478114896349 3.425499919070404 0 0 0
2375 1 49.9659185621415 25.708078249974818 2.4356914207093268 -1 0 0
3906 1 2.702959253869432 27.01812655160624 4.682370096021086 1 0 0
2588 1 2.8038852663448544 29.484055734667102 3.40839644705913 0 0 1
4070 1 10.006481623884243 29.720774265809762 2.3068853922345554 0 0 1
1767 1 18.55109339901645 27.686112587768857 3.4853211260223125 0 0 0
2848 1 25.946172386856034 28.237695153678224 4.098312587528183 0 0 0
3802 1 31.288633179271855 28.7340428927298 2.457986379149057 0 0 0
981 1 33.12611357175812 27.907460529923608 4.272612173507133 0 0 0
2002 1 37.12192539095071 28.211645889682707 2.3570682886816328 0 0 0
2814 1 38.472636766517184 28.94923818309062 4.575007295497038 0 0 0
945 1 43.726019615189735 29.200089072027474 4.6416126169524805 0 0 0
4021 1 46.01351156736621 28.55620054591599 3.0670678203345942 0 0 0
754 1 0.600488276555615 31.006104174349066 3.8596564292619355 0 0 0
1361 1 5.351281095361025 30.406019018568088 3.848104917801403 0 0 0
2938 1 10.184483752992387 32.54417388950133 2.711668127255099 0 0 0
4035 1 12.432914272940401 29.8832327941218 4.519818202848282 0 0 0
1591 1 14.420417134114743 30.735744881135915 2.574967928576506 0 0 0
51 1 16.855822710313344 29.91741367213261 3.9489178913944496 0 0 0
846 1 18.169224352993375 32.4808280763116 3.3940613342152437 0 0 0
1415 1 23.539179602847444 29.970882887606617 4.33987456670171 0 0 0
2686 1 24.624867155366605 32.438887428792235 4.644186312676636 0 0 0
3169 1 29.912368755389352 30.63521387835324 4.04444845833242 0 0 0
2829 1 34.336123726498315 30.41161701109992 4.854355367123632 0 0 0
2960 1 41.18591006640063 29.68959991035116 3.967069081417944 0 0 1
2557 1 40.75259269774523 32.39894004647182 3.5875182868002264 0 0 0
1199 1 48.10177093224918 30.116352138201115 4.497707479501924 -1 0 0
1067 1 46.58560286726862 32.39349350499764 3.0987624884344864 -1 0 1
2695 1 50.02437711879072 30.171321723559462 2.515236379167862 0 0 0
3653 1 -0.6130353961018224 34.71732854567268 2.457768488436973 1 0 0
1471 1 0.32141614711272726 33.65675285219654 4.679007656180486 0 0 0
3012 1 5.378620610828166 33.2148906303115 4.052765129423928 0 0 0
3274 1 8.3365378968228 33.644682761659006 4.457004712476451 0 0 0
728 1 12.135760191736242 34.30767941982947 3.7184021829449874 0 0 0
3603 1 16.394853139988882 34.822837808258804 3.2793944001807853 0 0 0
549 1 20.82473037131611 32.66203295106153 2.3475839095973856 0 0 0
2895 1 22.595906295141532 33.95751258845229 3.966121368456676 0 0 0
3509 1 26.19078218474521 32.605245364613495 2.3497794775135614 0 0 0
2929 1 29.003797646305443 33.10201096753154 2.931552239169335 0 0 0
3224 1 33.66717388286436 33.13098829511744 5.133697534669961 0 0 0
3623 1 38.33103756283366 34.0259544838384 3.2155757352018313 0 0 1
2110 1 36.847375769376505 33.0854707645193 5.382895276878626 0 0 0
4 1 43.89146753948908 35.57533651599585 5.246183509530429 -1 0 0
3282 1 42.46634943259955 33.28573464394521 5.520263676206037 0 0 0
3692 1 46.56171460984764 34.94410399251764 4.088789630436626 -1 0 0
2846 1 -0.6576992550196814 37.33688509796541 3.0535597371261174 0 0 0
1426 1 3.473155297305376 36.916325871820625 4.131392209738726 0 0 0
1565 1 5.6239430386428895 35.98978559437469 2.787040435606981 0 0 0
2684 1 8.065085627898148 36.50425973664826 4.0222812108259465 0 0 0
2685 1 10.510141279644827 36.5512276128748 2.9615867461656302 0 0 0
662 1 11.99344872879313 38.75279938008032 3.3719415669151553 0 0 1
3877 1 12.909503769301313 38.28111257720234 5.838211370516906 0 0 0
426 1 19.61934294115857 37.50294986860098 5.001324706554892 0 0 0
1694 1 23.230838972322108 36.25391118258751 2.397206019555199 0 0 0