
# Create simulation box of size 50 x 50 x 50 Angstrom
#
lattice	            sc 1
Lattice spacing in x,y,z = 1.0000000 1.0000000 1.0000000
region 	            all block 0 50 0 50 0 50 units box
create_box          1 all
Created orthogonal box = (0.0000000 0.0000000 0.0000000) to (50.000000 50.000000 50.000000)
  1 by 2 by 3 MPI processor grid

# fill box with 4169 randomly distributed atoms
#
create_atoms        1 random 4169 63782 all
Created 4169 atoms
  create_atoms CPU = 0.000 seconds
mass                1 18.15

# Define potential
#
pair_style          sw
pair_coeff          * * ML_mW.sw mW
Reading sw potential file ML_mW.sw with DATE: 2019-02-27

# Run minimization
#
minimize            1.0e-8 1.0e-8 10000 1000
WARNING: Using 'neigh_modify every 1 delay 0 check yes' setting during minimization (../min.cpp:187)
Neighbor list info ...
  update every 1 steps, delay 0 steps, check yes
  max neighbors/atom: 2000, page size: 100000
  master list distance cutoff = 6.0032907
  ghost atom cutoff = 6.0032907
  binsize = 3.0016454, bins = 17 17 17
  1 neighbor lists, perpetual/occasional/extra = 1 0 0
  (1) pair sw, perpetual
      attributes: full, newton on
      pair build: full/bin/atomonly
      stencil: full/bin/3d
      bin: standard
Per MPI rank memory allocation (min/avg/max) = 4.255 | 4.258 | 4.261 Mbytes
Step Temp E_pair E_mol TotEng Press 
       0            0    7783778.6            0    7783778.6    5891538.7 
     630            0   -45100.671            0   -45100.671   -33.645425 
Loop time of 1.1182 on 6 procs for 630 steps with 4169 atoms

99.0% CPU use with 6 MPI tasks x no OpenMP threads

Minimization stats:
  Stopping criterion = max force evaluations
  Energy initial, next-to-last, final = 
       7783778.6045464  -45100.6138394717  -45100.6714481628
  Force two-norm initial, final = 2.0191929e+08 1.9154294
  Force max component initial, final = 1.0948746e+08 0.55224559
  Final line search alpha, max atom move = 0.074060414 0.040899537
  Iterations, force evaluations = 630 1001

MPI task timing breakdown:
Section |  min time  |  avg time  |  max time  |%varavg| %total
---------------------------------------------------------------
Pair    | 0.86821    | 0.96812    | 1.0221     |   5.7 | 86.58
Neigh   | 0.023878   | 0.024481   | 0.025166   |   0.3 |  2.19
Comm    | 0.051176   | 0.10546    | 0.20632    |  17.5 |  9.43
Output  | 0          | 0          | 0          |   0.0 |  0.00
Modify  | 0          | 0          | 0          |   0.0 |  0.00
Other   |            | 0.02014    |            |       |  1.80

Nlocal:        694.833 ave         711 max         678 min
Histogram: 1 2 0 0 0 0 0 1 0 2
Nghost:        1484.33 ave        1523 max        1464 min
Histogram: 2 1 0 1 0 1 0 0 0 1
Neighs:        0.00000 ave           0 max           0 min
Histogram: 6 0 0 0 0 0 0 0 0 0
FullNghs:      19864.7 ave       20554 max       18883 min
Histogram: 1 0 0 2 0 0 0 0 1 2

Total # of neighbors = 119188
Ave neighs/atom = 28.589110
Neighbor list builds = 26
Dangerous builds = 0

# Add velocity/set timestep
#
velocity            all create ${TEMP} 120598 rot yes dist gaussian
velocity            all create 298 120598 rot yes dist gaussian
timestep            5.0

# Define output
#
compute	            1 all msd
thermo	            100
thermo_style        custom step temp press vol etotal ke pe c_1[4] density

# Neighbor lists
#
neigh_modify        delay 0 every 1 check yes

# Set fixes
#
fix                 1 all momentum 10 linear 1 1 1 rescale
fix                 2 all nve
fix                 3 all temp/csvr ${TEMP} ${TEMP} 500.0 928347
fix                 3 all temp/csvr 298 ${TEMP} 500.0 928347
fix                 3 all temp/csvr 298 298 500.0 928347
fix                 4 all press/berendsen iso ${PRES} ${PRES} 1000.0 modulus 20000
fix                 4 all press/berendsen iso -1000 ${PRES} 1000.0 modulus 20000
fix                 4 all press/berendsen iso -1000 -1000 1000.0 modulus 20000

# Run 0.5 ns equilibration
#
dump                1 all custom 1000 eq.${NAME}.dump id type x y z vx vy vz
dump                1 all custom 1000 eq.liquid_298K_1000atm_ML.dump id type x y z vx vy vz
run                 100000
Per MPI rank memory allocation (min/avg/max) = 3.506 | 3.508 | 3.511 Mbytes
Step Temp Press Volume TotEng KinEng PotEng c_1[4] Density 
     630          298    1320.2999       125000   -41398.315    3702.3569   -45100.671 2.1849767e-33    1.0051886 
     700     185.3979   -451.05544    126729.87   -40224.421    2303.3865   -42527.807   0.38426006   0.99146773 
     800    224.94576   -734.43694    127381.21   -39107.351    2794.7298    -41902.08   0.96331657   0.98639809 
     900    253.63463    -604.7394    127584.63   -38428.248    3151.1608   -41579.409    1.5954092   0.98482537 
    1000    262.81281   -707.55756    128074.39    -37941.11    3265.1907   -41206.301    2.4191719   0.98105933 
    1100    280.84778   -1072.8619     128580.1   -37573.763    3489.2574    -41063.02    3.2589606   0.97720081 
    1200    282.27403   -1062.5296    128688.17   -37518.759    3506.9771   -41025.736    4.1559965   0.97638019 
    1300    283.87599   -945.10183    128994.09   -37406.146    3526.8799   -40933.026    5.0270415   0.97406463 
    1400    281.91765   -1016.8521    128965.42   -37366.433    3502.5495   -40868.983    5.9577888   0.97428117 
    1500    285.70465   -833.86384    129066.14   -37231.908    3549.5992   -40781.507     7.046333   0.97352088 
    1600    289.68927   -1141.5594    129191.06   -37072.311    3599.1042   -40671.415    8.2699384   0.97257955 
    1700    289.92699   -1098.8587    129651.93   -37049.593    3602.0577   -40651.651    9.3420553   0.96912235 
    1800    293.92097   -1012.2953    129692.39   -37129.216    3651.6789   -40780.895    10.522668   0.96881997 
    1900    292.36287   -956.65633    129587.56   -37072.563    3632.3211   -40704.884    11.640238   0.96960372 
    2000    295.86037   -950.10639    129287.68   -36986.028    3675.7741   -40661.802      12.6737   0.97185269 
    2100     300.2786   -1018.7777    129427.91   -36894.474    3730.6662    -40625.14     13.85872    0.9707997 
    2200    298.65122   -983.97516    129569.89    -36930.89    3710.4476   -40641.338    14.799232   0.96973597 
    2300     298.1359   -1123.9453    129364.18   -36880.779    3704.0452   -40584.825    16.139833   0.97127799 
    2400    295.99382   -1014.8092    129358.16   -36886.295    3677.4321   -40563.727    17.353985   0.97132315 
    2500     298.6837   -1160.5452    129502.74    -36797.73    3710.8511   -40508.581    18.415626   0.97023878 
    2600    306.85097   -1112.3313    129257.49   -36699.182    3812.3214   -40511.504    19.499839   0.97207969 
    2700    304.00556   -1059.5072    129250.64   -36731.206      3776.97   -40508.176    20.940616   0.97213124 
    2800    301.87606   -922.21707    129205.41   -36720.026    3750.5131   -40470.539    22.107851   0.97247154 
    2900    298.21455   -1221.2574    129182.79   -36788.933    3705.0225   -40493.955    23.176116   0.97264176 
    3000    297.93686    -1055.107     129132.8   -36803.181    3701.5724   -40504.754    24.590224    0.9730183 
    3100    297.37461   -1140.1499    128968.98   -36755.713     3694.587     -40450.3     25.79295    0.9742543 
    3200    295.78624   -1091.5082    128917.79       -36805     3674.853   -40479.853    27.005653    0.9746411 
    3300    298.27585   -875.20176    129091.78   -36800.931     3705.784   -40506.715    28.420117   0.97332752 
    3400    296.59155   -978.56282    129189.89   -36825.638    3684.8582   -40510.496    29.827155   0.97258833 
    3500    291.80403   -924.08677    129345.85   -36842.965     3625.378   -40468.343     31.09988    0.9714156 
    3600     297.3071    -907.9621    129382.42   -36904.725    3693.7482   -40598.473    32.246083   0.97114107 
    3700    290.62565   -1200.6052    129466.91   -36979.849    3610.7378   -40590.586    33.303385   0.97050728 
    3800    300.62714   -1260.7824    129052.63   -36923.432    3734.9965   -40658.428    34.214142   0.97362275 
    3900    297.59165    -723.9803    128789.34   -36981.236    3697.2835    -40678.52    35.440846   0.97561322 
    4000    293.59755   -914.63512    129071.26   -36969.224    3647.6608   -40616.885    36.929972   0.97348223 
    4100    296.29519   -994.98054    129175.87   -36932.408    3681.1763   -40613.584    38.027662   0.97269387 
    4200    299.04108   -997.03492    129257.75   -36941.838    3715.2913   -40657.129    39.301302   0.97207774 
    4300    295.51021   -1110.2351    129176.65   -36945.603    3671.4236   -40617.027    40.533408   0.97268799 
    4400    296.96671   -825.26782    128977.17    -36908.84    3689.5192   -40598.359    41.841178   0.97419241 
    4500     296.5937   -763.34169    128972.66   -36899.525     3684.885    -40584.41    42.950276   0.97422646 
    4600    295.60452    -961.4405    129025.26   -36962.588    3672.5954   -40635.183    44.013024   0.97382928 
    4700    295.87771   -1151.3462    129208.72   -36841.072    3675.9895   -40517.061    45.581955   0.97244662 
    4800    294.60273   -1295.8692    128886.64   -36928.877    3660.1491   -40589.026    46.846973   0.97487668 
    4900    301.72028   -962.72465    128967.03   -36754.869    3748.5777   -40503.447    48.267577   0.97426901 
    5000    296.96433   -705.07144     129141.3   -36676.932    3689.4897   -40366.421    49.535556   0.97295425 
    5100    293.56651   -1128.9282    129652.73   -36722.612    3647.2751   -40369.887    50.752187   0.96911638 
    5200    294.57988   -966.57807    129395.86   -36789.379    3659.8652   -40449.244    51.754658   0.97104017 
    5300    293.75116   -840.47895    129346.65   -36762.008    3649.5692   -40411.577    52.626893   0.97140962 
    5400    296.83893   -840.07841    129031.63    -36824.31    3687.9317   -40512.242    53.667041   0.97378127 
    5500     298.1882   -789.71517    129362.27   -36838.535     3704.695    -40543.23    54.833209   0.97129232 
    5600    299.43768   -1126.5761    129266.92   -36854.768    3720.2186   -40574.986    55.938165   0.97200879 
    5700     293.2893   -983.76651    129122.17   -36849.098     3643.831   -40492.929    57.455046   0.97309839 
    5800    289.15064   -805.25256    129011.29   -36924.835    3592.4123   -40517.247    58.465285   0.97393475 
    5900    297.93755   -1241.6228    129016.56   -36982.264     3701.581   -40683.845    59.633445   0.97389498 
    6000     298.3219   -933.81245    129099.62    -36965.35    3706.3562   -40671.706    60.549057   0.97326838 
    6100    299.63113   -1112.6211    129181.49   -36894.131    3722.6221   -40616.753    61.616289    0.9726516 
    6200    293.15001   -926.68554    129130.44   -36987.306    3642.1005   -40629.406    62.854684   0.97303608 
    6300     297.8092   -1044.7607    128886.37   -36935.227    3699.9863   -40635.213    63.652205   0.97487873 
    6400    297.87298   -676.03903    128850.04   -36877.429    3700.7788   -40578.208    64.873951   0.97515363 
    6500    298.02116    -1113.548    129041.26   -36797.663    3702.6197   -40500.283    66.201363    0.9737086 
    6600    292.84489   -1178.4799     128809.2    -36910.45    3638.3097   -40548.759    67.384767   0.97546278 
    6700    296.99402   -907.15619    128747.61   -37017.494    3689.8586   -40707.353    68.240763   0.97592938 
    6800      294.058   -726.42133    129182.89   -36896.447    3653.3814   -40549.828    69.281039   0.97264102 
    6900    300.75463    -1109.869    129169.45   -36770.713    3736.5804   -40507.294    70.185766   0.97274225 
    7000    306.33341   -1117.0228    129223.34   -36768.222    3805.8913   -40574.114    71.322474   0.97233659 
    7100    296.85373   -822.60717    129475.83   -36792.142    3688.1156   -40480.258    73.024624   0.97044046 
    7200    293.44386    -948.4948    129346.97   -36853.024    3645.7513   -40498.775    74.039085   0.97140721 
    7300    290.17614   -1082.1281    129304.43   -36914.262    3605.1531   -40519.415    75.008602   0.97172678 
    7400    301.10974   -917.69928     129183.7   -36984.656    3740.9923   -40725.649    75.945359   0.97263492 
    7500    296.20538   -901.92291    129408.96   -36931.269    3680.0604   -40611.329    77.101047   0.97094185 
    7600    292.86696   -1086.7939    129346.31   -37043.466    3638.5838    -40682.05    77.980357   0.97141218 
    7700    296.96595   -1022.1343    129223.88   -36928.812    3689.5099   -40618.322    78.988453   0.97233251 
    7800    297.02591   -1052.4528    129223.34   -36903.172    3690.2547   -40593.427    80.229219   0.97233658 
    7900    291.69596   -1046.4553    128933.37   -36989.891    3624.0354   -40613.927    81.093372   0.97452337 
    8000    298.54627   -829.12328    129212.69   -36936.606    3709.1437    -40645.75    82.159146   0.97241674 
    8100     291.5299   -911.54142    128922.32   -37053.857    3621.9723    -40675.83    82.856934   0.97460689 
    8200      295.804   -1158.2157    128790.83   -37078.856    3675.0737    -40753.93    83.893361   0.97560193 
    8300    289.96994   -856.58834    129044.71   -37027.601    3602.5912   -40630.192    85.188063   0.97368256 
    8400    301.57336   -1178.7521    129151.69   -36939.197    3746.7523   -40685.949    86.100225   0.97287599 
    8500    303.97192   -1039.8314    129421.66   -36832.523    3776.5521   -40609.075    87.238831   0.97084659 
    8600    299.91355   -1045.7229    129540.54   -36859.652    3726.1309   -40585.783    88.486459   0.96995568 
    8700    300.20972   -828.94439    129154.79   -36859.849    3729.8104   -40589.659    89.013617   0.97285267 
    8800    298.83612   -1029.4872    128781.26   -36908.311    3712.7449   -40621.056    90.387752   0.97567437 
    8900    289.45453   -820.59609    128848.35   -37021.286    3596.1878   -40617.474    91.738161   0.97516636 
    9000    292.97486   -1010.3086       129254   -36918.058    3639.9245   -40557.983    92.947908    0.9721059 
    9100    293.91084    -1062.266    129337.41   -36995.828    3651.5531   -40647.381    94.266083   0.97147898 
    9200    297.58052    -1178.156     129097.5   -36902.386    3697.1452   -40599.531    95.451313   0.97328435 
    9300    300.20015   -1019.0241    129201.54   -36988.547    3729.6915   -40718.239    96.630245   0.97250063 
    9400    299.18975   -710.33369    129005.09   -36965.595    3717.1383   -40682.734    97.480467   0.97398159 
    9500    300.79576   -955.31341     129175.2   -36990.908    3737.0914       -40728    98.070667   0.97269897 
    9600    300.80183   -990.38986    129302.41   -36960.848    3737.1668   -40698.015    99.075213   0.97174195 
    9700    297.11813   -871.31514    129538.24   -36837.573    3691.4005   -40528.973    100.20964   0.96997291 
    9800    296.48942   -1092.2138    129326.32   -36930.155    3683.5894   -40613.745    101.18999    0.9715623 
    9900     286.0269   -1059.8309    128970.04   -37017.206    3553.6029   -40570.809    102.01014   0.97424628 
   10000    293.00229   -768.86591    128607.39   -37023.712    3640.2652   -40663.977    102.46864   0.97699344 
   10100     293.2659   -930.42854    128667.08   -36970.146    3643.5404   -40613.687    103.52882   0.97654025 
   10200    286.29901   -982.19385    128718.18   -37017.314    3556.9835   -40574.297    104.74802   0.97615256 
   10300    295.18215   -1242.5145    128947.99   -36998.585    3667.3479   -40665.933    106.24782   0.97441288 
   10400     300.0048   -965.68896    128653.19   -36924.967    3727.2645   -40652.232    107.15258   0.97664566 
   10500    299.14354   -1228.2868    128359.46    -36931.21    3716.5642   -40647.774    108.05968   0.97888055 
   10600    297.88062   -1163.5524    128642.48   -36812.758    3700.8737   -40513.632    109.34646   0.97672694 
   10700    299.58375    -673.3335    128885.28   -36808.899    3722.0334   -40530.932    111.02874   0.97488694 
   10800    299.89681   -1136.0126     129119.4   -36784.187    3725.9228   -40510.109    112.05693   0.97311931 
   10900    302.59516   -809.69854    129493.64   -36831.753    3759.4472   -40591.201    113.64315   0.97030694 
   11000     302.4379   -1136.0954    129573.09   -36841.359    3757.4934   -40598.852     115.3136     0.969712 
   11100    296.16432    -1266.303     129521.1   -36862.912    3679.5504   -40542.462    116.51547   0.97010126 
   11200    296.38432   -1415.6223    129042.84   -36866.265    3682.2836   -40548.549    117.31069   0.97369661 
   11300    297.36825   -748.85732    129337.42    -36855.67    3694.5079   -40550.178     119.0315   0.97147897 
   11400    293.22398   -1084.6989    129518.22   -36851.318    3643.0195   -40494.337    119.92699   0.97012278 
   11500    300.73597   -1211.4857    129575.34   -36895.093    3736.3486   -40631.442    121.39093   0.96969514 
   11600    290.95678   -963.98576    129704.43   -36911.203    3614.8517   -40526.055    122.99829   0.96873009 
   11700    301.50997    -933.4298    129774.45   -36768.796    3745.9648   -40514.761    124.64743   0.96820736 
   11800     295.5041   -776.77183    130201.82   -36869.732    3671.3478    -40541.08    126.01088   0.96502936 
   11900    295.44883   -1268.3646    129876.02   -36891.743     3670.661   -40562.404    127.26271   0.96745019 
   12000    293.49065   -673.30295    129837.77   -36872.894    3646.3326   -40519.227    128.16366   0.96773518 
   12100    305.44491   -1105.7993     129810.5   -36820.294    3794.8526   -40615.146    130.00522   0.96793847 
   12200    294.37932   -882.48546    129435.94   -36818.932    3657.3735   -40476.306    130.49433   0.97073948 
   12300     294.3881   -829.62103     129623.2   -36824.491    3657.4825   -40481.973    131.84106   0.96933715 
   12400     300.7656   -1150.5077    129623.91    -36801.99    3736.7167   -40538.707    132.90011   0.96933184 
   12500    295.84209   -1008.6477    129588.43   -36939.895    3675.5469   -40615.442    133.79527   0.96959719 
   12600    300.25344   -924.55912    129525.46   -36836.063    3730.3537   -40566.417    135.03525   0.97006861 
   12700    299.16167   -942.97814    129550.08   -36792.402    3716.7895   -40509.191    136.06693   0.96988426 
   12800    302.77509   -904.91175    129787.27   -36777.062    3761.6826   -40538.744    137.26322   0.96811175 
   12900    298.23614   -1013.9777    129783.49   -36861.401    3705.2906   -40566.691    138.80618    0.9681399 
   13000    301.58851   -1102.7156    129672.38    -36785.29    3746.9406   -40532.231     139.5865   0.96896951 
   13100    302.79619    -1069.693     129097.2    -36806.33    3761.9448   -40568.274    140.61727   0.97328665 
   13200    305.27906   -1065.7931     129247.1   -36690.517    3792.7921   -40483.309     141.7558   0.97215783 
   13300    300.98578   -869.38775    129142.55   -36728.844    3739.4522   -40468.297    142.58068   0.97294489 
   13400    298.80995   -994.58031    128913.92   -36821.754    3712.4197   -40534.174    143.70426   0.97467036 
   13500    300.79174   -948.47556    129056.37   -36890.687    3737.0414   -40627.729    144.75474   0.97359453 
   13600    297.01581   -746.47082    129133.58   -36934.938    3690.1292   -40625.067    146.09041   0.97301246 
   13700    301.30858   -908.76464     129471.4   -36938.224    3743.4627   -40681.687    147.60617   0.97047363 
   13800    304.35379   -1328.1549    129574.28   -36831.126    3781.2964   -40612.423    148.77168    0.9697031 
   13900    300.10074   -1312.1604    129385.81   -36899.643    3728.4565   -40628.099    149.38824   0.97111561 
   14000    297.29494   -1135.3213     129761.1   -36863.389    3693.5972   -40556.986    150.74757   0.96830698 
   14100    296.56302   -1027.5414    129809.34   -36853.723    3684.5038   -40538.227    151.80473   0.96794716 
   14200    296.31548   -1160.2033    129633.11   -36914.691    3681.4283   -40596.119    152.72016   0.96926305 
   14300    296.77703   -943.93982    129407.02   -36996.332    3687.1627   -40683.495    153.70736   0.97095644 
   14400    290.50044   -934.19736    129162.73    -36957.14    3609.1822   -40566.322     155.0687   0.97279286 
   14500    297.26686   -985.32329    129035.02   -36896.448    3693.2483   -40589.696    156.08771   0.97375568 
   14600    297.85468   -1059.7218    128982.82   -36903.089    3700.5514    -40603.64    157.50309   0.97414976 
   14700    300.52418   -1095.1161    129420.86   -36961.749    3733.7173   -40695.467    159.31584   0.97085257 
   14800    293.52852   -1083.7862    129389.53   -37015.843    3646.8031   -40662.646    160.78371   0.97108771 
   14900    291.56264   -1066.7318    129032.09   -37094.547     3622.379   -40716.926    161.65696   0.97377776 
   15000    289.78658   -1007.0949    129079.22   -37081.687    3600.3131       -40682    162.80246   0.97342219 
   15100    287.90487   -1041.1362    129227.08   -37093.467    3576.9348   -40670.402    163.72937   0.97230843 
   15200    293.39456   -1048.9393    129262.21   -36985.167    3645.1388   -40630.305    164.93455   0.97204417 
   15300    298.55096   -1291.9778    129455.21    -36981.54    3709.2019   -40690.742    166.17037   0.97059503 
   15400    295.99759   -872.65134    129337.41   -36974.107    3677.4789   -40651.586    166.94433   0.97147905 
   15500    296.66499   -1140.7309    129461.35   -36954.494    3685.7707   -40640.265    168.18944   0.97054896 
   15600    301.97943   -885.23117    129639.96   -36859.283    3751.7974   -40611.081    169.50067   0.96921183 
   15700    290.28961   -1069.4505    129490.52   -36979.547    3606.5628    -40586.11     170.7225   0.97033034 
   15800    291.32786   -823.85424    129513.08    -36958.44    3619.4621   -40577.902    172.08596   0.97016132 
   15900    294.16216   -1242.2089     129540.3   -36999.096    3654.6754   -40653.771    173.85929   0.96995745 
   16000    299.65753   -973.37483    129585.48   -36925.386      3722.95   -40648.336    175.20387   0.96961925 
   16100    301.61953   -1343.3274    129408.12   -36853.577     3747.326   -40600.903    176.05993   0.97094821 
   16200    295.60196   -1091.2784    129396.43   -36931.148    3672.5636   -40603.712    177.65666   0.97103594 
   16300    297.11135     -889.474    129281.77   -36933.145    3691.3163   -40624.461    178.83551   0.97189709 
   16400    303.13203   -1131.9309    129307.82   -36804.696    3766.1173   -40570.813    179.90507   0.97170131 
   16500    295.81084   -957.26922    129121.03   -36814.977    3675.1587   -40490.136    181.47124   0.97310703 
   16600    303.65623   -1114.8779    129095.84   -36805.248      3772.63   -40577.878    182.00732   0.97329686 
   16700     299.7907   -982.47803     129223.6   -36823.192    3724.6045   -40547.796    182.82836   0.97233463 
   16800    307.69077   -932.62409    129402.44   -36810.928    3822.7551   -40633.683    183.86731   0.97099084 
   16900    300.86307   -1074.2732    129443.26   -36781.098    3737.9277   -40519.025    184.95632    0.9706846 
   17000    305.56104   -1036.6371     129213.5   -36813.005    3796.2953   -40609.301     185.9973   0.97241061 
   17100    298.13953   -921.15938    129453.14   -36697.582    3704.0904   -40401.673    187.62258   0.97061051 
   17200    298.81788   -950.24279    129514.61   -36684.167    3712.5182   -40396.685    188.99567   0.97014986 
   17300    299.83185   -828.33312    129387.23   -36769.022    3725.1158   -40494.138    190.23902   0.97110491 
   17400    298.54995   -1096.0677    129523.96   -36809.388    3709.1894   -40518.577    190.82866   0.97007981 
   17500    304.31423   -1004.1821    129317.27   -36818.986     3780.805   -40599.791    192.55098   0.97163033 
   17600    295.69719   -1215.0389    129063.91   -36805.954    3673.7467   -40479.701    193.37535    0.9735377 
   17700    292.06821   -1178.9324     129211.5   -36809.481    3628.6602   -40438.141    194.44433   0.97242564 
   17800    297.83624    -916.5644    129014.83   -36806.639    3700.3223   -40506.962    195.22383   0.97390802 
   17900    301.79834   -1079.4987    129020.02   -36755.945    3749.5475   -40505.493    196.09233   0.97386887 
   18000    305.82526   -1139.5055    128852.73   -36681.743    3799.5781   -40481.321    196.96078   0.97513323 
   18100    298.97075   -969.91324    129080.24   -36817.104    3714.4174   -40531.522    198.86482   0.97341455 
   18200    298.44809   -1155.6643    128951.19   -36815.507    3707.9239   -40523.431    199.79856   0.97438867 
   18300    307.77201   -888.42062    128893.22   -36696.953    3823.7645   -40520.718    200.69505   0.97482689 
   18400     296.0575   -1095.1838    128768.86   -36802.131    3678.2232   -40480.355    201.91396   0.97576838 
   18500    298.77658   -1194.5315    128975.73   -36750.052     3712.005   -40462.057     203.4974   0.97420331 
   18600    300.89634   -1048.4075     129095.4   -36821.727     3738.341   -40560.068    205.12875   0.97330019 
   18700    305.62553     -1122.19    128995.03   -36770.539    3797.0966   -40567.636    206.28183   0.97405749 
   18800    307.13939   -1275.2299    128994.51   -36736.003    3815.9048   -40551.908    207.70651   0.97406142 
   18900     302.8259   -917.72903    128889.47   -36785.808    3762.3139   -40548.122    209.26517   0.97485529 
   19000    301.93226   -762.50054    129182.86   -36757.838    3751.2113   -40509.049    210.50808   0.97264128 
   19100     296.0182   -956.43733    129358.93   -36834.222     3677.735   -40511.957    211.70823   0.97131738 
   19200    296.84775   -893.78119    129157.07   -36804.782    3688.0413   -40492.824    212.14494    0.9728355 
   19300     306.6438   -1128.6191    128997.63   -36733.434    3809.7475   -40543.181    212.79682   0.97403788 
   19400    302.47183   -956.85931    129145.48   -36749.497    3757.9149   -40507.412    214.35368    0.9729228 
   19500    304.55791   -1167.4421     128930.9   -36757.287    3783.8324   -40541.119    214.95035   0.97454199 
   19600    297.56372   -889.06061    128938.39   -36784.852    3696.9365   -40481.788    216.41329   0.97448542 
   19700    296.35296    -1026.144    128986.85   -36736.975    3681.8941   -40418.869    217.71662   0.97411932 
   19800    302.75273   -962.18631    129157.44   -36793.761    3761.4049   -40555.166    218.75087   0.97283272 
   19900    298.93339    -999.5381    129377.71   -36800.812    3713.9533   -40514.765    220.47667   0.97117639 
   20000    296.54863   -807.72248    129658.08   -36879.157     3684.325   -40563.482    222.03838   0.96907636 
   20100    300.49625    -974.9699    129369.07   -36808.441    3733.3703   -40541.811    222.98343   0.97124127 
   20200    299.25995   -1024.5674    129356.97   -36891.531    3718.0105   -40609.542    223.80307   0.97133213 
   20300    297.48597   -1084.7755    129363.78   -36943.241    3695.9706   -40639.211    224.25132   0.97128099 
   20400    302.89828   -1102.2988    129274.74    -36959.44    3763.2132   -40722.653    224.69703      0.97195 
   20500    296.35277   -1375.4607    129073.28   -36923.455    3681.8917   -40605.347    226.01017   0.97346701 
   20600     293.0776   -913.98345    128572.18   -36996.236    3641.2009   -40637.437    226.23716     0.977261 
   20700    297.42257    -1023.734    128720.96   -36910.506    3695.1829   -40605.689     227.5246   0.97613144 
   20800    299.99299   -1070.5264    128877.13    -36890.74    3727.1178   -40617.857    228.70177   0.97494861 
   20900    297.54369   -762.71768     129702.8   -36915.856    3696.6877   -40612.544    231.18464   0.96874224 
   21000    288.63711   -1040.3184    129867.39   -36990.117    3586.0321   -40576.149    232.62052   0.96751448 
   21100      290.182   -826.78853    129781.43   -37006.946     3605.226   -40612.172    233.40515   0.96815531 
   21200    293.16328   -1274.8864    129680.46    -36989.33    3642.2653   -40631.595    233.59499   0.96890913 
   21300    293.70833   -1104.0661    129633.69   -37017.845     3649.037   -40666.882    234.58383   0.96925867 
   21400      296.193   -726.86235    129744.07   -36970.175    3679.9067   -40650.081    235.66071   0.96843406 
   21500    294.47931   -1015.8626    129941.42   -36950.971    3658.6157   -40609.587    237.35575   0.96696328 
   21600    295.86251   -1050.8382    129654.47    -36872.75    3675.8007   -40548.551    238.33791   0.96910331 
   21700    295.13905   -924.70941    129847.85   -36843.417    3666.8124    -40510.23    239.80683   0.96766005 
   21800    298.69285   -1024.5119    129491.93   -36838.294    3710.9648   -40549.259    240.89568   0.97031976 
   21900    298.94391   -1009.8393    129541.76   -36863.063     3714.084   -40577.147     241.5805    0.9699465 
   22000    295.84351   -959.61555    129402.44   -36905.762    3675.5645   -40581.327    242.37123   0.97099078 
   22100    297.08258   -1148.7531    129185.07   -36792.655    3690.9588   -40483.614    243.44382   0.97262465 
   22200    300.57203   -580.00499    129205.74   -36830.956    3734.3118   -40565.268    243.67772   0.97246903 
   22300    295.27615   -1045.0455    129216.87   -36794.129    3668.5157   -40462.645    244.64862   0.97238525 
   22400    298.37463    -873.1419    129204.62   -36747.507    3707.0113   -40454.518    245.70874   0.97247743 
   22500    302.23407   -1112.7624       129335   -36767.404     3754.961   -40522.365    247.53873    0.9714971 
   22600    301.83145   -1192.3327    128925.37   -36720.556    3749.9588   -40470.515    248.04788   0.97458379 
   22700    300.32633   -1140.9143    128907.95   -36725.716    3731.2592   -40456.975    249.72597   0.97471554 
   22800    301.77254   -855.83007    128876.17   -36702.382     3749.227   -40451.609    250.32428   0.97495587 
   22900    298.23208   -1039.9998     128986.3   -36760.919    3705.2402   -40466.159    251.72131   0.97412344 
   23000    305.23796   -929.76744    129063.38   -36759.426    3792.2814   -40551.707    253.27357   0.97354167 
   23100    295.19839   -788.34229    129225.69   -36913.846    3667.5496   -40581.396    253.93439   0.97231893 
   23200    298.13862   -1141.0892    129122.08   -36858.476    3704.0791   -40562.555    255.09839   0.97309913 
   23300    299.60026    -945.7209    129246.34   -36912.209    3722.2386   -40634.448    256.56607   0.97216352 
   23400    297.82038   -1055.8171    129174.06   -36822.479    3700.1252   -40522.605    257.87587    0.9727075 
   23500    296.49775   -1146.7861    129184.47   -36883.162    3683.6928   -40566.855    259.38425   0.97262914 
   23600    296.47361   -1044.4308    129550.13   -36869.312     3683.393   -40552.705     261.3559   0.96988384 
   23700    292.98207    -1083.864    129364.65   -36906.031     3640.014   -40546.045    262.35745   0.97127447 
   23800    293.15345   -854.27636    129311.01   -36965.579    3642.1432   -40607.722    263.97806   0.97167734 
   23900    296.49027   -1032.3139    129629.16   -36976.151    3683.5999   -40659.751    265.52435   0.96929258 
   24000    299.11973   -1046.4861    129568.22   -36897.902    3716.2684   -40614.171     266.2211   0.96974841 
   24100    297.39491   -1060.6124    129386.25   -36942.769    3694.8392   -40637.608    267.18445   0.97111228 
   24200      294.143   -840.46879    129475.99   -37017.239    3654.4374   -40671.677     268.4057   0.97043922 
   24300    292.23052   -949.28175    129836.83   -36934.603    3630.6767   -40565.279    269.85079   0.96774221 
   24400    294.51776   -954.04456    129722.73   -36961.808    3659.0934   -40620.901    270.57797   0.96859337 
   24500    296.46355   -1226.2952    129335.42    -36892.92     3683.268   -40576.188    271.39657   0.97149398 
   24600    296.56354   -840.48835     129135.1   -36865.136    3684.5103   -40549.646    272.85729   0.97300101 
   24700    294.08293   -935.57119    129198.76    -36913.73    3653.6911   -40567.421    273.86669   0.97252155 
   24800    299.46945   -961.26451    129284.44   -36915.871    3720.6133   -40636.484     275.2414   0.97187701 
   24900    296.00439   -989.57572    129155.37   -36865.525    3677.5634   -40543.088    276.17099   0.97284825 
   25000    298.81888   -786.62955    129381.65   -36838.989    3712.5306    -40551.52    277.97079   0.97114683 
   25100    304.48489   -1191.2634    129310.61   -36829.021    3782.9252   -40611.946    279.34957   0.97168037 
   25200    295.09464   -983.25357    129420.75   -36869.419    3666.2606    -40535.68    280.72094   0.97085343 
   25300    299.87005   -1115.9724    129326.29   -36867.772    3725.5904   -40593.362    281.48813   0.97156253 
   25400    294.00974   -1035.8505    129352.86   -36848.982    3652.7818   -40501.764    282.28707   0.97136297 
   25500    301.81408   -959.30158    129231.83   -36806.574     3749.743   -40556.317    282.78398   0.97227272 
   25600    297.20987   -1131.9922    129545.67   -36912.149    3692.5402    -40604.69    283.25965   0.96991722 
   25700     295.4284   -1317.3729    129289.29   -36937.828    3670.4073   -40608.235     284.3238   0.97184059 
   25800    292.00047    -744.4664    129351.07   -36911.434    3627.8186   -40539.252    285.59144   0.97137641 
   25900    292.04458   -1204.6872    129179.05   -36852.421    3628.3666   -40480.788    286.62452   0.97266991 
   26000    304.11653   -893.79464    129264.69    -36733.99    3778.3487   -40512.339    287.63349   0.97202555 
   26100    295.78102   -1017.3279    129544.47   -36817.953    3674.7882   -40492.741    289.10951   0.96992622 
   26200    302.01139   -828.82139    129162.68   -36799.682    3752.1944   -40551.877    290.30505   0.97279323 
   26300    300.02488   -1017.4632     129321.6   -36763.444     3727.514   -40490.958    291.95051   0.97159782 
   26400    300.71505   -836.68935    129623.39   -36762.237    3736.0886   -40498.325    293.75985   0.96933568 
   26500    295.92207   -1219.5419    129625.12     -36836.8    3676.5406    -40513.34    294.98221   0.96932276 
   26600     295.5471   -943.26959    129561.89   -36912.026     3671.882   -40583.908    295.76568   0.96979581 
   26700    294.29019   -838.65144    129636.39   -36955.832    3656.2661   -40612.098    297.27163   0.96923852 
   26800    296.49627   -1116.4724    129697.02   -36836.847    3683.6745   -40520.521    297.65382   0.96878538 
   26900     293.3645    -964.2151     129565.9   -36826.663    3644.7653   -40471.428    299.17335   0.96976581 
   27000     296.8219   -933.80669    129277.77   -36885.943    3687.7201   -40573.663    299.45051   0.97192717 
   27100    289.30719   -950.78823     129126.5   -36877.904    3594.3572   -40472.261    300.36153   0.97306579 
   27200    297.44751   -1044.0763    129274.31   -36889.091    3695.4927   -40584.584    301.71291   0.97195323 
   27300     294.3602   -1100.3731    129179.59   -36927.077    3657.1359   -40584.213    303.06591   0.97266591 
   27400    300.60951   -1056.1354    128919.47    -36868.32    3734.7774   -40603.098    303.35529   0.97462845 
   27500    299.58005   -759.69019    129311.72   -36774.585    3721.9874   -40496.572    304.65259   0.97167199 
   27600    298.83995   -1005.0475    129623.39   -36818.534    3712.7925   -40531.327    306.46045   0.96933569 
   27700     300.3129   -1146.1639    129884.96   -36826.917    3731.0924    -40558.01     308.1764   0.96738363 
   27800    298.19521    -1039.729    129753.51   -36755.274    3704.7822   -40460.056    308.97983    0.9683636 
   27900    298.50841    -1135.892    129659.33   -36766.991    3708.6733   -40475.664    309.64761   0.96906701 
   28000    296.47068   -941.47762     129783.2   -36809.123    3683.3565    -40492.48    311.04092   0.96814211 
   28100    299.58808   -1111.6363    129663.97   -36802.078    3722.0872   -40524.165    312.01938   0.96903236 
   28200    298.82586   -980.87781    129683.57   -36873.021    3712.6173   -40585.639    313.35177   0.96888585 
   28300    299.33337   -1023.0607    129461.69    -36874.24    3718.9226   -40593.163    314.54767   0.97054639 
   28400    297.22592   -1189.7467    129384.91    -36906.67    3692.7396    -40599.41    315.69753   0.97112239 
   28500    298.66883   -1380.3883    129174.35   -36956.177    3710.6664   -40666.844      316.362   0.97270535 
   28600      292.188   -747.40847    129170.62   -36894.786    3630.1485   -40524.935      317.124    0.9727334 
   28700    295.22144   -760.72396    129693.67   -36891.699     3667.836   -40559.535    318.48465   0.96881041 
   28800    291.84267   -1052.0353    129674.89    -36827.23    3625.8581   -40453.089    320.30088   0.96895073 
   28900    297.90392   -1057.3753    129518.68   -36772.454    3701.1631   -40473.617    321.29215   0.97011936 
   29000    291.12723   -790.15918    129623.62   -36861.716    3616.9694   -40478.685    322.22779   0.96933398 
   29100    297.10685   -894.36782    129444.68   -36799.263    3691.2604   -40490.524    323.06946   0.97067395 
   29200    305.43426    -1217.391    129244.36   -36809.254    3794.7202   -40603.974    324.17541   0.97217846 
   29300    296.30664   -957.30826    128996.81     -36901.5    3681.3186   -40582.819    324.17853   0.97404409 
   29400    295.59289   -887.52065    129068.34   -36979.893    3672.4509   -40652.344    325.55869   0.97350427 
   29500     297.4209   -853.51329    129549.61   -37022.731    3695.1621   -40717.893    327.71906   0.96988773 
   29600    298.41308   -707.25561    129916.12   -36910.332    3707.4889   -40617.821    329.81794   0.96715156 
   29700     296.5909   -1079.2663    129887.14   -36964.243    3684.8502   -40649.093    331.46668   0.96736737 
   29800    301.75554   -978.19686    129620.64    -36946.77    3749.0157   -40695.786    332.41818    0.9693563 
   29900    295.55942   -825.04339    129543.66   -37014.615    3672.0351    -40686.65    334.07184   0.96993229 
   30000    300.21479   -1195.8951    129509.43   -36983.731    3729.8734   -40713.604    335.27543   0.97018865 
   30100    299.38224    -1195.085    129223.41   -36973.668    3719.5299   -40693.198    335.57006   0.97233609 
   30200    291.08103   -1197.0058    129207.59    -36970.99    3616.3954   -40587.386     336.5729   0.97245513 
   30300    299.23115   -782.53404    129173.34   -36925.884    3717.6527   -40643.536    337.75377   0.97271297 
   30400    295.18491   -757.77956    129355.98   -36902.465    3667.3822   -40569.847    339.26462   0.97133952 
   30500    297.94852   -1200.4517    129497.64   -36919.165    3701.7172   -40620.883    340.78129   0.97027701 
   30600    300.13352   -1127.5957    129521.77   -36895.103    3728.8637   -40623.966    342.15851   0.97009619 
   30700    299.37219   -843.82997    129395.01   -36915.817    3719.4049   -40635.222    342.42878   0.97104654 
   30800    293.60272   -1035.4587    128952.79   -36842.513    3647.7249   -40490.238    342.21237   0.97437663 
   30900    293.93441   -1113.5099    128729.86   -36988.243    3651.8459   -40640.088    342.74764   0.97606399 
   31000    294.22605   -1036.5511       128992   -37035.784    3655.4693   -40691.253    344.65975   0.97408038 
   31100    293.51386   -1094.5666    129190.02   -37025.848     3646.621   -40672.469    346.91685   0.97258739 
   31200    291.55041   -1034.2143    129152.73    -37030.09     3622.227   -40652.317    347.99247    0.9728682 
   31300    303.54203   -991.66867    128770.98   -36980.059    3771.2112    -40751.27    348.73172   0.97575231 
   31400    294.23105   -1039.2998    128914.19    -36930.38    3655.5314   -40585.911    350.35376   0.97466831 
   31500    294.62582   -921.30919     129072.6     -36963.9     3660.436   -40624.336    351.75882   0.97347217 
   31600    293.76615    -818.9838    129165.96   -36891.018    3649.7554   -40540.773    351.99477   0.97276851 
   31700    298.41384   -999.05184     129067.9   -36924.893    3707.4985   -40632.392    352.13953   0.97350762 
   31800    304.07901   -966.33411    129183.23   -36861.539    3777.8826   -40639.421    353.42865   0.97263844 
   31900     294.5623   -793.05802    129123.98   -36813.411    3659.6468   -40473.058    354.49858   0.97308478 
   32000    300.32407   -1059.8122       129481   -36801.863    3731.2312   -40533.094    356.38089   0.97040168 
   32100    295.54453   -1088.2829    129109.75   -36809.564      3671.85   -40481.414    356.82232   0.97319205 
   32200    296.90326   -1125.8046    128889.87   -36800.039    3688.7309    -40488.77    358.06382   0.97485227 
   32300    301.62043   -676.34704    128762.24   -36745.833    3747.3371    -40493.17    359.79105    0.9758185 
   32400    297.81592   -1302.3566     128877.6   -36858.274    3700.0698   -40558.343    361.75367   0.97494503 
   32500    296.90724   -957.66121    128544.63   -36870.514    3688.7804   -40559.294    361.09802   0.97747045 
   32600    304.29691   -986.27426    128474.32   -36816.448    3780.5898   -40597.038    362.18461   0.97800543 
   32700    292.70019   -1043.2802    128419.52   -36903.777    3636.5119   -40540.289    362.76896   0.97842273 
   32800    293.67366    -1093.125    128212.22   -36959.316    3648.6063   -40607.922    363.00654   0.98000475 
   32900    296.57396     -693.926     128744.3    -36945.35    3684.6397    -40629.99    365.66949   0.97595452 
   33000    293.56745    -733.4635    128964.33   -36990.628    3647.2867   -40637.915    366.62633   0.97428937 
   33100    300.15429   -1171.2818    129148.99   -36890.543    3729.1218   -40619.665    368.20998   0.97289633 
   33200    298.37807   -1144.6775    129257.06   -36988.215    3707.0541   -40695.269    369.52868   0.97208293 
   33300    293.51729   -730.07721    129381.83   -36881.229    3646.6635   -40527.892     371.1418   0.97114548 
   33400    298.72078   -1038.3235    129246.09   -36985.688    3711.3118       -40697    372.43069   0.97216542 
   33500    303.28559   -1024.5361    129179.43   -36971.515    3768.0252    -40739.54     373.0085   0.97266707 
   33600    298.99304   -1083.2515    129212.09   -36947.513    3714.6945   -40662.208    374.45289   0.97242123 
   33700    295.94464   -893.26204    129258.12   -36927.284     3676.821   -40604.105    375.46697   0.97207497 
   33800    297.07501   -1052.1812    129111.99    -36941.12    3690.8648   -40631.985    377.08466   0.97317512 
   33900    297.54056    -1019.413    128984.78     -36973.7    3696.6488   -40670.349     377.9691   0.97413492 
   34000    293.88087   -1016.8548    129059.03   -36905.863    3651.1807   -40557.044    378.63686   0.97357448 
   34100    287.26586   -1054.4817    129082.64   -36912.865    3568.9958   -40481.861    380.50941    0.9733964 
   34200    297.22556   -1143.4191    129015.43   -36886.608    3692.7352   -40579.343    381.41216   0.97390348 
   34300    295.05905   -868.75977    128984.97   -36948.343    3665.8184   -40614.162    383.44171   0.97413349 
   34400    296.49912   -1032.0474    129080.86   -36820.151    3683.7099   -40503.861     385.4196   0.97340987 
   34500    297.66097   -1138.9459    129177.58   -36831.288    3698.1447   -40529.433    386.57072   0.97268105 
   34600    296.76185     -774.496    129074.96   -36820.558    3686.9741   -40507.532    387.26694    0.9734543 
   34700    294.21804   -909.48227    129032.24   -36930.615    3655.3697   -40585.985    387.62296   0.97377661 
   34800    295.41735    -1029.888    128995.71   -36920.198      3670.27   -40590.468    388.38505   0.97405243 
   34900    292.68683   -831.60536    129044.97   -36940.959    3636.3459   -40577.305    389.16275   0.97368056 
   35000    294.94938   -889.21743    128738.87   -37038.538    3664.4559   -40702.994    389.86368   0.97599569 
   35100    298.68959   -1066.2061    128782.74   -36961.345    3710.9244   -40672.269    391.11343   0.97566316 
   35200     289.4783   -999.66736    128905.23   -36955.176    3596.4831   -40551.659    393.45924   0.97473608 
   35300    291.48247   -980.21727    128724.86    -36936.01    3621.3829   -40557.393    393.96492    0.9761019 
   35400     294.4045   -1070.3257     128789.2    -36949.32    3657.6863   -40607.006    395.53803   0.97561423 
   35500    295.64325   -1029.0382    129122.41   -36811.739    3673.0765   -40484.816    396.31267    0.9730966 
   35600    296.12527    -1142.286    129005.46   -36839.955    3679.0652   -40519.021    397.37662    0.9739788 
   35700    299.73949   -788.77149    129117.71   -36787.749    3723.9683   -40511.717     397.9103   0.97313206 
   35800    299.06234   -900.29347    129255.47   -36889.326    3715.5553   -40604.882    399.40859   0.97209486 
   35900    302.71898   -1259.1768    129241.46   -36839.886    3760.9856   -40600.872    400.04914   0.97220027 
   36000     297.3217   -748.15471    129223.67   -36787.077    3693.9296   -40481.007     402.0156   0.97233408 
   36100    296.45999   -857.58345    129551.05    -36810.13    3683.2237   -40493.353    404.80521   0.96987694 
   36200    294.33305   -817.28058    129351.76   -36835.981    3656.7986    -40492.78    406.44341   0.97137127 
   36300    297.32449   -1203.5698    129434.64   -36920.532    3693.9643   -40614.497    407.64617   0.97074927 
   36400    300.25826   -880.74388    129674.11   -36847.188    3730.4135   -40577.601    409.49367   0.96895656 
   36500    299.53887   -1091.7078    129524.09   -36819.136    3721.4758   -40540.612    410.53904   0.97007884 
   36600     296.3514   -987.95147    129514.27   -36994.972    3681.8746   -40676.847    411.52329   0.97015237 
   36700    295.88518   -744.55272    129397.07   -36923.574    3676.0823   -40599.656    412.42036   0.97103113 
   36800    298.26007   -995.72894    129713.51   -36922.101    3705.5879   -40627.689    414.39055   0.96866224 
   36900    298.03727   -1184.8044    129488.47   -36943.125    3702.8199   -40645.945    415.63343   0.97034571 
   37000    298.65681   -964.38622    129559.84   -36870.994    3710.5171   -40581.511    417.11003   0.96981116 
   37100    298.86502   -1072.1436    129359.58    -36852.88    3713.1039   -40565.984    417.19132   0.97131249 
   37200      298.788   -1310.6502    129372.81    -36895.58     3712.147   -40607.727    418.79172   0.97121323 
   37300     300.4481   -1007.9113    129280.72   -36919.282     3732.772   -40652.054    419.70865   0.97190505 
   37400    292.87799   -1119.7376    129272.88   -36976.129    3638.7209    -40614.85    420.59526   0.97196398 
   37500    298.62922    -1149.359    129491.56   -36981.606    3710.1743    -40691.78    422.10833   0.97032255 
   37600    296.66912   -1061.5433    129306.39   -36945.171     3685.822   -40630.993    423.78155   0.97171204 
   37700    292.14505   -1128.8416    129319.33   -36953.067    3629.6148   -40582.682    423.92159   0.97161486 
   37800    291.65423   -1305.6296    129536.81    -37043.47    3623.5169   -40666.987    425.81334   0.96998362 
   37900    298.93995   -902.95599    129385.05   -36979.377    3714.0348   -40693.412    427.55772   0.97112128 
   38000    299.87127   -1062.6274    129471.14   -36965.756    3725.6055   -40691.361     429.0422    0.9704756 
   38100    292.98152    -1071.643    129056.93   -36910.224    3640.0072   -40550.232    428.80912   0.97359032 
   38200    293.97306   -938.14625    129157.01   -36912.239     3652.326   -40564.565    430.41921   0.97283595 
   38300    302.32311   -957.42181    129219.16   -36833.129    3756.0673   -40589.196    431.77575   0.97236803 
   38400    290.36893   -1018.7319    129264.26   -36908.145    3607.5483   -40515.693    433.59515   0.97202879 
   38500    294.33135   -782.64084    129624.54   -36914.487    3656.7775   -40571.265    436.08152   0.96932707 
   38600    298.29406    -825.3074    129567.62   -36899.595    3706.0102   -40605.606    437.12975   0.96975297 
   38700    301.00601   -1069.2507    129655.22   -36887.393    3739.7036   -40627.096    438.70347   0.96909775 
   38800     291.3585    -1046.691    129679.34   -36916.168    3619.8428   -40536.011    438.87728   0.96891745 
   38900    299.26222   -755.15288     129798.2   -36825.698    3718.0387   -40543.736    439.95945   0.96803022 
   39000    297.19062   -764.65639    129659.35   -36906.287    3692.3011   -40598.588     441.3483   0.96906686 
   39100    300.47993   -1040.0196    129449.01   -36882.308    3733.1676   -40615.476     442.3723   0.97064149 
   39200    293.60607    -962.9725     129711.7   -36924.933    3647.7666     -40572.7    444.52952   0.96867575 
   39300    300.35237   -1093.2277    129535.46   -36891.566    3731.5827   -40623.148    444.85345   0.96999367 
   39400    302.42698   -893.40228    129328.57    -36854.71    3757.3578   -40612.067    445.48525   0.97154544 
   39500    298.29807     -1039.02    129356.52    -36820.73    3706.0601    -40526.79    447.48279   0.97133547 
   39600    297.48965   -909.42568    129523.37   -36836.426    3696.0163   -40532.442     450.2663   0.97008422 
   39700    304.67375   -916.98813    129735.55   -36756.895    3785.2716   -40542.167    451.33847   0.96849767 
   39800    297.50661    -877.9853     129612.8   -36869.836     3696.227   -40566.063    452.24733    0.9694149 
   39900    292.00035    -896.8157    129454.27   -36944.817    3627.8171   -40572.634    452.72362   0.97060203 
   40000    296.52072   -1151.7817    129316.98     -36970.4    3683.9783   -40654.378    453.23038   0.97163248 
   40100    297.71939   -884.04655    129180.57   -36875.375    3698.8705   -40574.246     453.2457   0.97265854 
   40200     297.8045   -1121.9043    129077.12   -36881.071    3699.9279   -40580.999    454.42785   0.97343802 
   40300    294.29802    -1117.789    128979.35   -36864.343    3656.3634   -40520.706     456.1811   0.97417596 
   40400    302.85053   -1125.1654    128795.09   -36732.293    3762.6199   -40494.912     457.0752   0.97556965 
   40500    303.88041   -938.92958       128964   -36721.014    3775.4152   -40496.429    459.86432   0.97429186 
   40600    297.23893   -1023.7078    129091.88   -36783.327    3692.9014   -40476.229    460.58117   0.97332673 
   40700    293.40415   -978.09961     129177.1   -36829.111     3645.258   -40474.369    462.45602   0.97268465 
   40800    293.56445   -1125.7286    129191.26   -36869.365    3647.2495   -40516.615    463.73313   0.97257805 
   40900    298.28646   -1031.1615    128902.14   -36923.411    3705.9158   -40629.327    463.31583   0.97475948 
   41000    299.72271   -734.65349    129263.01     -36850.4    3723.7598    -40574.16    464.94793   0.97203814 
   41100    301.49546   -1125.5703    129342.38   -36832.883    3745.7845   -40578.667    466.19224   0.97144168 
   41200    307.54305   -1023.4766    129121.21   -36854.768    3820.9198   -40675.688    466.70047   0.97310563 
   41300    293.90854   -994.42341    128989.76   -37070.626    3651.5245    -40722.15    466.84666   0.97409732 
   41400    293.66964   -882.28111    128971.64   -37024.254    3648.5564    -40672.81    468.20333   0.97423421 
   41500    297.75564   -884.08224    129436.55   -37003.642    3699.3209   -40702.963    469.67237   0.97073496 
   41600    297.00331   -1188.8283    129211.21   -36960.719    3689.9739   -40650.693    470.63885   0.97242789 
   41700     290.9851   -1000.5841     129391.8   -36904.817    3615.2037    -40520.02    472.40912   0.97107066 
   41800    296.94172   -948.05477    129472.89   -36923.355    3689.2088   -40612.564    474.62313   0.97046246 
   41900     301.9002   -1108.0428     129391.5   -36928.002     3750.813   -40678.815    476.01143   0.97107292 
   42000    298.89492   -886.40279    129383.82   -36931.408    3713.4753   -40644.883    477.41352   0.97113055 
   42100    298.58625   -1112.9523    129602.44   -36921.415    3709.6404   -40631.056    478.75226   0.96949242 
   42200    304.76815   -1336.4273    129801.23   -36846.032    3786.4445   -40632.477     481.1014   0.96800765 
   42300    300.40761   -995.30024    129716.35   -36816.409    3732.2691   -40548.678    481.64755   0.96864102 
   42400    302.96197   -1079.6742    129915.74    -36850.63    3764.0044   -40614.635    483.59383   0.96715441 
   42500    300.84045    -1099.417    129421.35   -36856.527    3737.6467   -40594.174    484.56008   0.97084895 
   42600    299.01257   -1038.9993    129360.15   -36827.625     3714.937   -40542.562    486.09048   0.97130824 
   42700    296.73063    -1257.325    128806.11   -36826.236    3686.5861   -40512.822    486.56943   0.97548615 
   42800    295.95849    -783.8085    129059.57   -36759.841    3676.9931   -40436.834    487.82702   0.97357043 
   42900    293.85432   -1085.6712    129175.16   -36839.998    3650.8509   -40490.849    488.62214   0.97269926 
   43000    294.27794   -937.91571    129160.23     -36888.9    3656.1139   -40545.014    489.51903   0.97281167 
   43100    296.06433   -989.33731    129293.66   -36857.504     3678.308   -40535.812    491.76549   0.97180774 
   43200    301.60628    -1037.291    128714.75   -36830.692    3747.1614   -40577.853    491.25726   0.97617856 
   43300    299.07869   -807.43012    128598.28   -36858.954    3715.7586   -40574.713    491.50045   0.97706264 
   43400    296.50739   -1111.4626    128500.77   -36796.261    3683.8127   -40480.073    492.19568   0.97780407 
   43500    299.70223   -711.07579    128286.53   -36800.475    3723.5054   -40523.981    492.57438   0.97943706 
   43600    304.36997   -978.29448    128656.83   -36679.602    3781.4974   -40461.099    494.46081   0.97661803 
   43700    302.21361   -992.85513    128898.81   -36708.966    3754.7068   -40463.673    496.48906   0.97478465 
   43800    298.49663   -847.69849    129118.73   -36680.485     3708.527   -40389.012    497.83234   0.97312438 
   43900    301.50917   -1080.2508    129339.15    -36735.22    3745.9548   -40481.175     499.2436   0.97146598 
   44000    292.76186   -1007.2403    129062.24   -36801.824    3637.2781   -40439.102    499.85774   0.97355031 
   44100    299.44288   -726.60094    129049.37   -36838.611    3720.2833   -40558.894     501.0892   0.97364736 
   44200    301.12271   -1221.1683    129384.75   -36884.638    3741.1535   -40625.791    502.92529   0.97112357 
   44300    300.49458   -1201.8165    129277.29   -36907.911    3733.3495   -40641.261    504.15983   0.97193082 
   44400    300.24962   -1075.7074    129018.75   -36909.044    3730.3061    -40639.35    504.58133   0.97387844 
   44500    297.69981   -980.05088    129227.89   -36953.723    3698.6272    -40652.35    505.96268   0.97230233 
   44600    291.24677   -872.54502    129233.58   -37035.396    3618.4546    -40653.85    506.90566   0.97225951 
   44700     296.1716   -1125.8922    129225.54   -37010.413    3679.6408   -40690.053    507.38601   0.97232005 
   44800    296.09206    -1057.994     129289.1   -36948.526    3678.6525   -40627.179    509.05092     0.971842 
   44900    294.88251   -859.82483     129298.1   -36862.811    3663.6251   -40526.436    510.32701   0.97177438 
   45000    303.64126   -1095.0952    129299.77   -36854.604     3772.444   -40627.048    511.56782   0.97176185 
   45100     301.0362   -1085.5005     129187.4     -36777.6    3740.0787   -40517.679    512.55239   0.97260708 
   45200    293.08639   -902.22328    129461.45   -36837.281    3641.3101   -40478.591    515.39245   0.97054824 
   45300    294.26422   -842.10549    129573.96   -36826.676    3655.9435   -40482.619    518.41091   0.96970551 
   45400    299.48291   -982.61819    129484.16   -36824.846    3720.7806   -40545.627    519.14321   0.97037799 
   45500    291.60518   -1122.0892    129234.46   -36852.935    3622.9075   -40475.842     520.1543   0.97225288 
   45600    300.35495   -829.26788    129200.08   -36861.832    3731.6148   -40593.447    521.21705   0.97251159 
   45700    298.68854   -1049.2183     129284.6   -36847.936    3710.9112   -40558.847    523.21649   0.97187581 
   45800    298.19236    -902.4586     129360.3   -36799.794    3704.7467   -40504.541    524.52015   0.97130714 
   45900    299.77989    -1135.261    129409.83   -36694.687    3724.4702   -40419.157     525.7493   0.97093533 
   46000    296.66176   -1154.3066    129274.58   -36632.302    3685.7305   -40318.033    526.42625   0.97195117 
   46100    306.16254   -1032.3673    129156.08    -36556.76    3803.7684   -40360.528    526.93768   0.97284291 
   46200    302.58945   -1008.8296    129060.06   -36528.799    3759.3763   -40288.175    528.06467   0.97356674 
   46300    304.53126   -901.49174    129249.63   -36555.313    3783.5013   -40338.814    529.98522    0.9721388 
   46400    300.02516   -785.00835    129457.61   -36647.189    3727.5175   -40374.707    532.02768   0.97057703 
   46500    302.10753   -826.91242    129606.69   -36671.346    3753.3888   -40424.735    533.11298   0.96946063 
   46600    304.04014   -1097.1528    129370.63   -36680.629    3777.3997   -40458.028    533.56515   0.97122954 
   46700    294.54807   -996.27358    129076.55   -36775.574      3659.47   -40435.044    533.62661   0.97344236 
   46800     296.9943   -1064.3273    129100.08     -36835.9     3689.862   -40525.762    534.84701    0.9732649 
   46900    295.28063   -906.57688    128830.34   -36765.415    3668.5714   -40433.987    535.09743   0.97530271 
   47000     305.5824    -1113.397    129266.43   -36721.218    3796.5607   -40517.778     536.6869   0.97201244 
   47100    299.72261   -1063.8239    129214.05   -36720.198    3723.7586   -40443.957    537.76347   0.97240647 
   47200    298.16429   -959.55714    128964.16   -36808.698     3704.398   -40513.096    538.49778   0.97429072 
   47300    293.65854   -1193.3754    129053.27   -36829.366    3648.4185   -40477.784    539.80891   0.97361794 
   47400    302.20992   -1146.6378     128891.9   -36790.265    3754.6609   -40544.926    540.56794   0.97483689 
   47500     304.9637   -816.89461    128995.31   -36727.103    3788.8739   -40515.977    542.40535   0.97405544 
   47600    306.20507   -1066.0004    128623.93   -36685.908    3804.2968   -40490.205    543.17088   0.97686785 
   47700    307.15285   -800.32131    128397.06   -36719.196     3816.072   -40535.268    543.34848   0.97859393 
   47800    299.86373   -1069.4734    128530.22   -36752.936    3725.5119   -40478.448    545.94085   0.97758008 
   47900    298.61445   -1080.1067    128667.39   -36846.638    3709.9908   -40556.628    547.57358   0.97653785 
   48000    296.80004   -807.25278    128943.99   -36865.293    3687.4485   -40552.742    548.91646   0.97444311 
   48100    299.95392   -1306.2566    128747.07   -36823.476    3726.6324   -40550.108    549.42045   0.97593353 
   48200    299.80651   -949.68749    128930.84   -36879.229    3724.8009    -40604.03    551.66967   0.97454251 
   48300     295.3667   -1143.0916    129056.26   -36863.587    3669.6407   -40533.228    553.37582   0.97359536 
   48400    306.29791   -1043.4113    128930.27   -36781.198    3805.4502   -40586.648    554.73351    0.9745468 
   48500    299.83852   -851.68052    129155.61   -36881.106    3725.1986   -40606.305    556.21784   0.97284647 
   48600    295.16911    -1321.668    128800.71    -36892.94    3667.1859   -40560.126    556.68724    0.9755271 
   48700    297.26162   -992.41982    128733.02   -36832.012    3693.1832   -40525.195    557.94616   0.97604005 
   48800    294.38459   -1150.8397    128940.21   -36848.636    3657.4389   -40506.075    559.45768   0.97447162 
   48900    299.55047   -1088.9295    129038.96   -36813.785      3721.62   -40535.405    561.52189   0.97372593 
   49000     305.2564   -891.07448     129535.2   -36861.567    3792.5105   -40654.078    562.88155   0.96999567 
   49100    297.63928   -780.34327    129658.29   -36853.744    3697.8752   -40551.619    563.07524   0.96907479 
   49200    303.33851   -1074.2268    129739.49   -36891.737    3768.6825    -40660.42     564.0749   0.96846827 
   49300    297.25378   -1041.2177     129327.6   -36827.694    3693.0858    -40520.78    563.49073   0.97155272 
   49400    301.16351   -997.87317    129627.23   -36790.644    3741.6603   -40532.305    564.92783   0.96930696 
   49500    295.63047   -1026.8401    129745.98   -36818.513    3672.9178   -40491.431    565.32829   0.96841981 
   49600     295.9061   -1011.1201    129756.14   -36799.059    3676.3422   -40475.401    566.40182   0.96834403 
   49700    297.22231   -695.18221    129721.06   -36850.726    3692.6948   -40543.421    567.73544   0.96860584 
   49800    295.23774   -976.99394    129542.29   -36914.033    3668.0385   -40582.071    569.04985   0.96994259 
   49900    303.03173   -1167.4385    129219.65   -36775.827    3764.8712   -40540.698    568.74742   0.97236437 
   50000    295.02133   -987.03243    129063.14   -36795.317    3665.3499   -40460.667    569.25279   0.97354352 
   50100    296.84467   -1118.3207    128906.61   -36841.321     3688.003   -40529.325    571.68272   0.97472563 
   50200    301.59276   -1077.1603     128762.1   -36902.863    3746.9934   -40649.856    573.50118   0.97581962 
   50300    301.51024   -855.44869    128870.97   -36868.023    3745.9681   -40613.991    575.25331   0.97499519 
   50400     298.4127   -1280.5335       129145    -36888.41    3707.4842   -40595.894    576.22576   0.97292643 
   50500    298.22426   -898.95622    129056.07   -36943.859    3705.1431   -40649.002    576.68384   0.97359679 
   50600    295.36245   -894.37091     129329.9    -36956.51    3669.5879   -40626.098    578.15361   0.97153545 
   50700    301.29814   -1052.4393    129493.62   -36983.422    3743.3329   -40726.755    580.29748   0.97030714 
   50800    293.36104   -1146.5536    129760.88   -36976.674    3644.7223   -40621.397    582.52812   0.96830861 
   50900    302.51023   -1176.4983    129554.39   -36878.752     3758.392   -40637.144    582.69843   0.96985194 
   51000    297.55356   -993.46796    129729.22   -36908.911    3696.8103   -40605.722    584.04683   0.96854496 
   51100    290.84808   -1161.9002     129817.9   -36967.012    3613.5013   -40580.514    586.06065   0.96788331 
   51200    295.57693   -911.75514    129558.46    -36936.41    3672.2526   -40608.662    585.83377   0.96982148 
   51300    294.03771    -1074.227    129495.79   -37017.577    3653.1293   -40670.706    586.23472   0.97029083 
   51400    292.57447   -1045.0847    129318.34   -37018.697      3634.95   -40653.647    587.46499   0.97162231 
   51500    295.35188   -1102.3429     129308.9   -37033.691    3669.4566   -40703.147    588.59981   0.97169323 
   51600    294.96532   -933.32034    129160.98   -36925.145    3664.6539   -40589.799    588.83131   0.97280602 
   51700    293.83023   -1095.0684    128965.67   -36909.711    3650.5516   -40560.263    588.69072   0.97427927 
   51800    298.82429   -938.61978    128901.11   -36968.368    3712.5979   -40680.966    589.13884   0.97476722 
   51900    295.08229   -1062.8034    129053.01   -37005.834    3666.1072   -40671.941      590.527   0.97361991 
   52000    291.20182   -811.54856    129112.59    -37022.85    3617.8962   -40640.746    591.63964   0.97317063 
   52100    297.83115   -993.99528    129367.22   -36905.901     3700.259    -40606.16    593.43071   0.97125512 
   52200    288.11415   -929.68175    129430.13   -36947.089    3579.5349   -40526.624    593.68615   0.97078306 
   52300    294.30323   -862.53149    129640.63   -36915.641    3656.4281   -40572.069    594.64627   0.96920676 
   52400    292.34728    -1106.992     129478.6   -36855.451    3632.1274   -40487.579    595.32256    0.9704197 
   52500    297.46344   -1032.9707    129269.89   -36840.541    3695.6906   -40536.232    594.65289   0.97198643 
   52600    293.43232   -927.61165    129203.72   -36866.215    3645.6079   -40511.822    596.48717   0.97248419 
   52700    295.03125   -1348.3314    129045.78   -36905.903    3665.4731   -40571.376    596.99988   0.97367445 
   52800    297.34475   -950.48699    128883.72   -36874.917     3694.216   -40569.133    597.86769   0.97489879 
   52900    301.09574   -1006.8256    128544.01   -36877.736    3740.8184   -40618.554    598.56963   0.97747518 
   53000     294.7357   -1112.5804    128330.52   -36861.614    3661.8011   -40523.416    599.58942   0.97910133 
   53100    293.57651   -1020.9273    128534.24   -36906.662    3647.3993   -40554.062    602.07782   0.97754951 
   53200    294.22544   -646.29306     128959.1   -36873.253    3655.4617   -40528.715    604.54758   0.97432888 
   53300    298.47669   -938.73685    129550.05   -36834.261    3708.2793    -40542.54    607.08828   0.96988449 
   53400    295.69002   -932.70648    129374.32   -36935.729    3673.6576   -40609.386    609.34657   0.97120186 
   53500    296.29495   -920.18322    129530.02   -36953.484    3681.1732   -40634.657    610.00953   0.97003443 
   53600    294.10054   -1124.1355    129459.74   -36963.231    3653.9099   -40617.141    611.06245   0.97056101 
   53700    292.18675   -1073.9311    129502.48   -36993.327    3630.1329    -40623.46    612.50727   0.97024073 
   53800    298.28775   -875.63744    129938.22   -36821.052    3705.9319   -40526.984    615.18138   0.96698707 
   53900     286.2937   -1069.8271    129917.48    -36882.53    3556.9176   -40439.448    617.25434   0.96714141 
   54000    300.31951   -1081.2668    129696.19   -36855.388    3731.1745   -40586.562    617.56016   0.96879159 
   54100    299.68102   -1149.6511    129385.04   -36865.561    3723.2418   -40588.802    618.34567   0.97112141 
   54200    298.99206   -844.31007    129318.37   -36855.845    3714.6822   -40570.527    619.83867   0.97162202 
   54300    296.68452   -1177.8962    129167.78   -36796.092    3686.0133   -40482.105    619.87687   0.97275484 
   54400    291.98489   -853.92659    129028.27   -36829.734     3627.625   -40457.359    619.76025   0.97380659 
   54500    301.40723   -1134.3344    129130.75   -36797.217    3744.6883   -40541.905    622.05021   0.97303379 
   54600    305.77646   -1122.0013    129364.29   -36702.897    3798.9718   -40501.869    623.84338   0.97127718 
   54700    301.63415   -1171.5084    129274.14   -36739.894    3747.5076   -40487.402    624.58161   0.97195447 
   54800    296.59184   -1084.9095    128987.96   -36822.111    3684.8619   -40506.973    625.20654   0.97411091 
   54900    297.74331   -766.04481    128778.59   -36901.984    3699.1678   -40601.151    625.64912   0.97569467 
   55000    294.38745   -879.00995    129063.85   -36983.883    3657.4745   -40641.357    627.42718    0.9735381 
   55100       300.23   -1073.9964    129058.92   -36959.564    3730.0624   -40689.627    628.84582   0.97357534 
   55200    291.19203   -1044.4982    129204.96   -36954.319    3617.7745   -40572.094    630.37896   0.97247492 
   55300    300.42694   -1115.8395       129046   -36880.104    3732.5092   -40612.613     630.1133   0.97367276 
   55400    300.29961   -944.86384    129186.61   -36839.352    3730.9272   -40570.279    631.44325   0.97261305 
   55500    300.13361   -903.70934    129350.14   -36766.863    3728.8649   -40495.728    633.10295    0.9713834 
   55600    291.18452   -1064.5901    129719.41   -36837.668    3617.6812    -40455.35    634.71129   0.96861815 
   55700    299.36799   -1165.1517    129278.51   -36835.803    3719.3528   -40555.156    634.89825    0.9719216 
   55800    295.69498   -1078.2479    129194.99   -36860.757    3673.7193   -40534.476    635.35363   0.97254996 
   55900    295.74604   -1181.8708    129391.52   -36813.737    3674.3536   -40488.091    637.18256   0.97107276 
   56000    299.68793   -988.49819    129335.89   -36804.124    3723.3277   -40527.452    638.93279    0.9714904 
   56100    302.97472   -1000.0496    129076.58   -36762.784    3764.1629   -40526.946    638.94208    0.9734421 
   56200    303.56218   -795.46741    129105.47   -36787.954    3771.4615   -40559.415    640.25602    0.9732243 
   56300    298.13863   -1006.8108    129461.94   -36808.611    3704.0792    -40512.69    642.24994   0.97054458 
   56400    297.48886   -1020.9077    129419.78   -36771.299    3696.0065   -40467.305    643.63691   0.97086073 
   56500    294.19383   -954.00267    129305.45   -36861.015    3655.0689   -40516.084    643.70476   0.97171917 
   56600    287.94616   -724.87294    129175.92   -36886.325    3577.4478   -40463.773    644.93471   0.97269355 
   56700    295.29882   -837.05376    128901.95   -36925.525    3668.7974   -40594.322    645.09195   0.97476089 
   56800    301.09054   -1138.2678    128796.03   -36858.434    3740.7538   -40599.187    646.15232   0.97556251 
   56900    300.26601   -1066.6659    128841.77    -36845.32    3730.5098    -40575.83    647.96394   0.97521615 
   57000     300.1202   -909.17944    129326.75   -36782.182    3728.6983   -40510.881    649.84262   0.97155911 
   57100    296.57605   -837.75986     128989.5    -36862.02    3684.6657   -40546.685    649.36155   0.97409927 
   57200    300.68357   -906.40989    129149.68    -36918.61    3735.6976   -40654.307    651.02401   0.97289113 
   57300    293.77717   -1140.6779     129199.6   -36989.972    3649.8923   -40639.865    652.16752   0.97251527 
   57400    291.51621   -1115.7831    129371.01   -37019.369    3621.8021   -40641.171     653.9088   0.97122674 
   57500    291.00084   -730.63116    128980.22   -37056.824    3615.3992   -40672.224    653.53618   0.97416939 
   57600    293.07826   -973.31237    128899.29   -37028.223    3641.2091   -40669.432    655.55313   0.97478102 
   57700    294.39794   -1085.8737    128714.63   -37076.863    3657.6048   -40734.467    655.80341   0.97617948 
   57800    299.20275   -754.58726     128703.1    -37111.63    3717.2999    -40828.93    656.91451   0.97626692 
   57900    293.70297   -1053.5676    128478.83   -37102.285    3648.9705   -40751.255    656.98643   0.97797111 
   58000    296.00499   -1021.2279    128464.07   -37076.055    3677.5708   -40753.626    656.95504   0.97808343 
   58100    297.99319   -956.67676    128430.55   -36988.731    3702.2723   -40691.004    657.12452   0.97833869 
   58200    294.98726   -1221.1329    128702.46    -36896.65    3664.9266   -40561.576    659.39348   0.97627177 
   58300    300.22291   -800.59691    128814.94   -36781.351    3729.9743   -40511.326    661.04718   0.97541934 
   58400    299.52092   -1054.7898     128955.6   -36766.073    3721.2528   -40487.325     663.2968   0.97435536 
   58500     302.9627   -1162.8375    128615.41   -36804.357    3764.0135   -40568.371    663.68597   0.97693254 
   58600    298.93624   -997.77751    128877.29   -36732.956    3713.9887   -40446.945    666.04292   0.97494741 
   58700    300.36023   -1023.3395    128870.42   -36744.623    3731.6804   -40476.304    667.69094   0.97499936 
   58800    297.30947   -1006.3134    128910.41    -36814.55    3693.7777   -40508.328    669.08081    0.9746969 
   58900    293.12182   -1068.4058    129029.92   -36847.611    3641.7502   -40489.361    670.26304   0.97379413 
   59000    296.51615   -960.85266    128739.16   -36855.288    3683.9214   -40539.209    670.56647   0.97599347 
   59100    302.08997   -1140.3864    128631.96   -36876.536    3753.1707   -40629.707     671.1576   0.97680685 
   59200    296.07284   -805.23279    128904.88   -36882.142    3678.4138   -40560.556    672.81666   0.97473877 
   59300    297.65801   -683.97217    129097.33   -36892.191     3698.108   -40590.299    675.90698   0.97328564 
   59400    297.05384   -808.44698    129583.75   -36955.321    3690.6018   -40645.922    678.92494   0.96963226 
   59500    295.02862   -951.82308     129692.9    -36927.49    3665.4404   -40592.931    679.99138    0.9688162 
   59600    294.20159   -1437.9017    129244.03   -36926.207    3655.1654   -40581.373    680.72124   0.97218089 
   59700    292.03918   -1326.4868    129074.89   -36946.197    3628.2995   -40574.496     680.9354   0.97345486 
   59800    295.89361   -1079.8946    129120.85   -36960.925     3676.187   -40637.111     681.3777   0.97310837 
   59900    300.12417   -1007.9102    129063.15   -36921.934    3728.7475   -40650.682    681.59231   0.97354343 
   60000    297.82059   -1109.6994    129315.79   -36981.417    3700.1279   -40681.545    683.94677   0.97164144 
   60100    295.35381   -998.63241    129508.97   -36925.687    3669.4805   -40595.167    686.31279   0.97019209 
   60200    299.33201   -1057.9741    129411.44   -36909.059    3718.9057   -40627.965    687.27888   0.97092331 
   60300    301.49695   -874.97002    129487.94   -36854.772     3745.803   -40600.575    689.10939    0.9703497 
   60400    297.55287   -976.51469    129540.42   -36760.422    3696.8018   -40457.224    690.87596   0.96995654 
   60500    299.67941   -1227.7748    129512.82    -36799.77    3723.2219   -40522.991    692.43177   0.97016329 
   60600     298.3568   -1176.8543    129591.81   -36829.648    3706.7898   -40536.437    693.60881   0.96957188 
   60700    298.95443   -993.86497    129275.13    -36872.88    3714.2147   -40587.095    693.73776   0.97194701 
   60800     295.6212   -880.49281    129518.74    -36804.98    3672.8026   -40477.782    695.39139   0.97011895 
   60900    296.40127   -1151.8727    129526.55   -36769.339    3682.4942   -40451.834    695.85171   0.97006041 
   61000     295.4881   -614.04251    129551.87   -36851.921    3671.1489    -40523.07    696.06971   0.96987084 
   61100    299.49502   -954.92322    129712.56   -36894.987     3720.931   -40615.918    698.22341   0.96866937 
   61200     300.7859   -912.01521    129508.34   -36911.803    3736.9689   -40648.772    699.34499   0.97019681 
   61300    294.85406   -1174.7449     129435.3   -36927.032    3663.2716   -40590.304    699.48948   0.97074434 
   61400    290.44296   -867.13558    129512.75   -36947.738    3608.4681   -40556.206    700.70131   0.97016381 
   61500    297.42019   -1174.1636     129365.6   -36948.248    3695.1532   -40643.401    701.08339    0.9712673 
   61600      296.729   -1133.9087    129533.58    -36911.86    3686.5659   -40598.426    702.15337   0.97000779 
   61700    287.59001   -1241.1394    129420.78   -36994.611    3573.0229   -40567.634    703.09038   0.97085322 
   61800    292.11697   -1341.0907    129090.47   -37095.987     3629.266   -40725.253    702.67128   0.97333735 
   61900    292.48482   -1163.3875    128693.32   -37029.227    3633.8362   -40663.064     701.7679   0.97634115 
   62000    296.77401   -1064.4439    128474.29   -36993.213    3687.1252   -40680.338    702.61117   0.97800561 
   62100    294.88191   -721.03209    128631.62   -37018.174    3663.6177   -40681.791    703.60315    0.9768094 
   62200    299.30493    -1307.596     128961.1    -36934.57    3718.5693   -40653.139    705.74533   0.97431383 
   62300    292.48395   -874.56821    128667.72   -36968.453    3633.8254   -40602.279    705.71483   0.97653538 
   62400    298.05652   -1157.7453    128811.19   -36858.344     3703.059   -40561.403    707.18171   0.97544772 
   62500    297.66757   -923.82605    128522.62   -36871.963    3698.2267   -40570.189    707.74906   0.97763783 
   62600    300.50639   -1214.6554     128580.8   -36877.872    3733.4962   -40611.368    708.30182   0.97719549 
   62700    292.87393   -965.47611    128722.82   -36853.003    3638.6705   -40491.673    709.68139   0.97611738 
   62800    300.98574   -1004.7825    128705.17   -36860.865    3739.4518   -40600.317    711.95157   0.97625121 
   62900    296.87629   -709.72964    129086.97   -36766.305    3688.3958   -40454.701    714.69042   0.97336373 
   63000    301.21729   -1140.3259    129299.27   -36725.974    3742.3285   -40468.303    715.49574   0.97176556 
   63100    302.77739   -934.27458    129222.26   -36709.147    3761.7112   -40470.858    716.43734   0.97234472 
   63200    301.22011   -1056.7554     129446.7   -36760.681    3742.3635   -40503.044    718.41949   0.97065884 
   63300    296.72992   -784.58344    129298.85    -36813.03    3686.5773   -40499.607    718.54302   0.97176876 
   63400    302.09491   -1206.8027    129368.09   -36706.062    3753.2321   -40459.295    720.28524   0.97124862 
   63500    298.05703   -900.89304    129397.72   -36788.612    3703.0655   -40491.678    720.90532   0.97102622 
   63600    297.82085   -943.14926    129650.69   -36779.971     3700.131   -40480.102    722.64284   0.96913159 
   63700    290.70728   -950.86814    129358.32   -36823.442     3611.752   -40435.194    721.94284     0.971322 
   63800    296.44355   -954.52989     129492.1   -36984.142    3683.0195   -40667.162    723.44799   0.97031848 
   63900    291.77318    -846.8854    129971.53   -36956.339    3624.9947   -40581.333    726.83671   0.96673924 
   64000    294.54742   -1044.4657    129572.11   -36959.647    3659.4619   -40619.109    725.86011   0.96971934 
   64100    301.22834   -879.44978    129877.43   -36845.839    3742.4658   -40588.304    728.50735   0.96743966 
   64200    301.16341   -998.01204    129530.49   -36846.207    3741.6591   -40587.866    727.69126   0.97003093 
   64300    298.55487   -955.19259    129339.35   -36757.873    3709.2505   -40467.124     728.3882   0.97146447 
   64400    303.22817   -860.83684    129538.65   -36781.867    3767.3117   -40549.179    730.11711   0.96996981 
   64500    302.49695   -1215.1083    129588.01   -36777.459     3758.227   -40535.686    730.89213   0.96960033 
   64600     299.6662   -1131.0327    129360.59   -36821.925    3723.0577   -40544.983    730.22707   0.97130495 
   64700    296.61908   -901.99487     129587.6   -36853.807    3685.2003   -40539.007    732.30734   0.96960344 
   64800    296.68348   -989.75701    129573.19   -36857.741    3686.0004   -40543.741     733.5245   0.96971123 
   64900    300.90432   -898.75914    129635.12   -36796.802    3738.4402   -40535.242    735.97603   0.96924796 
   65000    295.47613   -1180.6209    129255.01   -36767.888    3671.0002   -40438.888    735.16821    0.9720983 
   65100    298.68669   -1047.0796    128974.62   -36785.225    3710.8882   -40496.114    735.67449   0.97421165 
   65200     298.5824   -982.71911    128871.83   -36789.925    3709.5926   -40499.517    736.65927   0.97498875 
   65300    303.32187   -1059.7213    128668.58   -36790.975    3768.4758   -40559.451     737.5715   0.97652883 
   65400    303.34723   -1101.5508    128699.52   -36728.825    3768.7909   -40497.616    738.45524    0.9762941 
   65500    296.25537   -1163.7103     128982.4   -36800.969    3680.6815    -40481.65    741.25018    0.9741529 
   65600    300.44272   -962.54899    128856.71   -36849.665    3732.7052    -40582.37    742.37867   0.97510315 
   65700    294.38441   -872.84347    129062.63    -36935.96    3657.4366   -40593.396    745.62551   0.97354736 
   65800    294.21063   -966.28092    128836.02   -36935.319    3655.2776   -40590.597    746.01529   0.97525972 
   65900    300.01685   -829.24174    128836.07   -36912.525    3727.4142   -40639.939     746.2289   0.97525931 
   66000    302.48397   -1114.5548     128752.6   -36774.054    3758.0657    -40532.12    747.16875   0.97589161 
   66100    301.88727   -788.35585    128900.86   -36702.776    3750.6524   -40453.428    749.93329   0.97476916 
   66200    301.60403   -900.32786    128939.37   -36635.637    3747.1334   -40382.771    751.09668   0.97447801 
   66300    296.23136   -564.96267    128854.98   -36693.673    3680.3832   -40374.056    751.97615   0.97511625 
   66400    294.94853   -916.11749    129003.35   -36733.898    3664.4453   -40398.343    753.63052    0.9739947 
   66500    303.33456   -1007.6877    128629.92   -36765.261    3768.6335   -40533.894    752.95864   0.97682234 
   66600    290.62877   -700.61949    128955.81   -36789.582    3610.7765   -40400.359    754.75948    0.9743538 
   66700    294.78603   -897.92654    128709.64   -36794.358    3662.4264   -40456.785    755.45999   0.97621731 
   66800    298.20855   -843.45686    129231.98   -36710.654    3704.9479   -40415.602    759.53557   0.97227155 
[...]
   84700    292.31147   -1108.8176     129160.6   -37037.298    3631.6825    -40668.98    955.79816   0.97280892 
   84800      298.946   -1053.0868    129449.59   -37009.089      3714.11   -40723.199    957.33733   0.97063714 
   84900    296.35581   -1301.0713    129127.82   -36988.837    3681.9294   -40670.767    956.67049   0.97305587 
   85000    295.53792   -924.84259    129155.49    -36902.15    3671.7679   -40573.918    958.26005   0.97284739 
   85100    299.26279    -987.1536    128856.28   -36895.495    3718.0458   -40613.541    959.64316    0.9751064 
   85200    297.70201   -965.82882    128757.94   -36888.306    3698.6546   -40586.961    959.50315   0.97585109 
   85300    293.53805   -756.58651    129003.63    -36922.35    3646.9215   -40569.271    961.67699   0.97399256 
   85400      295.274   -1051.4073    129219.72   -36899.679    3668.4889   -40568.168    962.70813    0.9723638 
   85500    301.95235   -1289.6994    129154.94   -36855.373    3751.4609   -40606.834    962.31457   0.97285156 
   85600    299.33594   -1110.0529    129071.74   -36832.894    3718.9546   -40551.848    963.42848   0.97347861 
   85700    293.58789   -1159.9903    129272.56   -36854.077    3647.5407   -40501.617     965.8478   0.97196638 
   85800     297.5934   -977.34408    129075.34   -36842.619    3697.3053   -40539.924    964.64569   0.97345146 
   85900    300.66053   -1169.6133     128991.5   -36718.641    3735.4113   -40454.053    965.97394   0.97408417 
   86000    295.20986   -838.70117    128904.94   -36767.962    3667.6921   -40435.654    967.08464   0.97473826 
   86100    298.68735   -1068.6371    129025.81   -36773.389    3710.8965   -40484.286     969.1353   0.97382516 
   86200    301.39201   -887.05076    129364.31   -36731.713    3744.4993   -40476.213    972.55218     0.971277 
   86300    296.37781   -1107.6539    128763.36   -36798.537    3682.2028    -40480.74    970.58367   0.97581005 
   86400    299.83204   -820.63489    128960.31    -36831.01    3725.1181   -40556.128    972.50419   0.97431977 
   86500    299.29085   -1019.8159    129075.64   -36785.261    3718.3944   -40503.655    974.66152    0.9734492 
   86600    303.31839   -882.59823    129227.24    -36727.13    3768.4326   -40495.563    976.87349   0.97230724 
   86700    301.66309   -1202.7337    129770.88   -36709.247    3747.8672   -40457.114    979.94695   0.96823398 
   86800     294.3007   -1105.8928    129591.89   -36805.004    3656.3966   -40461.401     979.4143   0.96957135 
   86900    299.15762   -877.93516    129607.72   -36772.792    3716.7391   -40489.532    979.86203   0.96945287 
   87000    296.30283   -1099.1252    129482.85   -36787.787    3681.2712   -40469.058    980.83271   0.97038778 
   87100    302.71946   -675.39161    129471.19   -36825.988    3760.9915   -40586.979    982.19596   0.97047518 
   87200     295.5681   -1202.4536    129407.67   -36840.397    3672.1428    -40512.54    982.12385   0.97095156 
   87300    298.60655   -745.88545    129297.81   -36835.825    3709.8927   -40545.718    982.96916   0.97177657 
   87400    301.28562   -1316.8692    129278.69   -36880.455    3743.1775   -40623.633    983.28644   0.97192028 
   87500    295.14581   -1110.1934    129229.61   -36871.947    3666.8963   -40538.843    984.44722   0.97228941 
   87600     294.6646   -877.69033    129041.94   -36874.558    3660.9178   -40535.475    984.32088   0.97370342 
   87700    299.85255   -981.51052    129333.74   -36880.062     3725.373   -40605.435    986.79587    0.9715066 
   87800    296.59026   -858.12162    129800.41   -36845.799    3684.8422   -40530.641    989.27679   0.96801375 
   87900    295.29212   -857.68695    129658.43    -36899.61    3668.7141   -40568.324    989.42993   0.96907374 
   88000     294.4523   -1057.6155    129612.35   -36913.342    3658.2802   -40571.622    989.08656   0.96941827 
   88100    303.72223     -1039.27    129150.99   -36868.886    3773.4499   -40642.336    986.90935    0.9728813 
   88200    300.68878   -963.32231    129022.47   -36851.825    3735.7622   -40587.588    986.33253   0.97385035 
   88300     304.8648    -977.5855    128939.56   -36945.864    3787.6453   -40733.509    986.89507   0.97447658 
   88400    296.45821    -1365.968    129213.06   -37037.931    3683.2016   -40721.133    988.79749    0.9724139 
   88500    294.16196   -919.23898    129029.25   -36954.705     3654.673   -40609.378    989.11576   0.97379917 
   88600    303.06491    -1318.714    129187.86   -36866.719    3765.2833   -40632.003    991.02879   0.97260362 
   88700    299.34985   -1275.9558    129150.07   -36823.918    3719.1275   -40543.046      992.722    0.9728882 
   88800    299.89026   -949.42439    128642.76   -36751.301    3725.8414   -40477.143     990.6028   0.97672487 
   88900    297.52233    -1311.896     128939.6   -36792.485    3696.4223   -40488.907    993.03188   0.97447624 
   89000    301.12022   -1138.7323    128697.49   -36760.054    3741.1225   -40501.176    992.90408   0.97630951 
   89100     295.1395   -897.64508    128776.24   -36881.799     3666.818   -40548.617    994.84456   0.97571247 
   89200    296.53414   -812.02155    128697.18    -36936.92     3684.145   -40621.065    996.08398   0.97631186 
   89300    297.16117    -974.9006    128854.25   -36944.568    3691.9352   -40636.504    998.19267   0.97512173 
   89400    292.16049   -1084.3827    129153.22   -36988.483    3629.8066    -40618.29     1000.378   0.97286448 
   89500      294.893    -1143.732    129065.56   -37022.419    3663.7555   -40686.175    1001.1951   0.97352523 
   89600    289.70368   -680.95906    129174.29   -37086.504    3599.2832   -40685.788    1002.7129   0.97270577 
   89700    287.99082   -1212.4139    129358.24   -37023.342    3578.0026   -40601.345     1005.348   0.97132257 
   89800    293.47062   -1136.4606    129374.08   -36972.832    3646.0837   -40618.916     1006.212   0.97120365 
   89900    291.92561   -1070.7858    129074.25   -37076.132    3626.8885    -40703.02    1005.4274   0.97345969 
   90000    292.51058   -757.72749    129526.45   -36946.239    3634.1561   -40580.395    1009.3437   0.97006113 
   90100     295.2693   -1205.0342    129623.97    -36939.75    3668.4306    -40608.18    1012.2586   0.96933133 
   90200    295.08436   -1155.1245    129485.58   -37017.478    3666.1329   -40683.611    1011.8259   0.97036735 
   90300    298.16147   -862.99926    129518.87   -37027.749     3704.363   -40732.112    1013.5243   0.97011794 
   90400    294.10574   -1076.1959    129454.67   -37033.056    3653.9745    -40687.03    1014.1449   0.97059902 
   90500    295.71567   -1327.7559    129367.78    -36959.04    3673.9763   -40633.016    1014.0757   0.97125095 
   90600    301.94649    -862.3923    129076.48   -36842.079    3751.3882   -40593.467    1012.8538   0.97344289 
   90700    297.41845   -955.72737    129078.66   -36829.727    3695.1317   -40524.859     1014.096   0.97342641 
   90800     298.2487   -987.13571    128820.73   -36868.284    3705.4468   -40573.731    1014.1073   0.97537544 
   90900    294.25693   -1037.5686    128990.08   -36951.276    3655.8529   -40607.129    1015.3197   0.97409493 
   91000    296.33541    -700.8259    128821.87   -36994.576     3681.676   -40676.252    1015.8719   0.97536686 
   91100    296.25192   -879.05236    129113.37   -36964.229    3680.6387   -40644.868    1019.3172   0.97316474 
   91200    295.49418   -729.08806    129325.64   -36910.397    3671.2245   -40581.621    1021.6632   0.97156745 
   91300    298.98927   -1168.7839    129542.13   -36777.872    3714.6476    -40492.52    1024.6512   0.96994373 
   91400    297.55365   -1234.3743    129079.98    -36787.75    3696.8114   -40484.562    1023.9991   0.97341652 
   91500    298.62476   -679.35863    128934.71   -36793.228    3710.1189   -40503.347    1023.1043   0.97451324 
   91600    298.07889   -883.48562     129469.3   -36828.203     3703.337    -40531.54    1026.9286   0.97048941 
   91700    297.52127   -897.63586    129560.18   -36931.067    3696.4091   -40627.476    1027.6517   0.96980865 
   91800     299.2238   -1145.3844    129603.77   -36889.065    3717.5614   -40606.626    1030.0426   0.96948245 
   91900     296.8286   -1054.9479     129508.9   -36916.517    3687.8033   -40604.321    1030.3127   0.97019265 
   92000    293.26725    -1006.169     129518.2   -36910.092    3643.5571   -40553.649    1031.0865   0.97012299 
   92100    290.71289   -1202.7693    129550.44   -36987.185    3611.8217   -40599.006    1031.5571    0.9698815 
   92200    294.22845    -759.5146    129604.52   -36895.745    3655.4991   -40551.244    1033.6692   0.96947684 
   92300    301.99469   -918.84682    129575.91   -36779.209    3751.9869   -40531.196    1034.7057   0.96969089 
   92400     296.4987   -1187.4058    129225.82   -36781.758    3683.7047   -40465.462    1034.7239   0.97231791 
   92500    294.32625   -978.64453    128981.88   -36818.605    3656.7141   -40475.319     1034.287   0.97415681 
   92600     301.3711   -977.26883    129142.52   -36791.243    3744.2395   -40535.483    1036.2588   0.97294509 
   92700    298.77124   -830.77134     129370.1   -36765.368    3711.9388   -40477.307     1039.504   0.97123357 
   92800    299.71543   -1042.4352    129473.36   -36786.815    3723.6694   -40510.484    1040.7924   0.97045892 
   92900     303.1494   -1013.6925    129467.33   -36718.386    3766.3331   -40484.719    1041.5338   0.97050417 
   93000    294.62473   -1041.9233    129260.86   -36783.503    3660.4224   -40443.925    1040.4757    0.9720543 
   93100    299.14822   -1055.2414     129509.3   -36705.952    3716.6224   -40422.574    1044.1078   0.97018963 
   93200    299.59602   -1067.6387    129467.18    -36765.82    3722.1858   -40488.006    1045.4938   0.97050526 
   93300    300.41034   -958.73411    129141.97   -36808.118     3732.303   -40540.421    1046.0094   0.97294921 
   93400    298.31837   -1172.2518    129027.64   -36836.024    3706.3122   -40542.336    1046.4281   0.97381136 
   93500    294.23205   -898.32684    129277.91    -36853.74    3655.5438   -40509.284     1049.762   0.97192614 
   93600     293.1469   -1222.8894    129392.54   -36927.509    3642.0619   -40569.571    1051.2625   0.97106511 
   93700    295.84199   -1145.4509    129219.98   -36888.441    3675.5457   -40563.987    1051.1448   0.97236183 
   93800    297.49578   -1071.0097    129233.81   -36826.234    3696.0924   -40522.327    1051.0617   0.97225777 
   93900    304.49862   -850.95673     129342.4   -36832.627    3783.0959   -40615.723    1050.9313   0.97144155 
   94000    298.46916    -954.8839    128972.98   -36877.195    3708.1857   -40585.381    1049.7159   0.97422403 
   94100    299.34934   -1129.5895    128768.99   -36882.694    3719.1211   -40601.815    1049.6129    0.9757674 
   94200    297.77502   -1098.8147    128500.61   -36853.561    3699.5617   -40553.123    1049.8256   0.97780528 
   94300    299.34457   -962.31885    128323.16   -36766.229    3719.0619    -40485.29    1049.2539   0.97915744 
   94400    301.54708   -746.70115    128803.55   -36755.163    3746.4258   -40501.589    1052.9373   0.97550557 
   94500    308.81911   -1295.1816    128982.34   -36704.992    3836.7736   -40541.765    1055.8671   0.97415338 
   94600    298.10494   -869.11038    128956.92    -36784.96    3703.6606   -40488.621    1055.9368   0.97434536 
   94700    298.01734   -1039.6972    128728.45   -36844.653    3702.5722   -40547.225    1055.3201   0.97607466 
   94800    294.48683   -1043.6816    128741.17   -36823.806    3658.7092   -40482.515    1054.9279   0.97597825 
   94900    297.83583   -737.09749    128794.46   -36785.859    3700.3173   -40486.176    1057.0453   0.97557439 
   95000    298.03046   -1199.8807    128619.19   -36770.415    3702.7353    -40473.15    1058.4847   0.97690386 
   95100    302.14683   -915.80332    128765.92   -36749.147    3753.8771   -40503.024    1059.0239   0.97579066 
   95200    298.66227   -800.51117    128545.25   -36736.494    3710.5849   -40447.079    1059.2783   0.97746579 
   95300    301.98732   -703.68643    128864.29   -36603.057    3751.8953   -40354.953    1062.3033   0.97504574 
   95400    304.25135   -1078.2514    129149.25   -36694.721    3780.0238   -40474.745    1064.2632   0.97289435 
   95500    303.12512   -922.51462    129191.03   -36690.644    3766.0314   -40456.675    1065.8155   0.97257975 
   95600    303.19969   -1004.7586    129265.34    -36706.54    3766.9579   -40473.498    1068.9864   0.97202066 
   95700    297.69881   -858.28783    129182.27   -36785.048    3698.6149   -40483.663    1069.1823   0.97264571 
   95800    295.65882   -1455.1296    129090.86   -36859.503    3673.2699   -40532.773    1069.4881   0.97333445 
   95900    299.34269   -1029.3944    128997.76   -36828.749    3719.0385   -40547.788    1070.4414   0.97403693 
   96000    291.52917   -827.29448    129186.67   -36917.823    3621.9632   -40539.786    1072.5576   0.97261256 
   96100    296.98577    -898.5962    129313.79   -36862.562     3689.756   -40552.318    1074.4661   0.97165645 
   96200    297.84557   -1159.5557    129119.35    -36895.53    3700.4382   -40595.968    1075.5034   0.97311967 
   96300    303.02492   -1077.9615    129092.38   -36830.978    3764.7865   -40595.765    1075.5198   0.97332299 
   96400    299.16485   -1176.9433    129013.99    -36816.07     3716.829   -40532.899    1076.8855    0.9739144 
   96500     302.8441   -894.37025    128974.04   -36882.082      3762.54   -40644.623     1076.608   0.97421603 
   96600    297.49692   -774.18299    129209.51   -36892.692    3696.1066   -40588.799    1079.0029   0.97244065 
   96700    292.58616   -1115.9757    129054.98   -37034.468    3635.0952   -40669.564     1080.808   0.97360501 
   96800    290.15028   -1032.5882    129286.45   -37079.307    3604.8318   -40684.139    1082.4736    0.9718619 
   96900    294.64982    -828.4469    129013.46   -36981.571    3660.7341   -40642.305    1081.9611   0.97391837 
   97000    291.66112   -1015.7478    128905.63   -36986.481    3623.6024   -40610.084    1082.1137   0.97473307 
   97100    292.54946   -911.90705    128984.15   -36944.593    3634.6392   -40579.233    1083.7478   0.97413967 
   97200     294.1893   -1094.9536    128731.67   -36977.561    3655.0127   -40632.573    1083.2113   0.97605026 
   97300    300.27669   -1027.8444    128652.74   -37003.574    3730.6425   -40734.216    1084.1439   0.97664907 
   97400    297.02751   -878.68127    128950.96   -37005.053    3690.2746   -40695.327    1085.8733   0.97439045 
   97500    300.41326    -1121.554    129094.95   -36876.978    3732.3393   -40609.318    1087.0131   0.97330359 
   97600    295.58612   -789.69247    129270.15   -36945.646    3672.3668   -40618.013    1088.6638    0.9719845 
   97700    298.33183    -896.2357    129356.49   -36848.709    3706.4795   -40555.188    1089.5576    0.9713357 
   97800    294.53965   -1011.2336    129389.67   -36801.005    3659.3654    -40460.37    1089.8967   0.97108662 
   97900    302.33025   -1072.6175     129009.4   -36748.703     3756.156   -40504.859    1089.0978   0.97394901 
   98000    303.23354   -1058.4963    128893.87   -36781.651    3767.3784    -40549.03    1090.2197   0.97482202 
   98100    296.62469   -1253.0943    128991.98   -36897.069      3685.27   -40582.339    1091.9082   0.97408054 
   98200    299.87429   -1000.7202    128958.44   -36874.638    3725.6431   -40600.282    1092.7955   0.97433392 
   98300    299.41772   -1053.7479    129055.93   -36944.902    3719.9706   -40664.872    1093.4211   0.97359786 
   98400    294.37875   -1084.2765     129077.6   -36953.632    3657.3663   -40610.999    1094.1077    0.9734344 
   98500    296.15246   -1013.0313    129175.21   -36945.688     3679.403   -40625.091     1096.051   0.97269889 
   98600    291.39748   -1045.3815    129132.77   -36994.413    3620.3271    -40614.74    1095.9685   0.97301856 
   98700    294.02026   -787.27014    129362.71   -37031.869    3652.9125   -40684.781    1097.8952   0.97128901 
   98800    295.36184    -920.8108    129329.02    -37005.68    3669.5803   -40675.261    1097.5383   0.97154207 
   98900    296.22472   -885.04165    129398.43   -37009.583    3680.3007   -40689.884      1099.66   0.97102091 
   99000    292.71645    -1374.695    129500.49   -37048.756    3636.7139   -40685.469    1101.4521   0.97025563 
   99100    291.38761   -943.86596    129569.45   -36937.886    3620.2044    -40558.09    1102.3151   0.96973928 
   99200    298.72182    -1236.628    129389.25    -36920.97    3711.3247   -40632.295    1103.1008   0.97108983 
   99300    293.58666   -872.96962    129522.91   -36837.773    3647.5254   -40485.298    1106.3674   0.97008769 
   99400    296.99207    -788.0265    129852.06   -36786.773    3689.8344   -40476.607     1109.253    0.9676287 
   99500    305.86742   -1319.2592     129888.9   -36633.581    3800.1018   -40433.683     1110.676   0.96735423 
   99600    308.84229   -1079.2186    129600.81   -36682.006    3837.0616   -40519.068    1108.9039   0.96950461 
   99700    302.34813   -1019.2531    129468.75   -36718.029    3756.3781   -40474.408    1109.3591   0.97049352 
   99800    306.06749   -1142.2412    129447.82   -36744.425    3802.5875   -40547.013    1110.8582   0.97065039 
   99900    297.95758   -771.30902    129468.44   -36845.029    3701.8298   -40546.859    1112.7661   0.97049581 
  100000    298.89685   -972.83035    129624.28   -36832.467    3713.4993   -40545.966    1115.1176   0.96932902 
  100100    300.12703   -863.33713    129636.14   -36760.225    3728.7831   -40489.008    1115.2052   0.96924037 
  100200    299.77091   -1022.4392    129608.47     -36735.8    3724.3587   -40460.159    1116.7935   0.96944728 
  100300    304.15822   -941.79168    129056.73   -36744.314    3778.8667   -40523.181    1116.1211   0.97359185 
  100400    303.28818   -1223.8046    129079.09   -36804.533    3768.0573   -40572.591    1117.6482   0.97342321 
  100500    298.76615    -1036.897    128929.85   -36701.537    3711.8755   -40413.413     1117.777   0.97454999 
  100600    294.22211   -1119.4051    128823.11   -36798.885    3655.4203   -40454.305    1117.4116   0.97535741 
  100630    297.25393   -912.67437    128772.63   -36759.631    3693.0877   -40452.718    1116.9603   0.97573979 
Loop time of 107.488 on 6 procs for 100000 steps with 4169 atoms

Performance: 401.904 ns/day, 0.060 hours/ns, 930.334 timesteps/s
98.8% CPU use with 6 MPI tasks x no OpenMP threads

MPI task timing breakdown:
Section |  min time  |  avg time  |  max time  |%varavg| %total
---------------------------------------------------------------
Pair    | 85.667     | 86.197     | 87.248     |   6.1 | 80.19
Neigh   | 6.5587     | 6.595      | 6.7046     |   1.9 |  6.14
Comm    | 10.74      | 11.892     | 12.442     |  17.6 | 11.06
Output  | 0.16776    | 0.16893    | 0.17452    |   0.6 |  0.16
Modify  | 1.9236     | 1.9454     | 1.9606     |   0.9 |  1.81
Other   |            | 0.6904     |            |       |  0.64

Nlocal:        694.833 ave         706 max         689 min
Histogram: 3 0 0 1 0 0 1 0 0 1
Nghost:        1480.00 ave        1504 max        1455 min
Histogram: 1 1 0 0 0 1 1 1 0 1
Neighs:        0.00000 ave           0 max           0 min
Histogram: 6 0 0 0 0 0 0 0 0 0
FullNghs:      19563.0 ave       20175 max       19072 min
Histogram: 1 1 0 1 1 0 1 0 0 1

Total # of neighbors = 117378
Ave neighs/atom = 28.154953
Neighbor list builds = 7086
Dangerous builds = 0

undump              1
unfix               2
unfix               3
unfix               4


################################################
#######         Run Simulation         #########
################################################

reset_timestep      0
log                 log.run_${NAME}
log                 log.run_liquid_298K_1000atm_ML
