LAMMPS data file via write_data, version 29 Oct 2020, timestep = 800000

4175 atoms
1 atom types

-0.5474042235575425 50.54740422355441 xlo xhi
-0.5474042235575425 50.54740422355441 ylo yhi
-0.5474042235575425 50.54740422355441 zlo zhi

Masses

1 18.015

Atoms # atomic

2204 1 33.686327670597045 -0.023807301377995915 15.633505464042614 0 1 -1
4135 1 4.59592558240058 0.6914146973440338 0.825323484641532 0 1 1
2420 1 16.486619623298946 -0.4818134059406997 9.356296439156132 0 1 0
2808 1 11.909506239055835 2.518334712515877 1.1050262427680306 1 1 0
2153 1 16.865908411001758 1.194863495635783 1.4839921404864715 0 1 0
119 1 19.339641814215522 2.296798575633245 0.8892097144392268 0 0 0
3760 1 19.15909694426689 24.965702125551303 3.8675454077308586 0 0 1
768 1 3.859233301295604 24.311768179967924 11.375553050072991 0 0 0
129 1 44.09352951520371 9.66119890394167 -0.3488090572532666 0 0 0
2949 1 29.723559925704727 0.29337890494553276 0.49759317560068084 1 1 1
2224 1 35.45289243644385 0.8197511884125721 2.3519752409583843 0 1 0
3188 1 37.756645644037555 2.3123972331688125 2.2181271413919728 0 1 0
2608 1 39.46592104729206 0.46214947009983054 1.3156781984609223 0 0 0
853 1 42.1313988110914 0.48135161723078124 1.7382082213033279 0 1 1
2241 1 0.790772709743186 11.826319606604818 -0.11303542147490292 1 0 0
3217 1 -0.06536540265570007 0.3209449802742801 2.00682960581955 0 1 1
1735 1 -0.4096542225112244 6.16248885000116 0.1755505612126147 1 0 1
365 1 3.7940811439258706 3.181704021607247 1.8292173822235367 0 0 0
2350 1 5.37775985174817 5.2150990385712435 1.25060866353662 1 1 0
2234 1 12.82147550049529 5.188709004841381 0.395156043439876 0 1 0
15 1 43.44570340533363 24.959624662023064 0.14967185346477507 -1 0 0
961 1 15.05208330850943 7.296143697360325 1.1938052993430484 0 0 1
264 1 15.957779518171112 4.991366441423799 2.9595316205260773 0 0 0
2266 1 37.27613627504191 13.514308557521476 0.14189743833490975 0 1 0
128 1 25.10059736349909 3.2039891278966484 1.3114456179973077 0 0 0
2510 1 27.754707149097772 4.117273866484766 1.2068467532012521 0 1 0
2166 1 6.467779676884276 24.20494402917916 9.847190504078512 0 0 0
2545 1 33.307271756089534 2.43227998466546 2.825968115899242 0 1 0
941 1 36.49051228011159 4.7272390756420775 0.9252800016357243 0 0 1
3185 1 17.34170198644232 15.825590381621346 0.20869623135145665 -1 0 0
2705 1 21.64970008462969 0.8575703395494612 7.979669859147295 0 1 0
1604 1 42.832622285875516 3.200944122606754 0.7225249428031131 0 0 1
841 1 45.24279459810852 3.5909468807545624 1.6557235240933572 0 0 1
1892 1 49.82224602063056 2.9916686040440426 1.7890652711244597 -1 0 1
159 1 1.1234894203209298 3.6623794875732987 0.6001672245940073 1 0 0
1586 1 3.6736965567142565 7.828963778102983 0.8153289035308049 1 0 1
1658 1 5.943137499161899 9.15354889358836 -0.17745069770530386 1 0 1
1500 1 9.137729359631207 7.192376194760321 2.0852505690729646 0 0 1
3794 1 30.252242246459268 0.13506295278786418 10.539473938014588 0 1 1
3712 1 11.65720030979862 6.437769815436932 2.5150785195273726 1 1 1
1955 1 13.081602195358903 8.855838327128403 2.184844021273066 1 0 1
2165 1 18.506543050305456 6.3569056283457055 0.4843154408581818 1 1 0
2211 1 17.654870805467876 8.789036524198854 2.0354744423697473 0 1 0
3396 1 22.109581690093826 4.503765154478812 16.349306081362716 0 1 0
2412 1 21.385860078943995 5.440652895164288 2.518849627262481 0 1 0
428 1 27.461465907692734 6.718108726782089 0.3383498874351545 0 0 0
572 1 27.08348548028123 8.422396544563886 2.3784815320043067 0 0 0
4002 1 4.672351559383882 -0.49900562643736635 12.5373952137824 1 1 0
1693 1 33.824120700369 4.9865640816792585 1.5647868421856352 0 0 1
3045 1 38.20882024958097 9.080562201327078 1.105496985123998 0 1 1
1673 1 39.32394364561964 6.398002606898533 1.5332506190012114 0 0 1
1890 1 42.035318574490724 5.6039514615157655 1.8124225477038833 0 0 1
1869 1 45.93589380454475 6.37590654437374 1.4841009836820955 -1 0 1
329 1 50.0370534081007 7.518664355175938 2.477496186304354 0 0 0
840 1 0.8922274024118626 9.834767666703963 2.048094958051172 1 0 0
3688 1 5.960619381073323 10.993751791461222 1.9862229623355216 1 1 1
2016 1 9.34366394027073 12.130656660933028 0.09308568056659416 0 0 1
2704 1 7.67373134524407 -0.5222881941715216 7.168823487163902 0 1 0
708 1 14.66602494734269 12.354607837819463 2.7306149577294856 0 0 0
1698 1 17.213233225286455 11.568963880892523 1.8198734150933564 0 0 1
3440 1 22.622601380577713 9.98408252774854 1.630968518167705 0 0 0
3049 1 25.126710851788285 10.716514417958946 2.7255453846062485 0 0 0
3789 1 30.95252540856781 8.324931670586178 1.4830429769316282 0 0 1
1761 1 31.21465364975243 10.891420302611698 0.23761519221796823 0 0 1
1519 1 34.74090114073645 9.326757098437758 1.3201910417517366 0 0 1
765 1 14.883300606097478 3.1125676889447216 1.3021639720613183 0 0 1
1960 1 46.450762534646515 -0.1514077369436873 8.560763227113528 -1 0 1
2167 1 11.363197003737291 20.341982367665786 0.0008502951364112166 0 0 0
1373 1 48.95235788293247 10.569517592510257 1.48065529898587 -1 0 1
511 1 0.3027993302038383 13.868736987326637 1.9394523570888045 1 0 0
1790 1 8.348523418543575 7.986548401760571 -0.35971413969484634 1 0 1
3876 1 4.678808836315805 13.720882272774027 1.5156803449855563 0 0 1
330 1 50.26534768659032 20.851741201994592 16.180929322696326 -1 0 0
465 1 8.485764381655969 11.863684762000487 2.7117587837880257 0 0 0
4074 1 11.942544724255171 13.1488103289008 1.3460556447382175 0 1 1
333 1 19.562092985198163 13.057622379838257 2.957300098744097 0 0 0
2535 1 17.674423496598017 15.34584289763369 2.885026750382096 0 0 0
213 1 38.968327277424784 1.4133634807241529 15.849111394318463 0 0 0
3788 1 21.549188068487133 12.529736888519528 1.3461565322179336 0 0 1
645 1 23.651133815755873 14.238545628557636 2.0930261393535448 0 0 0
214 1 25.960350665360345 13.118842883220028 1.604543989153508 0 0 0
2784 1 32.06622313743313 12.893397404457932 2.1323155901264887 -1 1 0
3346 1 36.8388697251469 12.913378426312306 2.6917050065757304 0 0 0
3266 1 7.422173215139402 3.3213224175940694 15.454650624104094 0 1 0
2312 1 41.179516439694034 12.615357440338226 0.9195668329170861 0 1 0
93 1 43.63187617555325 12.057244407578567 0.292663991020617 0 0 0
1441 1 45.25558654571309 13.162987251693172 2.088381953454837 -1 0 0
4073 1 47.7108502789942 13.117322510207275 1.0489206682597678 -1 1 1
468 1 48.829472287222266 14.375938941227055 3.022741895713336 -1 0 0
1775 1 1.1393165439721955 16.432247002167962 1.570757174056395 1 0 1
2408 1 4.0574862367381 16.206456720411843 0.9334465812655266 1 1 0
929 1 8.237028801674297 17.004272173031165 0.008598066782352087 0 0 1
770 1 8.456106312231828 16.43297593686419 2.6477605717251684 0 0 0
3904 1 13.447655578073949 16.71597196274359 3.11478035074666 1 1 1
2035 1 13.44955426753529 17.353787181871276 0.33140750487884174 0 0 1
348 1 20.717701418014517 18.17097402903842 1.8804732065141776 0 0 0
161 1 23.163859079884823 17.008313175404012 1.677859054541618 0 0 0
168 1 29.280474765113315 17.213398306397735 1.0259855834469596 0 0 0
3508 1 31.577720127579767 17.493096489825916 2.2631830456656417 0 1 1
2568 1 32.484543942006006 15.463481292643035 0.8372857675468288 0 0 0
100 1 35.10799446923975 15.816405094212293 0.23893314811677502 0 0 0
1608 1 36.645573444010765 15.693520506670406 3.678933978545647 0 0 1
2353 1 40.65859200819751 16.881921144768736 1.2379804505136225 -1 0 0
515 1 35.69674029149385 24.155307747758393 3.110893377302647 -1 -1 0
805 1 43.36573893156662 17.700855342044015 1.545025081715964 0 0 1
766 1 47.18973623242202 16.5743027530319 2.3213765332799188 0 0 1
4005 1 47.27764269063736 17.403906923020955 -0.41322518334274705 0 0 1
1248 1 50.35257714775094 19.01715625568661 2.055287417772912 -1 0 1
336 1 4.027674545901728 21.02909164842454 1.4647278619401978 0 0 0
1595 1 6.478072744416926 21.86021144976584 1.6765948255157652 1 0 1
3436 1 10.911876205009147 24.627090019128833 5.276005253056077 1 0 0
2263 1 26.910291132896923 24.439838892827375 2.3606400726531374 0 0 0
39 1 10.180462379258753 20.556944674777363 3.191537187012615 0 0 0
1975 1 17.75620640574474 19.647029500825504 0.5610951903891837 0 0 1
1853 1 25.064263227486435 18.920922053192598 1.2347444502162892 0 0 1
2751 1 27.133272225424413 18.33652583284761 2.717738607763936 0 1 0
672 1 33.40602681641887 19.56236323401367 2.3865174403286726 -1 0 0
2824 1 35.84659022983431 17.973228993191206 2.170103329074322 0 0 0
216 1 36.38959356713635 7.325886227776646 -0.29698217586045134 -1 0 0
2508 1 5.2408683233456035 24.53123348734641 3.657795457455621 0 0 0
3756 1 39.55711163997859 19.1300150702117 0.2327421736616806 -1 0 1
1995 1 47.20812732350027 1.8757933253550045 0.8709587419413589 0 0 1
3506 1 0.05703966190232235 21.60014211701322 2.673826881298712 0 0 1
714 1 40.35573761705837 21.836162685286265 15.018269165660175 0 0 0
3052 1 6.144590040559667 24.6847962912765 1.1315339427615878 1 0 0
2260 1 13.690479602506565 21.33140020006723 1.851154504216534 0 0 0
810 1 17.690921177188876 19.79175491911931 3.2822390756773796 0 -1 0
1549 1 21.690840341562183 24.14471668772461 5.40554900320678 0 0 0
509 1 50.50227741137116 23.587799196974174 0.9991558924627064 -1 0 0
4045 1 21.322034551397305 22.96636372052068 0.6745840204700009 0 0 1
2932 1 23.969800192291014 21.398776239112127 1.626828421376334 0 0 0
2817 1 28.86789735611947 22.342667253811175 1.4855038204659645 0 0 0
1155 1 9.023578158228888 20.198120478412264 15.74436373273392 0 0 0
3859 1 36.843931566036986 22.202672046949406 1.2071081024969603 -1 0 1
3847 1 27.107946805330794 -0.4684462489452157 0.9593286413897781 0 1 1
2567 1 39.720639054137614 21.657551177589415 1.5638383170167627 0 0 0
3098 1 43.04450328413391 21.15800450960757 3.747667210309803 0 0 0
667 1 44.775304483544495 22.549375658006348 0.8032059987647553 0 0 0
3510 1 16.28782976634192 24.747754913227194 9.387163023297227 0 0 1
109 1 1.9232172067929305 1.6241067322133307 5.7612392770890155 0 0 0
691 1 7.60242596430686 2.015242793429535 3.315944213267505 0 0 0
1465 1 7.223554997559933 2.2128213608297616 6.184132923724957 0 0 1
305 1 10.310027443731423 1.9019722816509566 3.1565533978014524 0 0 0
618 1 11.193762774442513 3.0705406488341733 5.38989846248757 0 0 0
3759 1 17.607775184647345 1.233579977665257 4.169044325883052 0 1 1
2547 1 41.71027020845715 -0.5277063894665251 11.114750243275397 0 1 0
3170 1 20.53663117874618 2.2821731364122506 4.208655171580243 0 1 0
2903 1 23.014719803650763 0.6116175110420348 3.552170578241471 -1 1 0
2139 1 25.549638415730342 0.8572115170908652 2.638312930063084 1 1 0
1855 1 27.138443515638155 2.2898807601629634 4.611425799950488 0 0 1
655 1 30.41455355955116 -0.0632874852873373 5.498900457476683 0 0 0
2182 1 30.94954269889103 1.0185129112450972 2.83477211319319 0 1 0
3824 1 41.37457069265363 2.925146930706494 5.229180827729628 0 1 1
452 1 42.24674155302763 0.32317248560437783 4.383620870837954 0 0 0
644 1 44.73685506039152 1.1825842205301393 5.464289008662931 0 0 0
2255 1 46.90949411272636 -0.1098601065060994 5.61846605667858 0 0 0
543 1 -0.09533718350943698 0.0491859723278224 4.69492638490037 0 1 0
3501 1 48.98569160984645 1.6413300455301045 5.488353020881774 -1 1 1
2835 1 0.3350741407006693 5.550070090411058 4.786827965017643 1 1 1
769 1 2.374713128286065 3.794849600021416 4.113083605368599 0 0 0
2752 1 7.5378087562089835 4.889630092324617 3.0318035183975094 0 1 0
2738 1 6.026352253903514 5.821562585498433 4.959486417823124 0 1 0
3056 1 12.168286446753502 5.637645908835667 4.934182779014302 0 1 0
604 1 15.798034168906089 2.9752614915701585 5.3369885967872275 0 0 0
276 1 18.956267816235716 4.594303163120817 3.026654384045395 0 0 0
2485 1 18.78997306019833 4.772756250387815 5.916041407352334 0 1 0
2655 1 23.82611003737942 3.0006287924779627 5.39750035333242 1 1 0
4107 1 24.012360183706786 4.675103254319487 3.3730914579596223 0 1 1
1443 1 29.626805919210412 3.476524753472855 3.2671996279785027 0 0 1
1417 1 33.67580396468522 2.976102472766496 5.545214434533113 0 0 1
319 1 38.72105366947079 3.2942787061504806 4.70784700777488 0 0 0
2781 1 42.91955722767778 5.099174089221994 4.4778252450697975 0 1 0
1534 1 45.12747431774231 3.777672479022578 4.6135479039713445 0 0 1
503 1 48.927807797536076 4.083195703598823 4.378445059684204 0 0 0
3767 1 1.3944267401122492 8.233730751151649 4.954243986761769 0 0 1
707 1 2.6051324620816616 8.449659570558499 7.342884894291036 1 0 0
1822 1 3.6353493606500766 9.759893552771539 3.458409474261793 0 0 1
4070 1 5.897828767006748 8.765667340659032 5.111315992863519 1 1 1
3827 1 8.428276870964769 9.051544904696147 3.966057208190059 0 1 1
504 1 16.23207121185017 8.60542094840373 4.716356515142373 0 0 0
958 1 14.687943514537478 6.161062707669887 5.443289768544856 0 0 1
1697 1 21.455106717239904 8.260765204503658 3.318005607670914 0 0 1
2007 1 23.133377302235253 8.773656164400125 5.560108237090726 0 0 1
3650 1 25.059784878653115 7.068304206626176 4.25294637339203 0 1 1
2790 1 29.381620886287433 6.195209074491997 4.573114368615787 0 0 0
2015 1 27.009528716569488 6.274108062638553 5.934328686214169 0 1 1
3679 1 29.599619215819157 8.79126053225902 3.5869171989661126 0 1 1
3546 1 33.383239779429026 7.407802057048894 2.783116936311707 -1 1 1
1360 1 33.175962734840695 7.453655862659929 5.624735057172415 0 0 1
1412 1 37.44800479795728 5.561489004672244 3.554048545641959 0 1 1
155 1 35.103851213396226 5.363462321506541 5.318285297384029 0 0 0
2798 1 38.20844342572684 8.036869916908875 5.100764448265292 0 1 -1
1243 1 42.5781220685875 5.992989048110128 7.14563222834722 -1 1 0
284 1 44.10363279855122 8.761389043089714 4.305058157762399 -1 0 0
899 1 47.496493557659875 6.851952731813208 3.809375271639718 0 0 1
4021 1 2.391350381014778 13.156552511295379 5.597969497518479 1 1 1
486 1 2.703532380538145 12.426795911433256 3.0781341477296915 0 0 0
4163 1 13.848813986776827 10.366959515521017 4.485446047207711 1 1 1
1662 1 11.65092969954811 10.84371622301286 6.074691318366325 1 0 1
4100 1 19.30101983907736 9.498225134672863 4.316715194898597 0 1 0
1932 1 19.65274991152776 11.959918575462046 5.647763027989334 0 0 1
2955 1 25.297796814205185 10.744684304630036 5.348916763865419 1 1 0
3475 1 30.03328666686035 10.827041572035498 5.490339416701291 0 0 0
2746 1 38.284162211077735 10.392613614276673 3.5407318133227985 0 0 0
3305 1 36.523797821184644 11.089180115379117 6.134148161332146 0 1 1
3572 1 41.59013541289226 9.771751543245857 5.1857235729602 0 0 1
2599 1 43.67478578102486 7.85292856064636 1.8797298864517225 0 0 0
3186 1 45.413925710972144 11.235276775815906 4.082996970680092 0 1 0
1667 1 47.81857384482834 9.798361774775069 3.9767210571127887 0 0 1
3776 1 50.17458505666049 9.60569875174404 5.649722897882743 0 0 0
1168 1 2.2685473534064537 15.927972271867482 5.371219263224833 1 0 0
1116 1 7.093924969599712 14.050337671592487 3.219223674709364 0 0 0
2011 1 10.278597139289364 12.76928457630878 4.91355459427406 0 0 1
2071 1 15.208985284731178 14.656035289358453 3.999417372213818 0 0 1
3828 1 17.252446544634495 13.297901407766808 5.969960547769745 0 1 1
3932 1 23.849005014949586 15.066400810680848 4.603056704945341 0 0 0
3771 1 27.86898054016305 15.155367239439684 2.8027912023598303 0 1 1
773 1 30.215749434563616 13.765367145829503 4.042443265918305 0 0 0
2177 1 31.40552767848969 15.281328075531485 6.20854342684755 -1 1 0
1704 1 34.42322540842711 11.518802807827587 3.1034456939348933 0 0 1
3838 1 34.58034979582011 12.728300112707256 5.53962053819902 0 1 1
2077 1 40.603671245879376 12.28289013536743 3.948199144233741 0 0 1
3309 1 40.375622720866296 14.775719592262188 5.261495978631835 0 0 0
3148 1 42.26487989516214 12.000802360303132 6.8570129750442 0 1 0
1868 1 49.13657833815018 13.876806646308074 5.834623151479565 0 0 1
664 1 1.9772672354872438 18.284947256529115 4.211749352562031 0 -1 0
1239 1 -0.3942644834503274 16.20754847070693 5.977078628930188 0 0 1
454 1 4.233806511451891 18.42603350345426 2.658727631030588 0 0 0
1264 1 6.64177213906647 18.018632671721168 4.205179666137456 0 0 0
4001 1 11.016417315637833 15.47336733765816 3.5887858002769235 0 1 1
2494 1 11.80901874503878 16.428066290671328 6.192022918615888 0 1 0
1514 1 14.400632125695754 15.588557760821367 6.57984361881366 1 0 1
343 1 17.732785898297763 18.277899362356177 6.527830198214157 0 0 0
3377 1 19.15835005156105 17.30783040968245 4.0628292459092386 0 0 0
3133 1 21.798843694137176 16.70462331776333 5.419541123735497 1 0 0
381 1 26.412431304478453 16.37426906509779 5.1401531702764975 0 0 0
2859 1 29.295433240035443 16.016703936541216 7.851237029227635 0 1 0
3010 1 31.99714879212219 17.91209963549463 5.066179734802549 0 1 1
2597 1 35.57562646393945 15.536672471891595 6.038501487705507 0 0 0
2757 1 34.59579791548874 18.173107534924952 6.076157780267273 0 0 0
568 1 39.283669102026224 16.638473117312188 3.627794702590881 0 0 0
3137 1 42.20298299469107 15.950469409449124 7.008167075965435 -1 1 0
1687 1 44.762342270728226 15.899000556235766 5.847665979401045 0 0 1
3497 1 44.61240247183674 15.661665131284462 2.9074681969443525 0 0 1
3326 1 49.01272749968893 17.934183337400682 4.269018275251771 -1 0 0
3004 1 47.71386291698233 19.766311010488486 6.191089478526797 -1 0 1
1158 1 1.206213594268874 20.549681043953328 5.750326992492731 0 0 0
1092 1 7.5692097776246605 20.624562983310454 4.094916884054568 1 0 0
3709 1 11.698611050608225 18.987690727315957 4.947048324057394 0 0 0
2097 1 14.605920430872846 19.14685617661429 3.612123507763129 0 0 1
2595 1 18.45371551558078 20.96344185712273 6.908518781579847 0 0 0
4053 1 21.707991857136303 20.536560516518687 2.9116363446351214 0 0 1
370 1 22.7356980998035 19.234840099000753 4.768189501885801 0 0 0
3604 1 28.18142544033813 20.764444146447964 3.589170310359843 0 0 1
3014 1 30.400360855751035 20.250300094262634 5.531381658937509 0 0 0
835 1 32.512543118917826 21.757738003774787 4.175706633575246 -1 0 0
1828 1 36.395189146569294 19.68369315038671 4.561971802853886 0 0 1
1083 1 39.16773734552235 19.17295387684702 4.870799929971951 -1 0 0
492 1 45.05247144336967 19.191562592112412 3.7951932711023098 -1 0 0
2206 1 46.670829805230355 20.81084651538834 2.447188271438761 0 0 0
1675 1 47.51741917642475 22.557083290363064 4.666307628576924 -1 0 1
429 1 2.7667165503611972 22.80907072603285 3.0685776148414248 0 0 0
2221 1 3.454969096426283 22.499929008094718 5.92505621183608 0 0 0
3726 1 6.449638314708363 22.69390936095616 5.692637820410698 0 0 1
640 1 11.487873760749011 22.871077904912372 2.9595338145613805 0 0 1
3171 1 14.417099588652775 22.502054743874048 5.702693289701669 0 0 0
2140 1 15.787273717322531 22.16314252153765 3.368194007626429 0 1 0
3979 1 19.44969332347686 21.964047094886116 4.271714397601949 0 0 1
3969 1 13.59188873827825 8.014517667774982 16.306104895751382 -1 0 0
446 1 25.314331301715814 22.866430855869645 3.6635934927597553 -1 0 0
1708 1 26.230963951643147 21.474660858093287 5.973079697213916 0 0 1
2384 1 31.012976693825955 23.570574286122714 2.627943843636313 0 0 0
1684 1 35.28396978718871 22.061496783465515 4.8391124642614685 0 -1 0
2910 1 47.923963907646915 24.585116859946755 0.33390184470011797 0 0 0
288 1 40.34791573832449 21.54944315920031 4.0370366497208705 0 0 0
654 1 39.54358183217491 23.619690826682614 5.543634184014799 0 0 0
2231 1 44.801043271991304 23.374853556098795 3.961317802126957 0 0 0
947 1 50.35516018193714 22.52464570306936 5.195409179048042 -1 -1 0
3929 1 0.9956475638484921 1.6069487169101495 8.437330658583743 0 1 1
754 1 4.762361488319614 1.934293550695644 7.26320153902456 0 0 0
4113 1 6.241862219007512 2.5343883267219547 9.685326157331103 1 1 1
521 1 9.952571481584757 2.723334043706826 9.684526232180186 0 0 0
898 1 9.141098453587817 3.5574162441311126 7.281799007527414 0 0 0
3571 1 13.362080608406202 1.987780168202823 6.390514274458452 0 1 1
2082 1 14.919483311632275 2.2564349625201596 9.050212065121837 1 0 1
914 1 11.808314481967942 23.55544622393508 13.567571036570618 0 0 0
3931 1 19.268277796047286 1.863070142332384 6.938884837269083 0 1 1
1945 1 33.39850932957517 24.250932078380874 1.3075165169869032 0 0 2
451 1 24.13108855664669 1.897488609494491 8.935454956643161 0 0 0
1171 1 27.890281396036574 -0.11794726443069087 8.90955675210256 0 0 0
3347 1 27.763483374410416 0.019291131334724487 5.952183182342347 1 1 0
696 1 31.13647456416067 1.1189861237271375 7.823031117897992 0 0 0
1685 1 35.34907976557182 0.9326415845949445 6.447724369255319 -1 0 1
960 1 33.603173535262904 0.02460722258166248 8.436373276283271 0 0 0
3008 1 37.380161688382714 2.502495734982525 6.948964512686882 0 0 0
529 1 41.43841452554763 3.0723549238196175 7.818376256823511 0 0 0
2514 1 39.21451494219122 1.023153231774062 8.279766120580138 -1 1 0
3607 1 43.854518042156215 1.9196696688936115 7.868985817912865 0 0 1
3953 1 49.11832652169654 1.9998645400610675 8.166104024730771 -1 1 0
3895 1 36.792200007783755 19.47030838750281 0.21187396046867868 0 0 1
2630 1 0.3700641912230984 4.563272396065382 7.227893648763014 1 1 0
2329 1 4.0354024010439264 4.503437533078105 6.359448647433534 0 1 0
206 1 2.5989511187434684 5.844570139878539 8.305923502039219 1 0 0
2385 1 8.182212706026155 5.962800721575438 7.092122607874976 0 1 0
1946 1 16.72737624883382 3.8738150025559355 7.856256363993284 0 0 0
1740 1 21.509141375631973 4.1546762423709325 6.810272236774448 0 0 1
981 1 25.994251542226667 3.8039398332645034 6.875461202299923 0 0 0
2285 1 24.395343846493745 5.159240434384802 9.058382149103926 0 1 0
3155 1 32.20862769536894 3.777858944083608 8.031121342805141 0 1 0
165 1 34.31337678971674 4.1141597539707675 9.51851733117761 0 0 0
610 1 36.22481451325757 5.057129854408762 7.8706528412708465 -1 0 0
2679 1 40.58833650750148 4.653799133949039 10.087555523010012 0 1 0
1782 1 46.5843203737244 5.675259789564403 6.393858955657945 -1 0 1
413 1 45.38631774181485 3.8338583556569867 8.58712483413457 0 0 0
1508 1 49.06151010968796 5.917855612014718 7.95085894329412 0 1 1
1454 1 -0.011034205200689762 6.691594995243018 9.90524860285191 0 0 1
107 1 5.18452649752451 10.290864693054468 11.522796493771164 0 0 0
3615 1 7.163712734469288 9.464313729786108 9.632771556902489 0 1 1
72 1 10.305742377164691 7.903300680636766 5.968235678086265 0 0 0
1810 1 15.296567874702875 6.422797461043536 8.184267988597997 0 0 1
145 1 19.21281360509766 7.508431212445794 6.365994004806349 0 0 0
2621 1 17.445924356022903 8.454375708965232 8.271293718165103 0 1 0
2901 1 22.143014093264703 6.8871521552536 7.415226853933718 0 1 1
1177 1 27.293439994842664 8.093142899598416 7.961088550205499 0 0 0
173 1 31.016991968880728 5.984070771431185 6.857854552962793 0 0 0
3064 1 29.889099047449726 7.559377099306285 8.808645534223558 -1 0 0
200 1 36.11039658604705 8.380474859562224 6.533928060480855 0 0 0
435 1 36.30597399948825 7.947000429736946 9.277003321895076 0 0 0
489 1 38.720410841450224 5.762763850545907 8.460396421835346 0 0 0
114 1 43.26184557106631 5.349184093496974 10.01122772553252 0 0 0
466 1 44.73993355599202 7.4954247624531085 6.656593954579938 -1 0 0
4104 1 48.637017644359204 8.688993555378847 8.023702978396912 0 1 1
209 1 0.2506681298532826 9.066515256377103 8.951660476796178 0 0 0
4114 1 0.090053141799737 12.070940633764058 6.394563469284982 1 1 1
2306 1 4.55606835472997 12.526691433128322 7.3552162299969925 1 1 0
2792 1 5.148693832967184 9.74503582369734 7.569346234853297 1 1 0
913 1 9.532216104094413 10.971315493092657 9.053084919208318 0 0 0
283 1 11.038825831062534 8.363046487653826 9.08445704426274 0 0 0
716 1 13.644574759147998 11.052493527916187 8.20447284582363 1 0 0
993 1 13.83345489309909 8.708598109697139 9.431103720881865 0 -1 0
3207 1 16.029579659142467 10.779026207679523 6.843141035044461 0 1 0
36 1 21.84672634482148 9.841161326652728 8.66408294438419 0 0 0
300 1 21.824688104346343 12.40765334892876 7.447493387453392 0 0 0
3548 1 27.597836623898704 10.751949001839769 6.948475704897117 0 0 0
317 1 31.487548945923024 10.088687187334907 8.978754367314176 0 0 0
27 1 32.68104107377198 10.371250061731036 6.471481598526564 0 0 0
2284 1 40.47133414886688 10.11425134318678 8.516503943465953 0 0 0
1610 1 40.3957776891672 7.652722650684318 6.9312747740584815 0 0 1
1166 1 44.8961034755748 11.843197788332482 6.770779987528184 0 0 0
1156 1 45.972539741161974 9.669739676581289 8.293918819309331 -1 0 0
260 1 4.702332860403387 14.101208361831695 10.065080080209263 0 0 0
1744 1 6.10991821337818 14.103927985993206 5.813783211446348 0 0 1
976 1 7.296799199441497 15.48033562842176 10.727578395619057 0 0 0
2143 1 8.519794897071812 13.160819928212828 7.2179986156297105 0 0 0
227 1 16.749901252466042 14.624970460877567 8.524631581721202 -1 0 0
1343 1 21.212899678697312 13.398595003722543 10.131851575156857 0 0 0
1961 1 24.459878134487553 13.153812012835973 6.464333582591082 0 0 1
1435 1 26.798996660983473 14.693415806971128 7.800517140692859 0 0 1
242 1 27.26366937159057 12.211309025667244 9.137255632672945 0 0 0
2669 1 33.58124981117211 12.552689717261009 8.28257258714228 0 1 0
170 1 35.74892479218738 10.827582214591997 9.299864344756871 -1 0 0
589 1 38.353733243519166 12.015096815600728 7.990728806261032 0 0 0
2522 1 44.11647793547534 12.616675486421348 9.59810309330418 0 0 0
226 1 46.49546877627516 14.126809274200259 6.987541781064703 0 0 0
2123 1 47.024986299581364 15.063962048685763 9.394076613945161 -1 0 0
409 1 -0.3172679843824828 12.749958735655605 9.17599767050847 0 0 0
797 1 0.005947596162517943 17.438204811012778 8.410524463649454 1 0 0
247 1 2.3862107035678464 16.26227616037338 9.955111676197667 0 0 0
384 1 3.4681647186959044 17.066086393481356 7.514738955722203 1 0 0
3150 1 6.109728554196397 16.787757455308743 6.767761812271379 0 0 0
2943 1 8.185506160662147 17.037205538145685 8.632076676263681 1 1 1
2542 1 10.091321589590128 15.301249494840242 8.475638149383931 1 0 0
4081 1 13.581448810345016 19.170091539814297 8.38738188628235 0 0 1
3924 1 14.970143919155054 18.259828014021235 6.479023702021208 0 1 0
3660 1 18.556520932468413 16.649197508768108 8.54692996242228 0 0 1
2779 1 20.871933224262854 15.58570152571114 8.034431210155628 0 1 0
2237 1 22.217484860996255 17.188493840524515 9.882047749310365 0 1 0
67 1 26.118312571291682 18.860863844215032 8.306754859830178 0 0 0
2483 1 31.159064288052264 15.267257228038623 10.203171005213209 0 1 0
2812 1 33.482397474764554 15.244113816005157 8.125573492525609 0 0 0
3891 1 32.597580623081484 17.742058023782313 10.519678091700467 -1 1 1
2135 1 38.38208712092254 14.849543611576808 7.239592843980001 -1 0 0
459 1 37.01345606426698 17.242182757287612 8.62726891391861 -1 0 0
3017 1 42.40600356102705 14.930813721712802 9.516870980841393 -1 0 0
831 1 41.24864398607334 18.603680528953397 7.261970186681003 0 -1 0
258 1 45.62105172992711 18.443417658246638 6.5345128239901875 0 0 0
3336 1 3.8710180316739855 20.01987325575015 7.556620421079913 0 0 0
1794 1 2.2828782456709322 21.18460686705653 9.915932441907835 0 0 1
3783 1 6.341197357378871 21.97491727193197 8.351471079809492 0 0 1
332 1 8.35698745399125 20.030758378078843 8.869955674828393 1 0 0
1330 1 10.244180183993596 22.058154357282092 8.333498758150412 0 0 0
4167 1 12.296098513515394 21.035886457399123 6.7279887656105855 1 0 1
2455 1 15.259693366662107 20.829953889490294 9.840317582587243 1 0 0
53 1 16.398186324690975 22.29406583751568 7.644242895921668 0 0 0
3613 1 21.95618200384893 19.73216314622731 9.311380385866991 0 0 0
243 1 25.370282544975826 18.793297296378626 5.653955016999836 0 0 0
1660 1 28.76876986359295 18.81807362721734 7.816270996276915 0 0 1
2783 1 28.92904442955583 20.738508139937775 9.827624242375318 0 0 0
4043 1 34.568030425519396 18.48324175505703 8.6645259594807 0 0 1
1689 1 35.14970370292186 21.129157018816898 9.313744780435952 0 0 1
1010 1 38.4460059560407 19.55717463129795 7.7938647422825245 0 0 1
2195 1 43.27483914709806 20.307191659195933 6.4005997040987435 0 0 0
1840 1 -0.08911091358513917 20.270800628272482 8.347443921115609 1 0 1
154 1 48.24430065367075 21.24336026402673 8.80557978890994 -1 0 0
355 1 1.6716215198405124 23.860510053368653 9.608924318682396 0 0 0
2480 1 21.98609490116089 0.5580083849358259 12.615301717006137 0 1 0
3253 1 8.795559226315753 24.146072100523494 6.854702815025367 0 0 1
982 1 47.065387677020894 5.972098974641432 16.03824021405631 0 0 1
1576 1 21.92771205523881 21.330889738380872 6.650413456014313 0 0 0
1987 1 26.977006292840365 24.83658459454205 12.97109702156865 0 0 0
1856 1 24.324093372348056 22.37177009531512 7.336801378717728 0 0 1
3241 1 28.184829317755238 22.555149200676052 7.546393349399793 0 0 0
1966 1 30.630991811149066 22.95248479994316 6.602533150927305 0 -1 1
1233 1 31.89725829231088 24.2216009608135 8.530541373397208 0 0 0
3324 1 36.01470927826081 22.635031073956903 7.267212816456503 -1 0 0
1247 1 38.82160284396461 22.31070930432856 7.688493855744044 0 -1 0
1878 1 43.977690193407426 22.875371910773957 7.347377142902756 0 0 1
2382 1 43.49464571337893 23.701257520916272 9.74685488112148 0 0 0
77 1 46.61669454640715 22.835077114537402 7.317785045327518 -1 0 0
3477 1 -0.26765207443681927 0.4736286448859863 11.718438115504778 1 1 0
612 1 2.5308904606325755 1.2744534422141591 12.928310144223374 1 0 0
163 1 3.206261787896036 1.9660589784834728 10.2775068929299 1 0 0
2249 1 13.175868751984536 0.3523024944865253 12.524206545239162 0 1 0
2549 1 12.423548203000015 2.2059335851406785 10.527411099406015 0 1 0
632 1 18.902103634442113 21.90347867773387 -0.28425410817064295 0 0 0
3491 1 18.739970562503807 0.6632005994922414 10.677625942326815 0 1 0
2976 1 22.940604918819403 2.771995757558219 11.368484832275781 0 1 0
3590 1 2.57213321062909 24.60305304146673 7.24806011633288 0 0 1
2179 1 27.67398325219833 2.8529610620569907 8.96610117563228 0 1 0
3208 1 47.053805776619825 23.807885544960193 13.66287555817102 0 0 0
4028 1 32.10473167609231 1.5861111699650392 11.741601187911195 0 1 0
908 1 34.467156274413945 1.648555600894646 10.53128236147181 0 0 1
3832 1 38.91545951584396 0.2778368151439061 10.838470026590757 0 1 1
2712 1 48.603499126022264 -0.3946125002819709 15.16383005942552 0 0 0
649 1 44.20064983992908 0.8381864473739953 10.793733644530034 -1 -1 0