
# Create simulation box of size 50 x 50 x 50 Angstrom
#
lattice	            sc 1
Lattice spacing in x,y,z = 1.0000000 1.0000000 1.0000000
region 	            all block 0 50 0 50 0 50 units box
create_box          1 all
Created orthogonal box = (0.0000000 0.0000000 0.0000000) to (50.000000 50.000000 50.000000)
  1 by 2 by 3 MPI processor grid

# fill box with 4175 randomly distributed atoms
#
create_atoms        1 random 4175 63782 all
Created 4175 atoms
  create_atoms CPU = 0.001 seconds
mass                1 18.015

# Define potential
#
pair_style          sw
pair_coeff          * * ML_mW.sw mW
Reading sw potential file ML_mW.sw with DATE: 2019-02-27

# Run minimization
#
minimize            1.0e-8 1.0e-8 10000 1000
WARNING: Using 'neigh_modify every 1 delay 0 check yes' setting during minimization (../min.cpp:187)
Neighbor list info ...
  update every 1 steps, delay 0 steps, check yes
  max neighbors/atom: 2000, page size: 100000
  master list distance cutoff = 6.0032907
  ghost atom cutoff = 6.0032907
  binsize = 3.0016454, bins = 17 17 17
  1 neighbor lists, perpetual/occasional/extra = 1 0 0
  (1) pair sw, perpetual
      attributes: full, newton on
      pair build: full/bin/atomonly
      stencil: full/bin/3d
      bin: standard
Per MPI rank memory allocation (min/avg/max) = 4.255 | 4.258 | 4.261 Mbytes
Step Temp E_pair E_mol TotEng Press 
       0            0    7792709.3            0    7792709.3    5898794.3 
     630            0   -45180.336            0   -45180.336   -154.07449 
Loop time of 1.15746 on 6 procs for 630 steps with 4175 atoms

97.8% CPU use with 6 MPI tasks x no OpenMP threads

Minimization stats:
  Stopping criterion = max force evaluations
  Energy initial, next-to-last, final = 
      7792709.32924461  -45180.0188663597   -45180.336116598
  Force two-norm initial, final = 2.0191930e+08 4.9721331
  Force max component initial, final = 1.0948746e+08 0.73126211
  Final line search alpha, max atom move = 0.053306038 0.038980685
  Iterations, force evaluations = 630 1000

MPI task timing breakdown:
Section |  min time  |  avg time  |  max time  |%varavg| %total
---------------------------------------------------------------
Pair    | 0.88756    | 0.98737    | 1.0435     |   5.8 | 85.30
Neigh   | 0.0242     | 0.02493    | 0.02592    |   0.4 |  2.15
Comm    | 0.067518   | 0.12452    | 0.22509    |  16.5 | 10.76
Output  | 0          | 0          | 0          |   0.0 |  0.00
Modify  | 0          | 0          | 0          |   0.0 |  0.00
Other   |            | 0.02064    |            |       |  1.78

Nlocal:        695.833 ave         704 max         685 min
Histogram: 1 1 0 0 1 0 0 1 0 2
Nghost:        1494.17 ave        1515 max        1468 min
Histogram: 1 1 0 0 0 0 1 1 1 1
Neighs:        0.00000 ave           0 max           0 min
Histogram: 6 0 0 0 0 0 0 0 0 0
FullNghs:      19997.0 ave       20462 max       19320 min
Histogram: 1 1 0 0 0 0 0 2 0 2

Total # of neighbors = 119982
Ave neighs/atom = 28.738204
Neighbor list builds = 26
Dangerous builds = 0

# Add velocity/set timestep
#
velocity            all create ${TEMP} 120598 rot yes dist gaussian
velocity            all create 230 120598 rot yes dist gaussian
timestep            5.0

# Define output
#
compute	            1 all msd
thermo	            100
thermo_style        custom step temp press vol etotal ke pe c_1[4] density

# Neighbor lists
#
neigh_modify        delay 0 every 1 check yes

# Set fixes
#
fix                 1 all momentum 10 linear 1 1 1 rescale
fix                 2 all nve
fix                 3 all temp/csvr ${TEMP} ${TEMP} 500.0 928347
fix                 3 all temp/csvr 230 ${TEMP} 500.0 928347
fix                 3 all temp/csvr 230 230 500.0 928347
fix                 4 all press/berendsen iso ${PRES} ${PRES} 1000.0 modulus 20000
fix                 4 all press/berendsen iso -900 ${PRES} 1000.0 modulus 20000
fix                 4 all press/berendsen iso -900 -900 1000.0 modulus 20000

# Run 0.5 ns equilibration
#
dump                1 all custom 1000 eq.${NAME}.dump id type x y z vx vy vz
dump                1 all custom 1000 eq.liquid_density_MLmW.dump id type x y z vx vy vz
run                 100000
Per MPI rank memory allocation (min/avg/max) = 3.506 | 3.508 | 3.511 Mbytes
Step Temp Press Volume TotEng KinEng PotEng c_1[4] Density 
     630          230    892.42114       125000   -42318.699    2861.6373   -45180.336 2.7295415e-33   0.99914793 
     700    146.38043   -736.45405       126305   -41427.556    1821.2508   -43248.806   0.27837451   0.98882462 
     800    181.48194   -944.23951    126795.23   -40611.913    2257.9804   -42869.893    0.6460691   0.98500152 
     900    205.49679   -681.85883     127078.5   -40149.039    2556.7707    -42705.81    1.1286621   0.98280587 
    1000    208.83237   -717.18119     127454.9   -39837.654    2598.2717   -42435.926     1.598447    0.9799034 
    1100    217.57834   -984.97226    127462.82   -39619.662    2707.0882   -42326.751      2.03141   0.97984252 
    1200    220.70317   -880.41671    127490.34   -39647.599    2745.9671   -42393.566    2.4275324   0.97963105 
    1300    220.25123   -618.40012    127644.62   -39616.733     2740.344   -42357.077    2.7583995   0.97844694 
    1400    218.86843   -739.20658    127777.62   -39613.209    2723.1394   -42336.348    3.1874114   0.97742855 
    1500    220.99556   -640.03553    127719.04   -39558.758     2749.605   -42308.363    3.5563447   0.97787681 
    1600    228.19576   -695.97177    127782.85   -39454.146    2839.1891   -42293.335    4.0619241   0.97738852 
    1700    225.84492   -895.81927    127934.97   -39457.982    2809.9402   -42267.922    4.5474741   0.97622639 
    1800    225.32785   -1000.8728    128331.04   -39518.147    2803.5068   -42321.654     5.033555    0.9732134 
    1900    229.21572   -832.46563    128446.96   -39489.477    2851.8793   -42341.356    5.4234714   0.97233516 
    2000    232.05803   -880.03907    128506.67   -39448.714    2887.2431   -42335.957    5.7584085   0.97188336 
    2100    235.19843   -1012.6532    128657.33   -39411.914    2926.3156   -42338.229    6.1688304   0.97074525 
    2200    228.91801   -659.64007     128797.8   -39442.597    2848.1752   -42290.772    6.4739193    0.9696865 
    2300    238.06287   -809.17214     128838.2    -39456.43    2961.9547   -42418.385    6.8883373   0.96938249 
    2400    228.38759   -996.53122    128955.71   -39496.488    2841.5759   -42338.064    7.2756792   0.96849912 
    2500    234.97927   -794.60276    128971.83   -39497.765    2923.5888   -42421.353    7.5244127   0.96837805 
    2600    237.40455    -981.2434    128946.25   -39461.191    2953.7639   -42414.955    7.8729362   0.96857018 
    2700    235.87801   -856.52612    129083.11   -39498.681    2934.7708   -42433.452     8.118337   0.96754324 
    2800    235.67498   -741.80657    129299.85   -39501.604    2932.2449   -42433.849    8.4529447   0.96592137 
    2900     227.5277   -944.15747    129455.15   -39582.661    2830.8771   -42413.538    8.9213769   0.96476263 
    3000    233.38655   -950.93525    129436.34   -39617.729    2903.7724   -42521.501    9.2214976    0.9649028 
    3100    226.85826   -803.49277    129376.32   -39574.706    2822.5481   -42397.254    9.5138061   0.96535048 
    3200    229.59314   -894.73277    129514.61   -39613.214    2856.5752   -42469.789    9.8799526   0.96431969 
    3300    232.62488   -892.37194     129728.5    -39609.35    2894.2958   -42503.646    10.077516   0.96272979 
    3400     232.9838   -868.52888     129902.7   -39660.078    2898.7614    -42558.84    10.353387   0.96143873 
    3500    229.79224   -803.58825    130001.26   -39702.226    2859.0523   -42561.279    10.609468   0.96070984 
    3600    230.97031   -911.87671    129996.57   -39774.809    2873.7097   -42648.519    10.899661   0.96074448 
    3700    226.85148   -874.41757    129954.42   -39854.781    2822.4636   -42677.245    11.158461   0.96105615 
    3800    233.39551   -962.11613    130228.75   -39833.663    2903.8839   -42737.547    11.366352   0.95903163 
    3900    224.58707   -756.88111    130428.12   -39857.523    2794.2901   -42651.813    11.786405    0.9575657 
    4000    227.67051    -1068.278    130332.67   -39842.447     2832.654   -42675.101     12.09678   0.95826698 
    4100    228.81441   -890.83667    130413.68    -39830.76    2846.8862   -42677.646     12.20511   0.95767168 
    4200    228.90474   -916.53344    130432.63   -39845.572    2848.0101   -42693.582    12.369143   0.95753257 
    4300    229.92284   -939.88339    130313.87   -39860.462    2860.6773   -42721.139    12.512722   0.95840522 
    4400    229.87525   -1167.5084    130392.41   -39861.654    2860.0851   -42721.739    12.810987   0.95782789 
    4500    230.05646   -880.85422     130482.2   -39868.834    2862.3398   -42731.174    13.051948   0.95716877 
    4600    227.46962   -944.56946    130462.46   -39925.541    2830.1546   -42755.695    13.284903   0.95731365 
    4700    230.13803   -901.20448     130459.4    -39856.64    2863.3546   -42719.995    13.570805   0.95733605 
    4800    227.13585   -973.63171       130419   -39931.539    2826.0018   -42757.541    13.774889   0.95763265 
    4900    230.04479   -736.67342    130502.72   -39827.847    2862.1946   -42690.042    13.889133   0.95701827 
    5000    236.52747   -956.57609     130790.5   -39792.496    2942.8514   -42735.348    14.174322   0.95491257 
    5100    233.70968   -829.57945    130572.58   -39868.843    2907.7927   -42776.636    14.273401   0.95650628 
    5200     230.2713   -862.93057    130804.39   -39928.783    2865.0127   -42793.795    14.520711   0.95481118 
    5300    228.13958   -870.71802    130913.44   -39914.569    2838.4901   -42753.059    14.757457   0.95401581 
    5400    230.32552   -846.09408    130968.94   -39946.502    2865.6873   -42812.189    15.170632   0.95361154 
    5500    229.03088   -657.44457    131151.86   -39968.781    2849.5796   -42818.361    15.437738   0.95228151 
    5600    227.06033   -816.64909    131302.97   -39969.363    2825.0622   -42794.425    15.400477   0.95118558 
    5700    229.63813    -913.6598    131279.12   -39978.377    2857.1349   -42835.512    15.527432   0.95135837 
    5800    229.61676   -913.80439    131378.44   -40020.384     2856.869   -42877.253    15.667974   0.95063914 
    5900    229.02916   -743.16701    131394.23   -40069.669    2849.5581   -42919.227    15.908457    0.9505249 
    6000    229.58456   -869.19555    131434.91   -40076.572    2856.4684    -42933.04    16.018671   0.95023074 
    6100    233.01878   -913.52433     131439.4     -40019.4    2899.1966   -42918.596    16.414451    0.9501983 
    6200     227.4236   -780.90207    131369.15   -40083.198     2829.582    -42912.78    16.465815   0.95070642 
    6300    229.68387   -611.81887    131707.22   -40042.595     2857.704   -42900.299     16.64424   0.94826612 
    6400    230.82351   -936.16039    131627.24   -40032.232    2871.8832   -42904.116    16.821159   0.94884227 
    6500    231.32674   -761.19944    131679.36   -39983.951    2878.1444   -42862.095     17.20242    0.9484667 
    6600    226.07832   -808.61617    131763.88   -40058.438    2812.8441   -42871.282     17.39721   0.94785835 
    6700    226.02556   -962.19226    131620.42   -40114.708    2812.1877   -42926.896    17.448353   0.94889144 
    6800    226.68307   -1105.7267    131776.55   -40028.508    2820.3683   -42848.876     17.56681   0.94776717 
    6900     232.1246   -854.56228    131681.66   -39972.587    2888.0714   -42860.658    17.700074   0.94845013 
    7000    234.07836   -792.70498    131796.32   -39960.106    2912.3798   -42872.485    17.847189   0.94762504 
    7100     234.2965   -759.61066    131762.72   -39999.233    2915.0939   -42914.327    18.036809   0.94786665 
    7200    231.38168   -914.88799    132006.23   -40069.269     2878.828   -42948.096    18.228698   0.94611818 
    7300    223.34268   -926.85697    131879.62   -40148.103    2778.8076    -42926.91    18.507288   0.94702648 
    7400    224.48155   -1077.6988    131802.18   -40177.607    2792.9772   -42970.584    18.667849   0.94758287 
    7500    227.85395   -840.80933    131902.79   -40132.873    2834.9363    -42967.81    18.820427   0.94686015 
    7600    219.97879    -954.1269    131958.58   -40215.288    2736.9543   -42952.242    18.851014   0.94645981 
    7700    227.47239   -1066.1025    131904.24   -40103.988     2830.189   -42934.177    18.766389   0.94684971 
    7800    230.54075   -997.40031    131695.38   -40092.836    2868.3652   -42961.201    18.836833   0.94835136 
    7900     227.8156   -735.33824    131684.47   -40172.262    2834.4592   -43006.721    19.112164   0.94842991 
    8000     228.6422   -826.46213    131742.33   -40141.176    2844.7436   -42985.919    19.295211   0.94801341 
    8100    227.19891   -1005.1855    131640.27   -40219.185    2826.7863   -43045.971    19.446252   0.94874838 
    8200    227.07402   -906.80907     131568.9    -40246.77    2825.2325   -43072.003    19.631648   0.94926302 
    8300     227.4864   -882.49826    131491.27   -40247.001    2830.3633   -43077.364    19.674951   0.94982348 
    8400    229.15168    -836.6744    131819.51    -40196.68    2851.0825   -43047.763    19.946665   0.94745829 
    8500    232.79992   -688.47546    131751.99   -40134.047    2896.4737   -43030.521    20.053934   0.94794389 
    8600    230.88793   -829.82405    131792.95   -40148.898    2872.6848   -43021.583    20.191425   0.94764927 
    8700    230.88654   -925.22007    131899.24   -40130.248    2872.6675   -43002.915    20.538864   0.94688563 
    8800    229.27067    -923.4927    132065.07   -40175.073     2852.563   -43027.636    20.701667   0.94569662 
    8900    221.45991   -963.25358    132066.49   -40259.738    2755.3824   -43015.121    21.012161   0.94568648 
    9000    228.16598    -964.2384    131988.63   -40203.227    2838.8185   -43042.045    20.992622   0.94624429 
    9100    223.28238   -906.81727    132065.82   -40256.423    2778.0573   -43034.481    21.077077   0.94569124 
    9200    230.52847   -508.16504    132125.44   -40162.203    2868.2125   -43030.415    21.307783   0.94526449 
    9300    230.38339   -848.69848    132271.85   -40212.951    2866.4073   -43079.358     21.66677   0.94421822 
    9400    228.15286     -795.014    132391.64   -40175.259    2838.6554   -43013.915    21.829447   0.94336386 
    9500    230.31543   -779.48925    132318.83   -40190.087    2865.5619   -43055.649    22.060766   0.94388297 
    9600    229.92017   -742.42213    132669.31   -40152.643    2860.6441   -43013.287    22.220741   0.94138948 
    9700     233.2229   -923.61983     132821.3    -40093.99    2901.7362   -42995.726    22.304144   0.94031224 
    9800    229.05165    -899.6615    132762.21   -40192.233     2849.838   -43042.071    22.165051   0.94073072 
    9900    227.63188   -866.46526    132622.25   -40283.661    2832.1734   -43115.835    22.328265   0.94172353 
   10000    225.23281   -843.12388    132639.09   -40298.659    2802.3243   -43100.983    22.501535   0.94160393 
   10100    225.99388   -979.58657    132470.46    -40278.15    2811.7935   -43089.943    22.629863   0.94280259 
   10200    229.82329    -813.1824     132584.9   -40351.935    2859.4386   -43211.374    22.882531   0.94198882 
   10300    227.38153    -710.8144    132745.57   -40350.145    2829.0585   -43179.203    23.156872   0.94084867 
   10400    228.55144   -942.66171     132928.2   -40292.256    2843.6145   -43135.871    23.253431   0.93955601 
   10500    228.08687   -986.56201    132989.95   -40280.888    2837.8343   -43118.722     23.42631    0.9391198 
   10600    233.97208   -771.10498    132828.31   -40216.121    2911.0575   -43127.178     23.68556   0.94026263 
   10700    234.87403   -750.54408    133084.98   -40201.955    2922.2794   -43124.234    23.897535   0.93844918 
   10800    238.57016    -901.8009    133206.41   -40182.957    2968.2663   -43151.223    24.170396    0.9375937 
   10900    236.44623   -901.19666    132999.18   -40239.411    2941.8406   -43181.252    23.948117    0.9390546 
   11000    230.25228   -802.73221    133204.88   -40241.197    2864.7762   -43105.973     24.11484   0.93760447 
   11100    225.69061    -1127.537    133239.51   -40282.802    2808.0203   -43090.822    24.196378   0.93736078 
   11200    233.18405   -1014.0355    133191.78   -40283.236    2901.2529   -43184.489    24.221337   0.93769669 
   11300    232.41976   -758.36474    133205.15   -40272.876    2891.7436   -43164.619    24.460992    0.9376026 
   11400    234.87696   -812.70751    133549.57   -40291.149    2922.3159   -43213.465    24.842579   0.93518452 
   11500    229.12847   -856.92207     133602.4    -40337.23    2850.7938   -43188.024    25.232221   0.93481473 
   11600     226.8227   -1023.8154    133530.09   -40345.494    2822.1056     -43167.6    25.103531   0.93532092 
   11700    231.73605   -908.61352    133441.03   -40246.149     2883.237   -43129.386    25.038421   0.93594519 
   11800    230.82334    -1067.542    133375.95   -40328.454    2871.8812   -43200.335    25.066643   0.93640191 
   11900    230.58131   -941.14771    133244.91   -40342.164    2868.8698   -43211.033    25.123295   0.93732277 
   12000    228.20675   -1088.4002    133110.99   -40332.462    2839.3259   -43171.788    25.192017   0.93826583 
   12100    227.83805   -865.84716    133130.56   -40288.469    2834.7385   -43123.208     25.45485   0.93812792 
   12200    236.32226   -906.68874    133045.64   -40289.643    2940.2982   -43229.941    25.667527   0.93872665 
   12300    230.06261   -952.47057    133193.52   -40305.418    2862.4163   -43167.834    25.907009   0.93768441 
   12400    231.75402   -985.72304    133083.83   -40291.437    2883.4606   -43174.898    25.898216   0.93845732 
   12500    225.40233   -882.90127    133220.98     -40389.2    2804.4335   -43193.633    26.144235   0.93749113 
   12600    227.89649   -706.22609    133306.65   -40293.223    2835.4656   -43128.689    26.173741   0.93688865 
   12700    235.47889   -983.26772    133378.08    -40265.52    2929.8051   -43195.326    26.214191    0.9363869 
   12800    232.13625   -939.85144    133450.87   -40241.056    2888.2163   -43129.272    26.366784   0.93587619 
   12900    227.01257   -988.00664    133399.01   -40281.503     2824.468   -43105.971    26.381297   0.93624002 
   13000    230.65911   -929.77531    133397.26   -40210.391    2869.8379   -43080.229    26.508406   0.93625226 
   13100    234.64968   -918.68628    133209.19   -40208.546    2919.4881   -43128.034    26.645816   0.93757416 
   13200    236.45276   -896.70335    133415.82   -40125.003    2941.9219   -43066.924    26.828484   0.93612203 
   13300    234.73897   -921.84434    133467.52   -40175.826     2920.599   -43096.425     26.98967   0.93575945 
   13400    232.22417    -879.1271    132967.87   -40280.398    2889.3102   -43169.708    27.029383   0.93927574 
   13500    226.66321   -766.71073    133166.19    -40312.96    2820.1213   -43133.082    27.042599   0.93787685 
   13600    228.79899   -820.78078    133212.87   -40326.193    2846.6944   -43172.888    27.226186   0.93754823 
   13700    231.17437   -1153.1183    133150.87   -40324.814    2876.2486   -43201.063     27.41141   0.93798477 
   13800    235.33393   -760.51576    133025.86   -40238.451    2928.0015   -43166.453    27.359189   0.93886625 
   13900    232.40213   -647.77816    133161.16   -40292.267    2891.5243   -43183.792    27.537312   0.93791233 
   14000    229.17188   -1024.4074    133221.94   -40275.967    2851.3339   -43127.301    27.661188   0.93748443 
   14100    224.84474   -858.30618    133217.01   -40266.512     2797.496   -43064.008    27.936531   0.93751909 
   14200     228.3716   -817.44039       133698   -40319.932    2841.3768   -43161.309     28.06314   0.93414626 
   14300    230.48731   -1033.2884    133635.53   -40390.314    2867.7003   -43258.015    28.029925   0.93458294 
   14400    228.20029    -1059.581    133632.47   -40367.502    2839.2454   -43206.747    28.292848   0.93460437 
   14500    231.66476   -909.16915    133575.44   -40326.638    2882.3501   -43208.988    28.421743   0.93500341 
   14600    231.31228   -884.79143    133418.26   -40338.808    2877.9645   -43216.773     28.61372   0.93610492 
   14700    226.44048    -897.1407    133514.05   -40377.985    2817.3501   -43195.335    28.722589   0.93543331 
   14800    226.10008   -1072.6758    133423.37   -40421.794    2813.1149   -43234.909    28.806376   0.93606908 
   14900    222.28406   -823.29688    133421.12   -40495.785    2765.6363   -43261.421    28.806413   0.93608484 
   15000    225.34804   -1087.8604    133487.61   -40489.777    2803.7581   -43293.535    28.912869   0.93561863 
   15100    225.91576   -814.83882    133669.05   -40506.756    2810.8215   -43317.577    28.932958   0.93434862 
   15200    228.97485   -1008.6928    133780.01   -40437.184    2848.8825   -43286.066    29.222867   0.93357361 
   15300    227.28842   -819.76147    133506.58   -40467.948    2827.9001   -43295.848    29.148674   0.93548569 
   15400      224.179   -831.56738    133590.51   -40450.687    2789.2129     -43239.9    29.503964   0.93489793 
   15500    225.36966   -972.82692    133518.67   -40422.478     2804.027   -43226.505    29.561131   0.93540095 
   15600    230.15864   -948.03545    133568.45   -40361.981    2863.6111   -43225.592    29.566041   0.93505231 
   15700    229.04888    -865.8975    133461.02   -40455.604    2849.8035   -43305.407    29.711111   0.93580501 
   15800    231.48575   -961.47628    133502.26   -40461.977    2880.1228     -43342.1    29.839005    0.9355159 
   15900    222.72136   -820.16267    133329.65   -40496.454    2771.0771   -43267.531    29.933893   0.93672706 
   16000    228.38315   -925.38873    133454.26   -40414.705    2841.5206   -43256.225    29.867856   0.93585241 
   16100    228.95603   -835.28265    133307.98   -40354.879    2848.6483   -43203.527    29.877104   0.93687932 
   16200    227.47606   -914.62113    133555.27   -40400.289    2830.2346   -43230.524     30.19517   0.93514465 
   16300    231.52015   -899.70566    133527.39   -40429.736    2880.5508   -43310.286    30.324432   0.93533989 
   16400    234.03069   -768.24687     133351.1   -40335.866    2911.7867   -43247.652    30.447222    0.9365764 
   16500    231.01082   -974.89221    133408.55   -40319.278    2874.2137   -43193.492    30.494481   0.93617307 
   16600    232.83499   -888.89921    133555.04   -40294.446    2896.9099   -43191.356    30.494085   0.93514623 
   16700    231.82993   -756.64641     133615.6   -40340.968    2884.4051   -43225.373    30.750674   0.93472241 
   16800    235.95426   -885.90972    133523.75   -40326.358    2935.7196   -43262.078     30.83134    0.9353654 
   16900     233.6363   -1090.5042    133413.56   -40291.664    2906.8797   -43198.544    30.865587   0.93613787 
   17000    232.95621   -904.26754    133436.81   -40326.839    2898.4181   -43225.258    30.966617   0.93597477 
   17100    235.08509   -834.09806    133528.89   -40270.573    2924.9055   -43195.479    31.219151   0.93532939 
   17200    229.82602   -1010.3658    133408.52   -40299.302    2859.4726   -43158.775    31.414332   0.93617327 
   17300    229.80681   -807.07318    133242.11   -40372.404    2859.2336   -43231.637    31.488411   0.93734246 
   17400    228.63175   -1036.8974    132987.18   -40397.582    2844.6137   -43242.195    31.433473   0.93913931 
   17500    228.13675   -960.73243    132854.18   -40380.336    2838.4549   -43218.791     31.38529   0.94007949 
   17600    232.09765   -987.51284    132891.47   -40350.371     2887.736   -43238.107    31.409142   0.93981573 
   17700    227.70515   -860.22756    133012.38   -40375.301     2833.085   -43208.386    31.798078   0.93896142 
   17800    232.60628   -746.17637    132896.41   -40382.162    2894.0644   -43276.227    32.017354   0.93978077 
   17900    232.63188   -1009.9625    133029.08    -40350.86    2894.3829   -43245.243    32.065797   0.93884354 
   18000    233.95045   -920.29487    133072.16   -40298.528    2910.7883   -43209.317     32.09312    0.9385396 
   18100    230.29311   -808.19588    133128.42   -40409.937    2865.2841   -43275.221    32.279475   0.93814295 
   18200    233.84288   -705.41615    133481.75   -40402.439    2909.4501   -43311.889    32.412534   0.93565965 
   18300    236.35034   -936.23161    133546.01   -40315.294    2940.6475   -43255.941    32.492258   0.93520945 
   18400     230.9842   -885.32175    133490.78   -40379.996    2873.8826   -43253.878    32.733143   0.93559642 
   18500    225.90959   -899.69806    133648.73   -40309.681    2810.7448   -43120.426    32.783812   0.93449064 
   18600    229.61323   -1048.8805    133503.71   -40354.457    2856.8251   -43211.282    32.865329   0.93550579 
   18700    234.74548   -803.44681    133467.87   -40317.688      2920.68   -43238.368    32.981803   0.93575695 
   18800    229.79656    -947.4063    133526.88   -40292.958    2859.1061   -43152.064    33.315494   0.93534347 
   18900    234.23463   -585.04255    133654.74   -40338.231    2914.3241   -43252.555    33.500448   0.93444862 
   19000    227.65072   -997.93505    133620.12   -40321.417    2832.4078   -43153.825    33.255172   0.93469077 
   19100    226.26187   -969.93883    133497.59   -40393.026    2815.1278   -43208.154    33.476076   0.93554866 
   19200     231.9118   -919.16869    133400.39   -40367.361    2885.4237   -43252.784    33.570799   0.93623031 
   19300    231.00482   -948.14809    133471.74   -40298.364    2874.1391   -43172.503    33.610927   0.93572985 
   19400     228.4406   -857.96784    133343.57   -40308.577    2842.2353   -43150.812    33.631171   0.93662929 
   19500    229.72677   -992.54065    133339.03   -40294.843    2858.2377   -43153.081    33.844829   0.93666119 
   19600    231.59111   -851.45217    133328.16   -40343.482    2881.4337   -43224.916    34.004577   0.93673753 
   19700    230.97468   -747.95883    133560.46   -40314.261    2873.7641   -43188.025    34.187986   0.93510829 
   19800    231.57053   -959.27992    133510.37   -40351.977    2881.1776   -43233.155    34.240623    0.9354591 
   19900    232.10494   -1059.0346     133481.3   -40354.974    2887.8268   -43242.801    34.512875   0.93566285 
   20000    226.76259   -1061.4163    133307.54   -40406.843    2821.3577   -43228.201    34.608874    0.9368824 
   20100     227.6912    -1079.646    133076.27   -40375.593    2832.9114   -43208.504    34.416701   0.93851062 
   20200    227.81884   -1004.6685    132832.27   -40428.875    2834.4995   -43263.374    34.598754   0.94023457 
   20300    228.45918   -921.69129     133058.9   -40455.193    2842.4665    -43297.66    34.955488   0.93863314 
   20400    229.09068   -839.28971    133140.84   -40448.864    2850.3236   -43299.188    35.240992   0.93805547 
   20500    227.24169   -772.04392    132912.27   -40417.082    2827.3186     -43244.4    35.155316   0.93966864 
   20600    226.69028   -874.32712    133034.35   -40447.591    2820.4581    -43268.05      35.2834   0.93880637 
   20700    232.38968   -723.25731    133201.79   -40382.342    2891.3694   -43273.711    35.541823   0.93762623 
   20800    228.45464   -865.54002    133193.92    -40379.69    2842.4101     -43222.1    35.729266    0.9376816 
   20900    230.78137   -904.98396    133065.81   -40422.022     2871.359   -43293.381    35.730378   0.93858438 
   21000    224.08195   -901.41318    133058.36   -40508.938    2788.0055   -43296.943    35.891316   0.93863694 
   21100    224.45773   -969.85778    132958.03   -40528.419    2792.6809     -43321.1    36.009324    0.9393452 
   21200    226.59586   -796.44058    133069.31    -40505.74    2819.2833   -43325.023    36.054668   0.93855967 
   21300    227.30391    -899.7958    133195.55    -40517.76    2828.0928   -43345.853    36.122272   0.93767013 
   21400    227.90015   -755.96492    133458.33   -40465.405    2835.5112   -43300.916    36.164826   0.93582387 
   21500    226.65136   -1019.9483     133395.4   -40458.696    2819.9738    -43278.67    36.406674   0.93626537 
   21600    230.14918   -1047.0068    133240.39   -40406.067    2863.4934    -43269.56     36.48933   0.93735461 
   21700    230.41354   -794.28874    133062.15   -40375.713    2866.7824   -43242.496    36.643022   0.93861021 
   21800    232.09442    -930.7433    133180.15   -40347.462    2887.6958   -43235.158    36.641261    0.9377786 
   21900    228.40619   -808.15028    133114.41   -40360.987    2841.8073   -43202.794    36.697981   0.93824173 
   22000    229.03604   -880.29091     133344.1   -40387.224    2849.6438   -43236.868    36.790548   0.93662553 
   22100    233.68706   -826.57799    133555.81   -40311.051    2907.5113   -43218.562    36.756454   0.93514083 
   22200    231.07008   -822.29879    133444.46   -40354.077    2874.9511   -43229.029     36.83717   0.93592113 
   22300    234.38312    -960.2823    133416.37   -40339.121    2916.1716   -43255.292    37.177688   0.93611819 
   22400    232.74902   -857.91076    133332.48    -40310.64    2895.8404    -43206.48    37.334549   0.93670717 
   22500    233.88592   -911.06889    133298.74   -40314.259    2909.9855   -43224.244    37.408577   0.93694427 
   22600    231.87277   -922.75744    133043.38   -40292.911    2884.9381   -43177.849    37.283611   0.93874265 
   22700    232.99718   -863.16428    133170.33   -40287.701    2898.9278   -43186.629    37.405816   0.93784774 
   22800    233.10192   -955.20991    133132.29   -40264.971    2900.2311   -43165.202    37.703095    0.9381157 
   22900    230.02241   -797.22971    133285.52   -40318.444    2861.9161    -43180.36    37.882713   0.93703722 
   23000    232.12465   -771.10205    133496.87   -40303.191    2888.0719   -43191.263    38.117451    0.9355537 
   23100    231.27588   -850.95372    133428.95   -40414.321    2877.5116   -43291.833    38.156004   0.93602992 
   23200    228.32182   -953.48396    133310.77   -40370.822    2840.7575   -43211.579    38.476394   0.93685974 
   23300    233.23626   -882.16694    133466.25    -40422.32    2901.9026   -43324.223    38.659211   0.93576833 
   23400    228.73483   -951.54138    133316.59   -40354.258    2845.8962   -43200.154    38.761416   0.93681885 
   23500     225.6148   -876.76872    133525.34   -40389.196    2807.0771   -43196.273    38.785447   0.93535423 
   23600    236.72763    -870.7631    133528.27   -40371.044    2945.3417   -43316.386    38.738508    0.9353337 
   23700    225.19421   -971.70571    133790.65   -40397.323    2801.8441   -43199.167    39.051487   0.93349941 
   23800    225.60476   -821.31792    133813.79   -40459.732    2806.9521   -43266.684    39.165313   0.93333799 
   23900    219.95108    -718.6774    133869.96   -40467.744    2736.6096   -43204.354     39.25997   0.93294635 
   24000    226.28628   -1004.1474    133843.66   -40390.645    2815.4316   -43206.077    39.269358   0.93312967 
   24100    229.88009   -892.02103    133916.59    -40400.09    2860.1453   -43260.235    39.245349   0.93262149 
   24200    229.35786   -888.07171    133775.74   -40466.111    2853.6478   -43319.759    39.293979   0.93360343 
   24300     230.0124   -831.67799    133597.85   -40442.143    2861.7915   -43303.935    39.356023   0.93484656 
   24400    229.43118   -1095.8198    133697.81   -40483.609    2854.5601   -43338.169    39.519618   0.93414759 
   24500    233.43214   -1074.4311    133664.79   -40438.976    2904.3396   -43343.315    39.603622   0.93437839 
   24600    231.14451   -821.50033    133652.58   -40431.977    2875.8771   -43307.854      39.9373   0.93446378 
   24700    229.16949   -761.35331    133731.13   -40446.771    2851.3041   -43298.076    40.178121   0.93391484 
   24800    228.07698   -765.68492    133755.44   -40447.299    2837.7112   -43285.011    40.256423   0.93374517 
   24900    229.24999   -957.44531    133855.59   -40393.934    2852.3057    -43246.24    40.187925   0.93304654 
   25000    231.39537   -859.32452    133996.04   -40359.502    2878.9983     -43238.5     40.29043   0.93206855 
   25100    230.67466   -832.27702    133867.38   -40374.502    2870.0313   -43244.534    40.308985   0.93296431 
   25200     226.5398   -889.50742    133999.44   -40418.163    2818.5858   -43236.749    40.435754   0.93204487 
   25300    225.73657    -995.1949    133881.95   -40437.167    2808.5921   -43245.759    40.479246   0.93286277 
   25400    230.91206   -893.64413    133949.45   -40420.148     2872.985   -43293.133    40.716177   0.93239272 
   25500    230.09268   -1061.2301    133988.62   -40382.013    2862.7904   -43244.803    40.775602   0.93212015 
   25600    229.30438   -967.96727     133838.4   -40469.269    2852.9825   -43322.252    40.903064   0.93316635 
   25700     227.8906     -1006.06    133751.15   -40488.832    2835.3924   -43324.225    40.935381   0.93377507 
   25800    230.22916   -908.65013    133556.11   -40459.542    2864.4884    -43324.03    40.866478   0.93513876 
   25900     230.5866   -902.40861    133532.47   -40400.804    2868.9356    -43269.74    41.059798   0.93530426 
   26000     229.4056   -971.74011    133380.72   -40335.753    2854.2418   -43189.995    41.121128   0.93636839 
   26100    227.94032   -862.04153    133540.24   -40410.821    2836.0109   -43246.832    41.527776   0.93524985 
   26200     227.0183   -887.95528    133463.53   -40389.081    2824.5392   -43213.621    41.468694   0.93578741 
   26300    232.03456   -668.22108    133544.66   -40364.045    2886.9511   -43250.996    41.359576   0.93521893 
   26400    231.94118   -1012.4668    133622.04   -40358.887    2885.7892   -43244.677    41.584371   0.93467736 
   26500     229.2284    -928.4527    133612.41   -40422.561    2852.0371   -43274.599    41.928207   0.93474473 
   26600     227.9785   -883.09104    133596.27   -40491.323    2836.4859   -43327.809    42.227585   0.93485765 
   26700    228.73727   -938.14904    133714.42   -40528.413    2845.9265    -43374.34    42.096891   0.93403158 
   26800    229.63994   -677.46444    133792.27   -40454.576    2857.1575   -43311.734    42.354093   0.93348811 
   26900    228.09686   -878.00948    133888.72   -40458.881    2837.9586    -43296.84    42.231509   0.93281562 
   27000    230.45682   -977.78859    133801.16   -40506.977    2867.3209   -43374.298    42.315071   0.93342606 
   27100    231.44853   -915.15533    133939.45   -40513.758    2879.6597   -43393.417    42.535093   0.93246233 
   27200    229.19005   -890.37442    133893.17   -40537.511    2851.5599    -43389.07    42.261128   0.93278462 
   27300    225.17287   -1035.0258    133979.59   -40552.475    2801.5785   -43354.053    42.578132   0.93218295 
   27400    230.32406   -841.48982     134136.1   -40494.126    2865.6691   -43359.795    42.710985   0.93109528 
   27500    231.45934    -925.4505    134325.51   -40432.934    2879.7943   -43312.729    42.738921   0.92978235 
   27600    227.86975    -918.5815    134403.18   -40468.131    2835.1329   -43303.264    42.999717   0.92924507 
   27700    228.58022   -911.32237     134380.5   -40466.396    2843.9725   -43310.369    43.129936   0.92940189 
   27800    230.46715   -1055.5775    134518.28   -40393.896    2867.4495   -43261.346     43.38027   0.92844994 
   27900    232.26979    -936.2901    134232.17   -40419.797    2889.8777   -43309.675    43.249077    0.9304289 
   28000     232.6764   -798.96395    134220.14   -40471.696    2894.9367   -43366.633    43.233601   0.93051228 
   28100    231.98773   -981.84588    134282.99   -40469.844    2886.3684   -43356.212    43.347124   0.93007677 
   28200      230.184   -867.10894    134106.99   -40522.451    2863.9265   -43386.378    43.425048   0.93129737 
   28300    229.19136   -1019.6314    134023.53   -40523.163    2851.5763    -43374.74    43.580554   0.93187736 
   28400    230.20376    -881.5623     133974.4   -40572.985    2864.1724   -43437.157    43.489161   0.93221905 
   28500    227.43262   -873.31626    134006.44    -40599.47    2829.6942   -43429.164    43.777852   0.93199621 
   28600    231.85181   -981.03852    134007.12   -40560.486    2884.6773   -43445.163    43.690954   0.93199144 
   28700    226.48213   -976.13231    133852.18   -40559.484    2817.8683   -43377.352    43.635664   0.93307029 
   28800    232.39661    -763.9705    133805.86   -40514.685    2891.4556   -43406.141      43.5757   0.93339327 
   28900    230.60355   -879.68038    133796.08   -40468.211    2869.1465   -43337.358    43.637551   0.93346153 
   29000    225.35238   -912.55643    133871.34   -40535.534    2803.8121   -43339.346    43.891678   0.93293677 
   29100    233.23636   -918.79559    133944.86   -40468.892    2901.9038   -43370.796    44.051167   0.93242469 
   29200    231.62024    -1023.613    133779.33   -40437.219    2881.7961   -43319.015    44.298993    0.9335784 
   29300    227.05542   -735.88657    133691.36   -40507.033     2825.001   -43332.034    44.517492   0.93419266 
   29400    228.00172   -761.94871    133716.78   -40542.791    2836.7748   -43379.566    44.605664    0.9340151 
   29500    226.95871   -903.04518    133716.99   -40579.543    2823.7978    -43403.34    44.597892   0.93401361 
   29600    228.41113   -889.67878    133773.49   -40493.932    2841.8686   -43335.801    44.642765   0.93361918 
   29700    224.15874   -1081.5906    133679.09   -40537.248    2788.9609   -43326.209    44.611973   0.93427847 
   29800    230.40167   -966.88109    133797.57   -40520.086    2866.6349   -43386.721    44.995417   0.93345112 
   29900    228.26427   -930.27671    133574.97   -40557.514    2840.0415   -43397.555    44.981463   0.93500669 
   30000    226.87191   -689.17519    133671.08   -40534.097    2822.7179   -43356.815    45.131115   0.93433445 
   30100    232.79866   -832.50031    133808.46   -40539.393    2896.4579   -43435.851    45.349154   0.93337515 
   30200    230.01941   -910.92349    133993.84   -40549.715    2861.8787   -43411.593    45.495596   0.93208383 
   30300    227.53765   -897.12327    134001.26   -40510.172     2831.001   -43341.173    45.290564   0.93203218 
   30400    225.88414   -824.69073    134078.93   -40484.068    2810.4282   -43294.496    45.642447   0.93149229 
   30500     234.5994   -898.18349    133884.36   -40480.159    2918.8625   -43399.021    45.832883   0.93284598 
   30600    227.41311   -925.01637    133784.59   -40470.507    2829.4514   -43299.958    45.927707   0.93354172 
   30700    230.47936    -1116.589    133723.52   -40479.144    2867.6015   -43346.745    45.988014     0.933968 
   30800    232.25881   -835.66563    133817.72   -40414.355    2889.7411   -43304.096    46.056786   0.93331054 
   30900    227.78638   -941.45124    133786.04   -40537.907    2834.0957   -43372.003    46.075945   0.93353153 
   31000    229.46433   -894.64896    133739.08   -40583.076    2854.9726   -43438.049    46.192754   0.93385932 
   31100    231.31611   -824.05486    133965.92   -40579.043    2878.0122   -43457.055    46.440843    0.9322781 
   31200     231.4598   -770.14226    134181.17   -40597.401    2879.7999   -43477.201    46.745702   0.93078253 
   31300     228.0416   -909.26327    134145.14   -40565.539    2837.2711    -43402.81    46.528562   0.93103254 
   31400    229.25701   -831.61175    134181.71   -40531.347    2852.3931    -43383.74    46.709762   0.93077881 
   31500    227.15916   -948.52522    134290.47   -40578.024    2826.2918   -43404.316    46.838922   0.93002497 
   31600    231.21898   -1054.0895    134111.86       -40504    2876.8037   -43380.804    46.612157   0.93126356 
   31700    228.39603   -806.04147    134356.56   -40514.992    2841.6808   -43356.672    46.596446   0.92956752 
   31800    229.29385    -911.4668    134454.39   -40438.525    2852.8514   -43291.376    46.782296   0.92889113 
   31900    230.35554   -1048.0473    134329.84   -40429.502    2866.0609   -43295.563    46.950085   0.92975242 
   32000    233.84618   -1006.8489    134290.26   -40420.387     2909.491   -43329.878    47.288528   0.93002646 
   32100    232.12639   -763.32531    134219.81   -40433.796    2888.0936    -43321.89    47.398066   0.93051462 
   32200    235.74332   -934.93649    134007.19   -40435.899    2933.0951   -43368.994    47.193304   0.93199097 
   32300    228.20262   -866.14661    133947.74   -40419.435    2839.2744    -43258.71    47.166821   0.93240462 
   32400    231.40181    -935.8821     133726.4   -40499.282    2879.0784   -43378.361    47.132194   0.93394789 
   32500    230.14425   -782.08361    133770.72   -40502.686     2863.432   -43366.118    47.155169   0.93363848 
   32600      234.813     -1044.07    133655.39   -40443.221    2921.5202   -43364.741      47.2787    0.9344441 
   32700    228.20933   -895.59781    133600.67   -40507.935    2839.3579   -43347.293    47.346654   0.93482682 
   32800    229.50316    -923.3578    133724.92   -40555.888    2855.4557   -43411.343    47.407104   0.93395825 
   32900    227.29705   -774.02211    133984.35   -40552.176    2828.0074   -43380.184    47.890098   0.93214984 
   33000    227.18155   -812.51921    134105.84   -40606.241    2826.5704   -43432.811    48.027011   0.93130538 
   33100     229.0008   -992.86881    134015.19   -40539.163    2849.2053   -43388.368    47.884228   0.93193536 
   33200    226.88638   -799.01454    133976.29   -40599.565    2822.8979   -43422.463    47.925505   0.93220594 
   33300    230.92685   -789.53313    134179.57   -40518.206     2873.169   -43391.375    48.121456   0.93079367 
   33400     227.3674   -861.75615     134194.9   -40585.488    2828.8828   -43414.371    48.285539   0.93068734 
   33500    230.87628   -805.77289    134286.73   -40549.595    2872.5399   -43422.135    48.245842   0.93005088 
   33600    225.94587   -908.88248    134181.44    -40517.82    2811.1962   -43329.016     48.24876   0.93078066 
   33700    230.08666   -899.27347    134323.47   -40506.283    2862.7155   -43368.998    48.700841   0.92979647 
   33800    229.80866   -875.85125    134277.45   -40503.177    2859.2566   -43362.434    48.711212   0.93011513 
   33900     232.1189   -1105.4403    134234.75   -40521.899    2888.0003     -43409.9    48.740506   0.93041104 
   34000    235.25357    -871.5872    133988.29   -40514.771    2927.0017   -43441.773    48.638795   0.93212247 
   34100    230.83469    -960.7558    134051.77    -40557.14    2872.0224   -43429.163    48.665547   0.93168105 
   34200    229.25921   -984.52635    133965.55    -40564.15    2852.4204    -43416.57     48.73823   0.93228067 
   34300    227.49577   -1004.6253    134002.53   -40627.201    2830.4799   -43457.681    48.725701   0.93202336 
   34400    228.56898   -807.23383    134365.37   -40553.563    2843.8327   -43397.396    48.937967   0.92950654 
   34500    228.68494   -1035.8331    134240.69   -40561.082    2845.2754   -43406.357    49.066427   0.93036987 
   34600    227.97728   -844.27295    134065.32   -40539.664    2836.4708   -43376.135    49.023584   0.93158687 
   34700     226.5369   -891.47617    134200.24   -40613.661    2818.5497    -43432.21    49.213121   0.93065026 
   34800    227.36425   -1004.3808     134176.3   -40583.973    2828.8435   -43412.816    49.370453    0.9308163 
   34900    223.56909    -929.0762    133981.91   -40585.914    2781.6245   -43367.538    49.275323    0.9321668 
   35000     223.3408   -934.06554    134017.34   -40647.917    2778.7842   -43426.701    49.304949    0.9319204 
   35100    232.44191   -752.45058    134425.66   -40583.186    2892.0193   -43475.205    49.515893   0.92908967 
   35200    224.37762   -850.49014       134147   -40602.813    2791.6842   -43394.497    49.337241   0.93101967 
   35300     229.1452   -892.51251    134089.68   -40587.529     2851.002   -43438.531    49.671883   0.93141765 
   35400    223.95199   -905.15936    134285.94   -40608.046    2786.3885   -43394.435    49.463483   0.93005634 
   35500    230.41429   -1147.8199    134201.36   -40494.973    2866.7918   -43361.765    49.521034   0.93064248 
   35600    228.69522    -779.3166    134248.86   -40541.112    2845.4033   -43386.515    49.847407   0.93031324 
   35700    231.29939   -841.50282    134402.81   -40492.546    2877.8041    -43370.35    50.079849   0.92924763 
   35800    226.72794   -1004.4532    134381.96   -40538.873    2820.9266   -43359.799    49.863625   0.92939182 
   35900    231.01828   -901.17946     134663.5   -40486.858    2874.3066   -43361.165    49.984252   0.92744873 
   36000    229.87565   -832.32465    134748.23   -40450.789    2860.0901   -43310.879    50.046755   0.92686557 
   36100    233.31088   -949.06848    134503.93   -40483.235    2902.8309   -43386.065    49.878964   0.92854898 
   36200    231.31314   -902.45155    134592.01   -40521.221    2877.9752   -43399.196    50.159478   0.92794137 
   36300    226.96217   -863.03951    134648.33   -40581.278    2823.8409   -43405.118    50.282818    0.9275532 
   36400    226.48772   -914.97792    134626.48   -40528.089    2817.9379   -43346.027    50.358803   0.92770378 
   36500    233.12694   -746.53734    134685.44   -40502.034    2900.5423   -43402.576    50.213399   0.92729766 
   36600    226.02194   -831.42337    134615.47     -40615.3    2812.1426   -43427.442    50.377353    0.9277796 
   36700    226.88971   -859.95853    134571.24   -40541.366    2822.9393   -43364.305     50.55083   0.92808454 
   36800    231.78425   -950.03987    134501.28   -40537.979    2883.8367   -43421.816    50.447438   0.92856727 
   36900    230.37745   -1015.7894     134455.4   -40559.563    2866.3335   -43425.897    50.451577   0.92888418 
   37000     225.6849   -933.38822    134396.67   -40502.124    2807.9492   -43310.073    50.430481    0.9292901 
   37100    233.47862   -846.19588    134423.64   -40479.144     2904.918   -43384.062    50.570207   0.92910365 
   37200     225.6183   -989.01441    134274.87   -40543.318    2807.1205   -43350.438    50.755025   0.93013302 
   37300    229.13281   -824.06665    134299.45    -40546.19    2850.8478   -43397.038    50.622796   0.92996276 
   37400    228.37712   -844.87997    134341.17   -40569.012    2841.4456   -43410.458    50.742852   0.92967401 
   37500    227.21625   -974.08626    134166.21   -40585.329    2827.0022   -43412.331    50.949723   0.93088632 
   37600    226.41551   -927.28593    134267.05   -40523.638    2817.0394   -43340.678    51.106457    0.9301872 
   37700    228.19889   -956.25715    134044.18   -40522.376     2839.228   -43361.604    50.929977   0.93173375 
   37800    227.88657    -971.1947    134157.61   -40626.695    2835.3422   -43462.037    50.900873   0.93094598 
   37900    228.26992   -933.63031     134083.3   -40582.334    2840.1118   -43422.446    50.998446   0.93146198 
   38000    228.84146   -1034.1705    133884.98   -40557.456    2847.2229   -43404.679    51.116372   0.93284169 
   38100    227.90758   -913.76766    133804.76   -40515.355    2835.6035   -43350.958    50.979169   0.93340096 
   38200    228.08866    -771.2951    134028.28   -40514.473    2837.8566    -43352.33     51.11899    0.9318443 
   38300    228.26941   -947.88147    133917.83   -40454.177    2840.1054   -43294.282    51.332961   0.93261286 
   38400    226.98617   -732.01556    134201.31   -40519.714    2824.1395   -43343.853     51.37901   0.93064289 
   38500    224.32521   -837.04823    134283.18   -40523.365    2791.0321   -43314.397    51.650923   0.93007543 
   38600    231.46433   -1018.3178    134100.24   -40479.334    2879.8563   -43359.191    51.539768   0.93134428 
   38700    232.20849   -857.43687    134002.39   -40486.889    2889.1151   -43376.005    51.922186   0.93202433 
   38800    230.01588   -919.24879    133968.09   -40514.764    2861.8348   -43376.598     52.20445     0.932263 
   38900    231.50444   -1005.7241    133869.15   -40453.236    2880.3554   -43333.591    52.253128   0.93295203 
   39000    228.83521   -812.98591       133921   -40516.361    2847.1451   -43363.506    52.297729   0.93259082 
   39100    228.51446   -961.23897    134007.04   -40469.236    2843.1543    -43312.39    52.113644   0.93199203 
   39200    233.26024   -818.56251    133863.37   -40498.176    2902.2009   -43400.377    51.899167   0.93299227 
   39300    228.22019   -906.34358    133775.06    -40492.23    2839.4931   -43331.723    52.047997    0.9336082 
   39400    230.84801   -926.20527    134002.15   -40456.683    2872.1881   -43328.871    52.181555   0.93202603 
   39500    233.65237   -867.63663    134025.22   -40435.158    2907.0797   -43342.238    52.489281    0.9318656 
   39600    228.20669   -915.00756    133808.71   -40492.951     2839.325   -43332.276    52.942864   0.93337343 
   39700    236.31167     -879.915    133853.84   -40436.733    2940.1664   -43376.899    53.261111   0.93305873 
   39800    230.11127   -972.09058    133987.56    -40498.08    2863.0216   -43361.102    53.091342   0.93212749 
   39900    229.41634   -961.43679    133934.72   -40549.422    2854.3755   -43403.797    52.846197   0.93249525 
   40000    224.78077   -813.46314    133890.46   -40567.127    2796.7001   -43363.827    52.947194   0.93280354 
   40100     228.7796   -904.41192    133919.08   -40453.603    2846.4532   -43300.056    52.925668   0.93260416 
   40200    232.27702   -1073.5418    133861.09   -40478.969    2889.9677   -43368.937    53.049084   0.93300817 
   40300    233.16893   -839.35629    134027.59   -40464.291    2901.0648   -43365.355    53.291743   0.93184914 
   40400    234.10746   -908.44173    134010.35   -40381.981    2912.7419   -43294.723    53.295674   0.93196902 
   40500    231.59104   -925.89595    133751.93   -40395.167    2881.4328   -43276.599    53.538949   0.93376965 
   40600    233.85601   -947.33335     133779.7   -40442.574    2909.6134   -43352.187    53.837246   0.93357583 
   40700    229.81029   -882.53994    133748.37   -40483.547     2859.277   -43342.824    53.617817   0.93379448 
   40800    225.31205   -945.39575    133843.87   -40530.866    2803.3102   -43334.176    53.777879   0.93312818 
   40900    225.45415   -921.50048    133731.81   -40562.263    2805.0783   -43367.341    53.796737   0.93391009 
   41000    228.54134   -927.69394    133691.87   -40470.197    2843.4888   -43313.686    53.822506   0.93418911 
   41100    235.10991   -749.28322    133893.65   -40451.324    2925.2143   -43376.538    53.802046   0.93278126 
   41200    232.03518   -931.19142    133830.02   -40482.256    2886.9587   -43369.215    53.863717   0.93322479 
   41300    225.83621   -1064.6081    133632.16   -40627.478    2809.8318    -43437.31    54.002782   0.93460651 
   41400    225.86163   -763.49624    133839.81   -40559.893    2810.1481   -43370.041    54.043652   0.93315653 
   41500    226.15223   -918.13698    133890.45   -40574.298    2813.7637   -43388.062    54.188171    0.9328036 
   41600    226.04707   -736.53988    134004.64   -40534.218    2812.4553   -43346.673    54.429984   0.93200874 
   41700    231.87893   -972.33747    133958.95   -40523.146    2885.0147   -43408.161    54.282937   0.93232662 
   41800    232.04227   -898.29747    133930.83   -40545.375     2887.047   -43432.422    54.370169   0.93252235 
   41900    229.37834   -949.38616     133775.3   -40527.871    2853.9027   -43381.773    54.589037   0.93360652 
   42000    227.91821   -972.29803    133743.56   -40526.169    2835.7358   -43361.904    54.432619   0.93382808 
   42100     229.0211    -1070.099    133874.72   -40531.777    2849.4579   -43381.234    54.383921   0.93291319 
   42200    236.84086    -942.5431    133844.81   -40493.514    2946.7505   -43440.264    54.504614   0.93312165 
   42300    232.00232   -895.40497    133891.69   -40475.234    2886.5499   -43361.784    54.894591   0.93279494 
   42400    228.17287   -828.52752    133971.94   -40501.454    2838.9044   -43340.359    54.929964   0.93223621 
   42500    230.60979   -1101.1399    133893.43   -40511.045    2869.2242   -43380.269    55.108508   0.93278284 
   42600    231.59208   -1024.4918    133887.79   -40504.223    2881.4457   -43385.668    55.280183   0.93282212 
   42700    231.87217   -845.31221    133949.58   -40510.818    2884.9306   -43395.749    55.202813    0.9323918 
   42800     234.0235   -649.66389    133867.35   -40464.035    2911.6973   -43375.732    55.036155   0.93296454 
   42900    225.38279   -764.99386    133680.35   -40539.114    2804.1905   -43343.305    55.035074    0.9342696 
   43000    228.24532    -943.7907    133809.94   -40572.986    2839.8058   -43412.792    55.342326   0.93336485 
   43100    231.98407   -686.00387    133971.32    -40547.05    2886.3229   -43433.373    55.685174   0.93224048 
   43200    230.82794   -1027.5408    133955.09   -40502.708    2871.9384   -43374.647    55.739148   0.93235345 
   43300    225.59459   -932.63746     133966.2   -40510.092    2806.8255   -43316.917    55.559657   0.93227614 
   43400    231.49681   -1091.5755    134036.64    -40453.07    2880.2604    -43333.33    55.870239    0.9317862 
   43500    231.58452    -983.4818    134032.54   -40460.663    2881.3518   -43342.015    56.066255   0.93181469 
   43600    231.30501   -993.78106    133987.49   -40375.767    2877.8741   -43253.641    56.171651   0.93212803 
   43700    238.12573   -778.66796    134090.45   -40399.255    2962.7368   -43361.992    56.447721   0.93141227 
   43800     236.0272   -883.54113    134169.67   -40411.205    2936.6271   -43347.832    56.398533   0.93086234 
   43900    230.76455   -979.09293    134215.17   -40457.308    2871.1498   -43328.458    56.832381   0.93054676 
   44000    227.56921   -951.99856    134370.47   -40476.465    2831.3937   -43307.859    56.728697    0.9294713 
   44100    228.88587   -934.16239    134440.98   -40485.895    2847.7754   -43333.671    56.885816   0.92898381 
   44200    228.46423   -999.45899    134224.17   -40517.883    2842.5293   -43360.413     57.04113   0.93048435 
   44300    227.85006   -906.14779    134270.33   -40514.463    2834.8879   -43349.351    57.398171    0.9301645 
   44400    231.41007   -832.41512    134355.08   -40486.914    2879.1813   -43366.095    57.529819   0.92957773 
   44500    227.01753   -1106.2236    134413.16   -40522.814    2824.5297   -43347.344    57.614526   0.92917608 
   44600    226.96364   -853.79157    134401.66   -40588.479    2823.8592   -43412.338    57.560074   0.92925555 
   44700    230.47944   -1003.9929    134277.37   -40563.386    2867.6024   -43430.988    57.322205   0.93011574 
   44800    229.18351   -970.06809    134121.33   -40521.197    2851.4786   -43372.676    57.359857   0.93119783 
   44900    229.62498   -1067.5698    134191.87   -40464.936    2856.9713   -43321.907    57.397715   0.93070835 
   45000    233.35554    -975.0704    134182.52   -40470.331    2903.3866   -43373.717    57.502826    0.9307732 
   45100    231.41236   -961.23096    134147.38   -40411.071    2879.2097    -43290.28    57.632104     0.931017 
   45200     230.1284   -805.51128    134231.15   -40478.288    2863.2348   -43341.523    57.795716   0.93043596 
   45300    232.15019   -808.41208    134181.53   -40497.767    2888.3897   -43386.157     57.69506   0.93078007 
   45400    232.32466   -939.72524    134302.65   -40465.478    2890.5604   -43356.038    57.687611   0.92994065 
   45500    228.96043   -808.46281    134319.96   -40475.254     2848.703   -43323.957    57.508792    0.9298208 
   45600    232.02441   -985.68389    134316.61   -40477.712    2886.8248   -43364.537    57.617579   0.92984395 
   45700     231.5672    -1007.979    134322.26   -40492.156    2881.1362   -43373.292    57.728607   0.92980484 
   45800    232.20946   -877.67677    134558.38   -40443.821    2889.1272   -43332.948    58.337839   0.92817329 
   45900    234.86097   -912.40191    134410.77    -40386.68     2922.117   -43308.797    58.302979   0.92919258 
   46000    233.72254   -1092.3388    134195.78    -40375.66    2907.9527   -43283.613    58.472924   0.93068121 
   46100    233.00238   -898.64616    134078.15    -40331.12    2898.9925   -43230.113    58.806932    0.9314977 
   46200    238.83345   -858.57019    134126.04   -40323.989    2971.5422   -43295.531    58.706176   0.93116514 
   46300    235.02087   -747.85997    134167.97     -40350.3    2924.1064   -43274.406    58.828306   0.93087411 
   46400    232.72103   -952.55836    134171.72   -40385.232     2895.492   -43280.724    58.786414   0.93084807 
   46500    233.87258    -854.1602    134172.62   -40401.339    2909.8195   -43311.159     58.92753   0.93084185 
   46600    234.51479   -947.70424    134085.41   -40399.455    2917.8099   -43317.265    59.063033    0.9314473 
   46700    227.71428   -824.93013     134138.8     -40490.4    2833.1986   -43323.599     59.24413   0.93107652 
   46800    225.75275   -807.62896    134172.49   -40534.324    2808.7933   -43343.117    59.395405   0.93084276 
   46900    233.69022   -916.49884    134407.57   -40454.822    2907.5506   -43362.373    59.624627    0.9292147 
   47000    234.40614   -865.97863     134382.5   -40455.624     2916.458   -43372.082    59.790814   0.92938803 
   47100     234.2624   -907.45251     134543.1   -40441.386    2914.6696   -43356.056     60.40984   0.92827865 
   47200    231.68512   -857.30602     134551.7   -40482.856    2882.6034   -43365.459    60.455635   0.92821935 
   47300    226.84627   -946.17299    134359.61   -40499.362    2822.3989   -43321.761    60.336543   0.92954642 
   47400    232.38914   -1062.7837    134271.24   -40460.592    2891.3627   -43351.955    60.132487    0.9301582 
   47500    233.49468    -996.4492    134352.06   -40405.857    2905.1178   -43310.975    60.295147   0.92959863 
   47600    233.85445   -1020.6859    134442.62   -40369.365    2909.5939   -43278.959     60.51414   0.92897244 
   47700    231.68654   -803.89959    134207.84   -40414.927     2882.621   -43297.548    60.931257   0.93059759 
   47800    232.33998    -1071.708    134202.08   -40430.107    2890.7511   -43320.858    61.005219   0.93063752 
   47900    229.87244   -932.75094    134005.31    -40514.68    2860.0502    -43374.73    60.989627   0.93200403 
   48000    229.03706   -919.41042       134062   -40535.629    2849.6565   -43385.286    60.845674   0.93160994 
   48100    227.61204   -830.66348    134169.68   -40511.243    2831.9265    -43343.17    61.017249   0.93086222 
   48200    228.20433   -816.74209       134158   -40551.145    2839.2957   -43390.441    60.867144   0.93094331 
   48300    229.98769    -849.3702     134356.4    -40524.11    2861.4841   -43385.594    61.287555   0.92956857 
   48400    228.84902   -970.08011    134545.07    -40426.01    2847.3169   -43273.327    61.144986    0.9282651 
   48500    231.15242   -909.38318    134454.46   -40501.887    2875.9756   -43377.863    61.435786   0.92889064 
   48600    229.24881    -904.7185    134319.72   -40515.665    2852.2911   -43367.956    61.439322   0.92982247 
   48700    235.00305    -782.3393    134478.47   -40472.401    2923.8847   -43396.285    61.686346   0.92872482 
   48800    230.85259   -921.88262    134135.58   -40510.559    2872.2451   -43382.804    61.529166   0.93109893 
   48900    229.71398   -887.24489    134360.01   -40489.939    2858.0787   -43348.017    61.771335   0.92954366 
   49000    233.45673   -982.24399    134288.05   -40524.764    2904.6455   -43429.409    61.893672   0.93004172 
   49100    230.78261   -895.59205    134258.14   -40537.787    2871.3744   -43409.161     61.81344   0.93024891 
   49200    228.50694   -725.24981     134148.2   -40553.874    2843.0608   -43396.935    61.917328   0.93101134 
   49300    236.86127      -820.01    134453.21   -40505.105    2947.0046    -43452.11    62.295424   0.92889932 
   49400    228.51941   -1102.0793     134363.6   -40492.108    2843.2159   -43335.323    62.332852   0.92951877 
   49500    234.21764    -993.0054    134187.63   -40514.495    2914.1127   -43428.608    61.914376   0.93073777 
   49600    228.29176   -984.77711    134240.72   -40519.595    2840.3836   -43359.978    61.910631   0.93036962 
   49700    229.73842   -921.98093    134144.19     -40534.4    2858.3827   -43392.783    61.894378   0.93103911 
   49800    230.21371   -901.33342    134185.58   -40581.746    2864.2962   -43446.042    62.161269   0.93075193 
   49900    232.28951   -902.48749    134131.51   -40463.196    2890.1231   -43353.319    62.574197   0.93112717 
   50000    234.10975    -845.7117    134147.84   -40494.059    2912.7703   -43406.829    62.408078   0.93101383 
   50100    230.70435   -959.37597    134033.15   -40505.747    2870.4007   -43376.148    62.481083   0.93181049 
   50200    229.67014   -892.14206    134053.06   -40550.525    2857.5332   -43408.058    62.583911   0.93167208 
   50300    231.95811   -1004.2956    133792.25   -40540.235    2885.9999   -43426.235    62.683614   0.93348821 
   50400    229.98683   -874.37572    133843.67   -40562.883    2861.4734   -43424.356     62.95593   0.93312963 
   50500    231.06483   -936.64499    133726.17   -40610.587    2874.8858   -43485.473    62.662393   0.93394948 
   50600    222.23511   -872.60503    133623.78   -40624.721    2765.0273   -43389.749    62.798968   0.93466516 
   50700     223.6001   -1013.4969    133654.53   -40623.124    2782.0103   -43405.134    62.759435   0.93445013 
   50800    225.95084   -933.54125     133683.7   -40602.524     2811.258   -43413.782    62.909845   0.93424621 
   50900    231.42872   -950.40978    133691.64   -40515.857    2879.4132    -43395.27    63.169482   0.93419076 
   51000    228.58991    -704.4315    133536.48   -40550.644    2844.0931   -43394.737    63.191699   0.93527619 
   51100     229.2355   -772.67255    133833.59   -40587.089    2852.1254   -43439.215    63.361388   0.93319992 
   51200    229.91575   -991.55824    133969.32   -40569.382     2860.589   -43429.971    63.326565   0.93225444 
   51300    226.95512   -1101.2845     133789.3   -40639.089    2823.7532   -43462.842    63.289284   0.93350883 
   51400     223.8678   -831.43101    133701.63   -40629.348     2785.341   -43414.689    63.406478   0.93412095 
   51500    224.35716   -1000.9123    133768.84   -40624.583    2791.4296   -43416.013    63.395272   0.93365157 
   51600    229.51234    -894.3472    133839.98   -40564.919    2855.5698   -43420.489    63.570174   0.93315533 
   51700    229.92959   -948.47342    133957.61   -40545.929    2860.7613    -43406.69    63.713721   0.93233593 
   51800     231.4397   -952.42682    133718.16   -40582.698    2879.5498   -43462.248    63.858093   0.93400546 
   51900      228.336   -1037.5936    133543.83   -40627.504    2840.9339   -43468.438     63.98941   0.93522473 
   52000    227.84289   -849.34769    133554.73   -40651.984    2834.7987   -43486.782    63.938707   0.93514839 
   52100    224.86085   -999.39679       133857   -40600.047    2797.6965   -43397.743    64.076002   0.93303666 
   52200    228.37295   -770.82636    133742.72   -40612.646    2841.3937    -43454.04    64.156129   0.93383392 
   52300     226.4283   -808.94013    133948.73   -40583.762    2817.1985   -43400.961     64.33529   0.93239773 
   52400    233.38289   -828.72309    134102.51   -40540.427    2903.7269   -43444.153    64.772737   0.93132854 
   52500    229.91371   -1096.0927    134157.58   -40537.489    2860.5636   -43398.053    64.645662   0.93094619 
   52600    225.61696   -934.54466    133945.07    -40569.37    2807.1039   -43376.474    64.724105   0.93242322 
   52700    227.00621   -717.46216    133783.13   -40594.569    2824.3888   -43418.958     64.65465   0.93355188 
   52800     229.3353   -847.07454     133831.8   -40538.444    2853.3672   -43391.811    64.654499   0.93321238 
   52900    231.17911   -902.48383    133856.89   -40533.398    2876.3076   -43409.705    64.950142   0.93303746 
   53000    227.22552   -1018.2492    134040.78   -40501.434    2827.1174   -43328.551    65.147132   0.93175742 
   53100    228.00159   -915.08395    133929.05   -40550.473    2836.7732   -43387.246    65.092197   0.93253471 
   53200    233.00816   -1016.4767    133926.34   -40543.179    2899.0645   -43442.243    65.290726   0.93255358 
   53300     231.9551   -1057.2287    133916.06   -40533.777    2885.9625    -43419.74     65.39247   0.93262519 
   53400    226.03203   -922.81923    133827.37   -40614.737    2812.2682   -43427.006    65.322802   0.93324328 
   53500    223.81694   -697.83212    133905.54   -40616.203    2784.7082   -43400.911    65.637327   0.93269843 
   53600    225.00284   -883.02156    134018.76   -40606.638    2799.4631   -43406.101    65.736116   0.93191052 
   53700    228.72851   -745.86294    134152.49   -40634.829    2845.8176   -43480.647    65.917932   0.93098151 
   53800    227.25809   -944.60016    134308.29   -40526.767    2827.5226    -43354.29    65.935686   0.92990156 
   53900    231.86386   -780.85502    134205.23   -40577.941    2884.8273   -43462.768    66.111163   0.93061565 
   54000    229.70746   -841.08017    134397.89   -40538.832    2857.9975    -43396.83     66.29841   0.92928163 
   54100    228.77974   -1062.9448    134508.75   -40568.236     2846.455   -43414.691    66.396077   0.92851572 
   54200    228.49002   -921.80078    134235.42   -40552.538    2842.8502   -43395.388    66.403189   0.93040639 
   54300    229.64977   -994.78624    134286.58   -40513.498    2857.2797   -43370.777    66.752631   0.93005195 
   54400    227.13954   -873.92923    134101.27   -40537.795    2826.0477   -43363.843     66.82422    0.9313371 
   54500     228.1186   -930.76879    134108.13   -40514.144    2838.2291   -43352.373    66.807388   0.93128948 
   54600    237.05209   -847.31778    134023.32   -40421.179    2949.3787   -43370.557    66.711013   0.93187877 
   54700    230.85874   -830.45542    134039.21   -40430.432    2872.3216   -43302.754    67.107063    0.9317683 
   54800    230.47143   -815.51755    133860.76   -40494.362    2867.5027   -43361.865    66.880522   0.93301046 
   54900     228.0022    -957.3643    133758.03    -40539.52    2836.7808   -43376.301    66.800401   0.93372704 
   55000    228.15675   -981.20049    133683.24   -40598.426    2838.7037    -43437.13    66.812397   0.93424946 
   55100    228.70135   -1041.6563    133718.47   -40560.901    2845.4795    -43406.38    66.962929   0.93400332 
   55200    228.47218   -871.49049    133696.33   -40561.055    2842.6283   -43403.684    67.229018   0.93415798 
   55300    230.11782   -1063.9487     133657.6   -40514.712    2863.1031   -43377.815    67.374839   0.93442865 
   55400    226.47346   -808.18024    133678.24   -40493.118    2817.7604   -43310.878    67.411188   0.93428437 
   55500     234.1402   -937.03259    133756.24   -40438.201    2913.1492    -43351.35    67.595978   0.93373958 
   55600    228.90453   -752.35196    133971.63   -40473.307    2848.0075   -43321.314    67.646104   0.93223835 
   55700    231.73417   -897.11005     133886.2   -40462.108    2883.2136   -43345.321    67.519513   0.93283322 
   55800    234.84469   -867.10542    133787.93   -40463.592    2921.9144   -43385.506    67.537206   0.93351841 
   55900    230.89976   -913.33818    133796.85   -40439.712     2872.832   -43312.544     67.79282   0.93345616 
   56000    234.60673   -917.51567    133815.59   -40429.785    2918.9538   -43348.739    68.183879   0.93332539 
   56100    232.50133   -891.52876     133897.7    -40404.84    2892.7585   -43297.598     68.47972   0.93275307 
   56200    232.20782   -916.40829     133975.8   -40386.425    2889.1067   -43275.531     68.77744   0.93220936 
   56300    236.58203   -995.43533    133975.78   -40439.068    2943.5303   -43382.598    68.911538   0.93220944 
   56400    234.63786   -934.97371    133894.31   -40444.283     2919.341   -43363.624    68.827038   0.93277666 
   56500    230.50087   -1038.3604    133943.35    -40539.07     2867.869   -43406.939    68.844293   0.93243516 
   56600     224.3032   -723.45201    134036.96   -40544.193    2790.7582   -43334.951    69.162956   0.93178401 
   56700    229.01438   -834.26789    133738.03   -40593.069    2849.3742   -43442.443     69.21805   0.93386666 
   56800    233.76019   -1045.1214    133886.61   -40531.691    2908.4212   -43440.112    69.031035   0.93283036 
   56900    228.33098   -895.21401    133773.74   -40520.456    2840.8715   -43361.328    68.879272   0.93361742 
   57000    231.76745   -970.55712    133804.37   -40461.394    2883.6277   -43345.021    68.991467   0.93340369 
   57100    225.74882   -1018.4844    133765.64   -40526.122    2808.7445   -43334.866    69.119831   0.93367392 
   57200     226.4283   -871.67449    133865.77   -40560.984    2817.1985   -43378.183    69.302963   0.93297555 
   57300    228.22001   -919.42964    133872.73   -40605.764    2839.4908   -43445.255    69.363901   0.93292704 
   57400    229.82948   -806.77855    133966.38    -40614.88    2859.5156   -43474.396     69.68478   0.93227491 
   57500    222.66692   -967.92014    133987.05   -40658.138    2770.3997   -43428.537    69.725357   0.93213105 
   57600    226.67774   -881.63247    134050.57   -40616.354    2820.3021   -43436.656    69.987307   0.93168938 
   57700    225.43102   -821.56465    134011.23   -40666.724    2804.7904   -43471.514    69.790916   0.93196289 
   57800    225.98407   -777.67814    133989.27   -40706.906    2811.6715   -43518.577    69.737752   0.93211565 
   57900    226.99139   -865.43145    133926.64   -40674.396    2824.2044   -43498.601    69.930099   0.93255151 
   58000    227.62528   -927.09677    133959.95   -40684.109    2832.0912     -43516.2    70.007517   0.93231964 
   58100    227.30561     -895.921    133779.78   -40614.044     2828.114   -43442.158    70.177604   0.93357526 
   58200    232.41883   -755.97307    133867.18   -40560.462    2891.7321   -43452.194    69.886475    0.9329657 
   58300    234.77756   -752.40502    133932.89   -40501.601    2921.0792    -43422.68    70.167619   0.93250802 
   58400    230.14424   -703.76354     133828.3   -40505.372    2863.4318   -43368.804    70.428501   0.93323675 
   58500    231.02684   -714.95695    133910.51   -40502.436    2874.4132   -43376.849    70.599281   0.93266386 
   58600    234.64337    -975.5202    134192.67   -40455.522    2919.4096   -43374.931    70.787654   0.93070277 
   58700     231.4592   -1020.5939    134281.07   -40465.239    2879.7925   -43345.031    70.847488   0.93009007 
   58800    226.59431     -886.795    134033.31   -40529.793    2819.2639   -43349.057     70.72697   0.93180936 
   58900    227.67584   -670.56822    134155.53   -40580.102    2832.7203   -43412.822    70.766674   0.93096042 
   59000    228.17649   -989.38867    134178.94   -40549.591    2838.9494   -43388.541    70.804031   0.93079804 
   59100    230.93518   -956.78367    133989.24   -40549.738    2873.2727    -43423.01    71.120127   0.93211586 
   59200    227.87192   -908.38673    134238.88   -40557.227    2835.1599   -43392.387    70.791896   0.93038242 
   59300    229.61709   -915.30856    134328.77   -40538.544    2856.8732   -43395.417    71.031258   0.92975979 
   59400    231.02795   -925.94352    134389.79   -40586.097     2874.427   -43460.524    71.125893   0.92933765 
   59500    232.85181   -930.94263    134289.55    -40577.09    2897.1192    -43474.21    71.284906   0.93003132 
   59600    232.57057   -898.88476    134384.94   -40577.412      2893.62   -43471.032    71.461112   0.92937117 
   59700    232.70918   -955.09574    134571.58   -40613.884    2895.3446   -43509.229    71.530742   0.92808224 
   59800    229.32188   -793.34409    134452.38   -40619.265    2853.2001   -43472.465    71.793448     0.928905 
   59900    229.79467    -1053.955    134495.67   -40587.494    2859.0826   -43446.577    72.118684   0.92860607 
   60000    230.15254   -981.37318    134585.04   -40635.349    2863.5351   -43498.884    71.856021   0.92798939 
   60100    228.96021   -977.13124    134394.99   -40594.431    2848.7004   -43443.131    71.753944   0.92930168 
   60200     233.6023   -966.45009    134277.23   -40580.301    2906.4567   -43486.758    71.845334   0.93011669 
   60300    230.45103   -875.29253    134254.22   -40542.723    2867.2489   -43409.972    71.665016   0.93027612 
   60400    232.48506    -1050.453    134449.23   -40489.298    2892.5561   -43381.854    72.154407   0.92892676 
   60500    230.38858   -913.65736    134494.32   -40528.488     2866.472    -43394.96    72.179743   0.92861534 
   60600    231.04043   -925.19576     134543.3    -40586.59    2874.5822   -43461.172    72.328171    0.9282773 
   60700    230.36494   -960.37564     134418.5    -40612.22    2866.1778   -43478.398    72.242359   0.92913917 
   60800    232.51033   -823.77161     134468.8   -40579.731    2892.8705   -43472.602    72.296356   0.92879158 
   60900    228.86967   -876.57176    134368.04   -40578.752    2847.5739   -43426.326     72.16016   0.92948807 
   61000    230.41821   -858.56085    134254.08    -40634.17    2866.8406   -43501.011    72.223547   0.93027708 
   61100    228.70237   -959.82462    134180.81   -40659.246    2845.4923   -43504.739    72.049849   0.93078508 
   61200     230.6218   -888.71604    134316.81   -40628.386    2869.3737    -43497.76    72.446292   0.92984257 
   61300    227.14394   -755.36837     134515.6   -40609.673    2826.1024   -43435.776    72.711251   0.92846847 
   61400    226.85676    -794.8493    134611.18   -40643.614    2822.5293   -43466.144    73.217872   0.92780917 
   61500     223.6705   -897.39867    134313.88   -40636.497    2782.8863   -43419.384    73.088608   0.92986285 
   61600    230.48408   -963.79384    134471.67   -40587.114    2867.6602   -43454.774    73.017106   0.92877175 
   61700    229.37506   -925.09352    134486.08    -40679.85    2853.8618   -43533.712    72.914745   0.92867226 
   61800      221.866   -1063.2681    134623.91   -40760.089    2760.4349   -43520.524    73.060925   0.92772148 
   61900    227.98333   -758.99759    134569.76   -40693.472     2836.546   -43530.018    73.225096   0.92809481 
   62000    229.94107   -975.80925     134498.9   -40655.861     2860.904   -43516.765    73.530764   0.92858377 
   62100    225.79505   -983.58676    134417.59    -40672.11    2809.3197    -43481.43    73.635592   0.92914547 
   62200    231.41752   -1036.9254    134465.29    -40615.29    2879.2739   -43494.564    73.666602   0.92881587 
   62300    230.64709    -938.7854    134189.34   -40644.843    2869.6883   -43514.531    73.725031    0.9307259 
   62400     229.2581   -900.39598    134121.59   -40572.877    2852.4067   -43425.283    73.713241   0.93119603 
   62500    229.78357   -995.46371    133995.15   -40587.559    2858.9444   -43446.503     73.91098   0.93207473 
   62600     229.2141   -894.83584    134060.35   -40589.877    2851.8592   -43441.736    74.168876   0.93162138 
   62700    226.93433   -907.32366    134059.02   -40613.355    2823.4945    -43436.85    74.122715   0.93163066 
   62800    231.11824   -677.87735    134208.66   -40590.488    2875.5502   -43466.039    74.221307   0.93059191 
   62900    231.00617   -1112.6306    134166.68   -40531.002     2874.156   -43405.158    74.263293   0.93088309 
   63000    231.34016   -1026.9416    134154.27    -40491.42    2878.3114   -43369.731    74.311292   0.93096917 
   63100    233.34928   -789.67731    134013.78    -40478.75    2903.3086   -43382.058    74.239701   0.93194511 
   63200    230.90295   -1006.0767    134022.64   -40508.083    2872.8716   -43380.954    74.432717   0.93188351 
   63300    233.87318   -903.69304    134109.17   -40537.519    2909.8269   -43447.346    74.720802   0.93128224 
   63400    232.46735   -1015.9008    134072.75    -40465.17    2892.3358   -43357.506    74.656377   0.93153523 
   63500    232.06288   -857.62145    134044.43   -40572.662    2887.3034   -43459.966    74.697526   0.93173203 
   63600    229.81599   -986.04329    134101.06   -40576.355    2859.3479   -43435.703    74.926202    0.9313386 
   63700    233.85498   -846.08273     133926.8   -40576.113    2909.6005   -43485.713    74.734056   0.93255042 
   63800    222.10667   -1022.6252    133926.28   -40671.615    2763.4292   -43435.044    74.761049   0.93255404 
   63900    227.59441   -880.63243    133921.46   -40666.344    2831.7071   -43498.051    74.778047   0.93258756 
   64000    227.16286   -955.42926    133999.66   -40662.725    2826.3379   -43489.063    74.913225   0.93204337 
   64100      232.591    -866.8423    134002.41   -40561.242    2893.8742   -43455.116    75.381438   0.93202423 
   64200    233.49439   -849.35212    134174.48   -40551.305    2905.1141   -43456.419    75.552218   0.93082892 
   64300    231.52075   -772.23959    134154.18   -40458.289    2880.5582   -43338.847    75.424883   0.93096981 
   64400    231.67763   -924.68893    134120.25   -40487.535    2882.5102   -43370.045    75.663267   0.93120533 
   64500    230.67021    -874.3164    134010.92   -40468.834    2869.9759    -43338.81     75.60684   0.93196502 
   64600    232.60733   -1039.6953    134029.58   -40510.095    2894.0774   -43404.172    75.757261   0.93183528 
   64700    228.60217   -960.94931    134070.35   -40517.867    2844.2456   -43362.112     75.94391   0.93155192 
   64800    226.72725   -817.78742    134169.38   -40531.513    2820.9181   -43352.431    76.001301   0.93086433 
   64900    225.01673   -780.98564    133962.12   -40520.505    2799.6359   -43320.141    76.264383   0.93230453 
   65000    230.16538   -858.02047    133944.36   -40489.706    2863.6949   -43353.401    76.068014   0.93242816 
   65100    232.01075   -926.33075    134186.23   -40516.764    2886.6549   -43403.419    76.079387   0.93074747 
   65200    233.13171   -914.06694    134205.97   -40511.388    2900.6017    -43411.99     76.08909   0.93061052 
   65300    232.08415     -909.016    134217.58   -40513.895     2887.568   -43401.463    76.288667   0.93053005 
   65400     232.1315   -928.10922    134113.98   -40450.596    2888.1572   -43338.753     76.24822   0.93124884 
   65500    225.96211    -934.8483    134210.76   -40515.896    2811.3983   -43327.295    76.399769   0.93057735 
   65600    231.41591   -923.70448    134361.78   -40549.874    2879.2539   -43429.128    76.941466   0.92953135 
   65700    231.38057   -945.75842    134390.06   -40593.668    2878.8141   -43472.482    76.612442   0.92933577 
   65800     231.6874   -951.19555    134374.47   -40605.898    2882.6317   -43488.529    76.706205   0.92944357 
   65900    230.24445   -816.64885    134493.16   -40574.042    2864.6786   -43438.721    76.965654   0.92862338 
   66000    230.80823   -801.24403    134578.32   -40475.783    2871.6932   -43347.476    77.246001   0.92803572 
   66100    234.81932   -980.66768    134501.37   -40432.924    2921.5987   -43354.522    77.199342   0.92856668 
   66200    233.99289   -994.74668    134252.23   -40401.447    2911.3164   -43312.764    77.324794   0.93028988 
   66300    231.70917   -1010.0089    134430.81   -40434.287    2882.9026    -43317.19    77.315135   0.92905409 
   66400    231.28945    -812.9505    134232.82   -40479.013    2877.6805   -43356.694    77.425633   0.93042438 
   66500    226.96875   -887.62796    134169.74   -40492.621    2823.9228   -43316.544    77.331248   0.93086182 
   66600    229.31455   -827.98538    134185.65   -40515.225     2853.109   -43368.334    77.441909   0.93075149 
   66700    228.34531   -829.86864    134210.43   -40534.646    2841.0498   -43375.696    77.504934   0.93057961 
   66800    234.59674    -1057.987    134160.84   -40476.506    2918.8294   -43395.335    77.658993   0.93092363 
[...]
   84600    226.33562   -949.61975       133970   -40654.616    2816.0454   -43470.662    91.060579   0.93224967 
   84700    225.48919   -811.41377    134049.91   -40650.919    2805.5143   -43456.433    91.082336   0.93169398 
   84800    228.91908    -998.4572    133928.91   -40613.287    2848.1886   -43461.475    91.031608   0.93253571 
   84900    228.24794   -787.18091    134082.69   -40591.436    2839.8383   -43431.275    91.294971   0.93146615 
   85000    234.08979   -933.81099    134215.23   -40540.924    2912.5221   -43453.446     91.58399   0.93054636 
   85100     231.5158   -931.78226    134132.25   -40553.736    2880.4967   -43434.233    91.630848   0.93112199 
   85200    233.41779   -813.38458     134246.3   -40572.487    2904.1611   -43476.648    91.563461   0.93033095 
   85300    231.79236   -1009.0744     134383.9   -40624.818    2883.9376   -43508.756    91.748979   0.92937835 
   85400    229.10328   -782.11821    134396.01    -40600.89    2850.4804   -43451.371    91.824818   0.92929461 
   85500    226.16905   -934.84298    134386.71   -40553.982     2813.973   -43367.955    91.840978   0.92935896 
   85600     229.5971   -800.96548    134395.56   -40515.331    2856.6244   -43371.955    91.802461   0.92929778 
   85700     225.9012   -979.82901    134437.06   -40516.287    2810.6404   -43326.928    92.069292    0.9290109 
   85800    228.92753   -1014.9743    134480.02   -40501.826    2848.2937    -43350.12    92.113855   0.92871407 
   85900    231.18157   -873.76793    134398.12   -40395.687    2876.3383   -43272.025    92.314619   0.92928006 
   86000    229.88074   -1022.6859    134127.23   -40458.539    2860.1534   -43318.692    92.322326   0.93115688 
   86100    231.81935   -891.77992    134080.62   -40432.217    2884.2734    -43316.49    92.487625   0.93148059 
   86200    231.00287   -913.03014    134313.76   -40402.764    2874.1149   -43276.879    92.728885   0.92986368 
   86300    230.51948   -1010.8603    134008.98    -40448.13    2868.1006    -43316.23    92.600081   0.93197855 
   86400    230.45904    -837.0026     133997.6   -40449.091    2867.3486   -43316.439    92.559154    0.9320577 
   86500    229.19407   -908.77717    133977.78   -40421.913    2851.6099   -43273.523    92.603379   0.93219558 
   86600    235.18846   -1128.4326    133956.83   -40360.885    2926.1916   -43287.076    92.819087   0.93234138 
   86700    227.60582   -945.65312    133628.61   -40335.891    2831.8491    -43167.74    93.143517   0.93463137 
   86800    231.29357   -880.62434    133702.34   -40401.882    2877.7317   -43279.614    92.925403     0.934116 
   86900    233.78046   -890.74962    133922.06   -40371.312    2908.6734   -43279.985    92.772558   0.93258342 
   87000      230.621   -705.35079    133891.18   -40387.781    2869.3637   -43257.145    93.013297   0.93279848 
   87100    228.68484   -1086.5547    134038.39   -40438.073    2845.2742   -43283.347    93.314171   0.93177403 
   87200    232.39472   -903.46007    133944.08   -40442.769    2891.4321   -43334.201    93.395181    0.9324301 
   87300    226.28646   -927.16625    133818.93   -40461.351    2815.4337   -43276.785    93.457377   0.93330214 
   87400    232.79731   -909.44219    133895.58   -40478.429    2896.4411    -43374.87    93.830629   0.93276786 
   87500    227.05379   -974.97705    133757.19   -40479.632    2824.9808   -43304.613    93.918364   0.93373294 
   87600    229.04733   -1117.3316    133733.94   -40478.987    2849.7843   -43328.772    93.845035   0.93389523 
   87700    229.03744   -811.25369    133544.88   -40485.154    2849.6612   -43334.815    94.201054   0.93521734 
   87800    234.13825   -969.31056    133544.07   -40462.788     2913.125   -43375.913    94.226328   0.93522302 
   87900    227.41326   -790.65974    133631.43    -40463.16    2829.4534   -43292.614    94.067115   0.93461166 
   88000    228.68502   -944.59949    133811.54   -40481.676    2845.2764   -43326.953    94.184593   0.93335365 
   88100    228.48886   -885.43353    133707.03   -40421.716    2842.8358   -43264.552    94.300778    0.9340832 
   88200    233.08983   -926.28298    133647.46   -40395.459    2900.0806   -43295.539    94.461521   0.93449954 
   88300    233.09848   -897.60898    133670.28   -40425.254    2900.1883   -43325.443    94.334472   0.93434004 
   88400    226.48173    -900.3903     133645.1   -40533.981    2817.8633   -43351.844    94.915981   0.93451605 
   88500    235.71927   -846.85766    133844.92   -40438.527    2932.7959   -43371.323    95.109736   0.93312087 
   88600    231.32848   -875.23339    133779.25   -40390.336    2878.1661   -43268.502    95.316022   0.93357892 
   88700    233.13847   -904.01043    133729.34   -40370.884    2900.6858    -43271.57    95.167074   0.93392734 
   88800    233.49885   -1016.2398    133665.02   -40296.788    2905.1696   -43201.957    95.192938   0.93437675 
   88900    232.20636   -950.72286    133817.07   -40346.604    2889.0886   -43235.692    95.212739   0.93331508 
   89000     233.5086   -841.42041    133876.35    -40324.03    2905.2909   -43229.321    95.464637   0.93290179 
   89100    229.73097   -769.09358    134086.62   -40415.285    2858.2901   -43273.575    95.614758   0.93143888 
   89200     229.0055   -1001.6297    133996.24   -40460.059    2849.2637   -43309.323    95.919542   0.93206712 
   89300     231.9993   -614.70701    134263.64   -40470.591    2886.5124   -43357.103    96.114966   0.93021082 
   89400     228.9567   -913.80404    134368.97   -40501.191    2848.6567   -43349.848    96.435188   0.92948168 
   89500    226.97562   -778.70385    134336.08   -40552.249    2824.0083   -43376.257    96.495297   0.92970923 
   89600    224.96346   -1059.0404    134181.95   -40606.315    2798.9731   -43405.289    96.356111   0.93077714 
   89700      225.562   -849.07499    134023.77   -40583.174    2806.4201   -43389.594    96.360806   0.93187567 
   89800    227.28966   -931.76582    133959.54   -40535.345    2827.9155    -43363.26    96.731792   0.93232249 
   89900     224.7871   -886.43119     133829.4   -40592.984    2796.7789   -43389.763    96.641416   0.93322907 
   90000    227.61412   -991.37012    133849.77   -40510.583    2831.9523   -43342.536    96.842273   0.93308707 
   90100    226.74956   -756.86466    133975.45   -40522.907    2821.1956   -43344.103    96.740804   0.93221179 
   90200    223.63214   -833.73313    134013.49   -40566.349     2782.409   -43348.758    96.868569   0.93194718 
   90300    227.56673   -787.30039    134128.45   -40562.743    2831.3628   -43394.106    97.057783   0.93114842 
   90400    228.33028    -1015.064    134231.66   -40558.261    2840.8627   -43399.124    97.178225   0.93043243 
   90500    226.66368   -1030.3042    134150.08   -40521.346    2820.1271   -43341.473    97.425955   0.93099828 
   90600    230.58973   -968.76981    134026.89   -40420.792    2868.9746   -43289.767    97.425286   0.93185399 
   90700    232.43163   -1028.1251     134169.4   -40427.331    2891.8914   -43319.223    97.571163   0.93086421 
   90800    227.95766    -794.4016    134154.17   -40466.365    2836.2267   -43302.592    97.718515   0.93096984 
   90900    228.55665   -807.96499    134235.19   -40574.284    2843.6793   -43417.963    97.697001   0.93040796 
   91000     226.6462   -935.02836    134410.32   -40608.573    2819.9097   -43428.483    97.800064   0.92919573 
   91100    226.65617   -705.89132     134503.7   -40608.603    2820.0337   -43428.637    98.294922   0.92855063 
   91200    231.80195   -852.50638    134500.46   -40576.398     2884.057   -43460.455    98.150022   0.92857295 
   91300    232.35786   -1036.6058    134581.79   -40475.442    2890.9735   -43366.415     98.55622   0.92801183 
   91400    235.57496   -787.72729    134482.63   -40452.335    2931.0004   -43383.335     98.29309    0.9286961 
   91500    233.28159   -891.26127    134322.04   -40470.181    2902.4665   -43372.647    98.166646   0.92980638 
   91600    230.71264   -865.37106    134218.05   -40519.967    2870.5039   -43390.471    98.245736   0.93052676 
   91700    227.63909   -952.16861    134395.85   -40587.291    2832.2631   -43419.554     98.57441   0.92929571 
   91800    230.21545   -871.09834    134234.67   -40548.241    2864.3179   -43412.559    98.611596   0.93041158 
   91900    227.43035   -867.67008    134348.05   -40555.961     2829.666   -43385.627     98.85971   0.92962641 
   92000    230.81958    -805.5353    134452.84   -40580.152    2871.8344   -43451.986    98.909219   0.92890187 
   92100    226.77508   -738.69302    134457.85   -40639.612    2821.5132   -43461.125    99.024776    0.9288672 
   92200     226.6044   -903.73527     134601.2   -40568.195    2819.3895   -43387.584    99.029167     0.927878 
   92300    231.35073   -1004.1293    134778.06   -40472.786    2878.4429   -43351.229    99.094552    0.9266604 
   92400    234.88989   -918.38682    134632.79   -40479.201    2922.4768   -43401.677    99.033456   0.92766025 
   92500    230.85644   -895.80914    134572.24   -40534.523     2872.293   -43406.816    99.080127   0.92807767 
   92600    234.84806   -853.56614    134756.48   -40529.882    2921.9563   -43451.838    99.413553   0.92680881 
   92700    232.68188   -790.33848     134763.3   -40531.615     2895.005    -43426.62    99.518417   0.92676189 
   92800    228.35703   -1026.8446    134802.31   -40583.533    2841.1956   -43424.729    99.739436   0.92649371 
   92900    232.18122    -951.3854    134699.36   -40553.899    2888.7757   -43442.674    99.514088   0.92720179 
   93000    228.78585   -987.34514    134284.56   -40599.075    2846.5309   -43445.606    99.412895   0.93006593 
   93100    231.84071   -980.33336    134378.26   -40523.634    2884.5392   -43408.173    99.207634    0.9294174 
   93200    234.64679   -868.97474    134343.23   -40538.152    2919.4522   -43457.604    99.351437   0.92965972 
   93300    231.97868   -1056.6564    134231.87   -40554.142    2886.2558   -43440.398    99.471051   0.93043098 
   93400    228.14745   -743.38079    134321.51   -40577.337     2838.588   -43415.925    99.774845   0.92981004 
   93500    229.65074   -983.30077    134340.42   -40612.469    2857.2918    -43469.76    99.702397   0.92967916 
   93600    222.96547   -835.37298    134487.12   -40663.355    2774.1143   -43437.469    99.715206    0.9286651 
   93700    227.85755   -911.41711    134578.08   -40622.468    2834.9811   -43457.449     99.91347   0.92803738 
   93800    230.09852    -977.3846    134508.95   -40589.216    2862.8631   -43452.079    100.17747   0.92851438 
   93900    227.74912   -1042.5336    134505.58   -40564.597     2833.632   -43398.229    100.29953   0.92853762 
   94000    227.71701    -993.7547    134528.06   -40554.726    2833.2325   -43387.958    100.51611   0.92838243 
   94100    227.44757   -900.08779    134563.69   -40546.646    2829.8801   -43376.526    100.34125   0.92813665 
   94200    226.31733   -819.55852    134455.24   -40544.101    2815.8179   -43359.919    100.15538   0.92888528 
   94300    228.50561   -823.92637    134355.66   -40488.971    2843.0442   -43332.015    100.23619   0.92957374 
   94400    230.74404   -958.09529    134611.72   -40478.347    2870.8945   -43349.242    100.25293    0.9278055 
   94500    233.46695   -949.17045    134567.32   -40410.326    2904.7728   -43315.098    100.57383   0.92811158 
   94600    231.89962   -755.93575    134633.17   -40456.705    2885.2721   -43341.977    100.79354   0.92765764 
   94700    226.47366   -597.21182    134741.78   -40500.639    2817.7628   -43318.401    100.83432   0.92690994 
   94800    230.06751   -1062.8254     134881.8   -40495.315    2862.4773   -43357.792    100.79614   0.92594768 
   94900     232.9242   -836.89167     134646.3   -40471.696    2898.0198   -43369.715    100.80961   0.92756723 
   95000    232.88591   -800.83192    134835.76   -40460.216    2897.5434    -43357.76    100.83068   0.92626389 
   95100    231.09471   -925.34752    134683.61    -40450.65    2875.2576   -43325.907    100.91955   0.92731027 
   95200    231.56278   -834.55212    134540.63   -40486.316    2881.0813   -43367.397     100.8278   0.92829574 
   95300    232.43044   -829.37362    134670.24   -40377.267    2891.8765   -43269.143    101.16992   0.92740229 
   95400    233.25723    -918.8122    134736.49   -40442.412    2902.1634   -43344.575    101.19154   0.92694627 
   95500    232.30654   -1002.9206     134593.8   -40451.191     2890.335   -43341.526    101.19232   0.92792904 
   95600    230.42959   -874.89228     134832.9   -40420.492    2866.9821   -43287.474    101.38182   0.92628353 
   95700    230.90126    -1139.922    134616.43   -40488.461    2872.8506   -43361.311    101.40132   0.92777298 
   95800    229.84031   -969.95383    134557.99     -40543.9    2859.6504    -43403.55    101.76423   0.92817597 
   95900    230.73539   -786.76765    134330.05   -40496.786    2870.7869   -43367.573    101.86372   0.92975092 
   96000    227.37368    -876.1013    134357.42   -40591.308    2828.9608   -43420.269    101.61382   0.92956154 
   96100    228.76746   -812.94623    134259.94   -40539.333    2846.3021   -43385.635    101.67637   0.93023646 
   96200    228.99414   -738.89372    134431.23    -40579.98    2849.1225   -43429.102    101.68395   0.92905115 
   96300    230.14538   -887.29425    134534.45   -40529.888    2863.4461   -43393.334    102.03152   0.92833833 
   96400    229.23183   -872.91858    134558.93   -40513.629    2852.0798   -43365.709    102.19741   0.92816949 
   96500    228.56465    -751.5762    134697.02   -40537.138    2843.7788   -43380.917    102.40546   0.92721791 
   96600    229.92233   -983.79277    134598.64   -40539.942    2860.6709   -43400.613    102.29015   0.92789566 
   96700    227.08562   -964.00229    134559.12   -40617.245    2825.3768   -43442.622    102.38713   0.92816814 
   96800    223.67329   -976.35803    134455.12   -40669.536    2782.9209   -43452.457    102.60489   0.92888611 
   96900    224.01748   -941.26857    134199.52   -40610.451    2787.2034   -43397.654    102.26943   0.93065524 
   97000    226.92674   -883.40576    134108.14   -40603.207       2823.4   -43426.607      102.282   0.93128943 
   97100    226.41324     -808.778    134201.94    -40582.72    2817.0112   -43399.731    102.25842   0.93063848 
   97200    224.24188   -949.18561    134190.19   -40581.995    2789.9953    -43371.99    102.29441   0.93072001 
   97300    224.96526   -925.89273    134177.28   -40573.935    2798.9956   -43372.931      102.423   0.93080955 
   97400    228.06982   -1064.2496    134166.67   -40588.006    2837.6221   -43425.628    102.40742   0.93088316 
   97500    231.21138   -813.72789    134270.63   -40500.185    2876.7091   -43376.894    102.27051   0.93016238 
   97600    230.89592   -893.22066    134309.13   -40583.472    2872.7842   -43456.256    102.05114   0.92989575 
   97700    232.75079   -990.15898    134323.89   -40520.507    2895.8623   -43416.369    102.47926   0.92979361 
   97800    227.70604    -862.4499    134399.53    -40501.29    2833.0961   -43334.386    102.71198    0.9292703 
   97900    229.76849   -877.09929    134348.26   -40462.436    2858.7569   -43321.192    102.51266   0.92962495 
   98000    234.82978   -779.30633    134456.94   -40484.307     2921.729   -43406.036    102.73061   0.92887349 
   98100    232.05421   -1014.5707    134344.28   -40551.335    2887.1956   -43438.531    102.52658   0.92965245 
   98200    229.35405   -856.61756     134119.5   -40538.065    2853.6005   -43391.665    102.43279   0.93121056 
   98300      231.939   -1012.6538    134077.59   -40564.056    2885.7622   -43449.818    102.47314   0.93150163 
   98400    229.01677    -958.2177    134008.02   -40575.444     2849.404   -43424.848    102.68753   0.93198521 
   98500    227.18766   -861.40363    133883.25   -40581.408    2826.6464   -43408.055    102.59409   0.93285375 
   98600    227.04333   -958.05733    133775.78   -40599.727    2824.8507   -43424.578    102.72552   0.93360313 
   98700    224.68923   -998.16093    133707.36   -40654.373    2795.5612   -43449.934    102.75116    0.9340809 
   98800    228.42105   -869.57496    133677.36   -40613.589    2841.9922   -43455.581    102.66119   0.93429052 
   98900    227.58171   -859.73579    133778.37   -40611.695    2831.5491   -43443.244    103.09324   0.93358512 
   99000     225.2366   -819.33784    133819.97    -40655.31    2802.3715   -43457.682    103.28703   0.93329487 
   99100    226.83091   -800.08636    134032.66   -40576.516    2822.2077   -43398.724    103.58049   0.93181389 
   99200    227.31574   -890.67773    134101.04   -40573.395      2828.24   -43401.635     103.3647   0.93133872 
   99300    229.71278   -865.02187    134011.21   -40524.621    2858.0637   -43382.684    103.47751   0.93196302 
   99400    233.11485   -891.74792    134112.36   -40497.386    2900.3919   -43397.778    103.96107    0.9312601 
   99500    239.38707   -886.61573    134011.84   -40380.246    2978.4303   -43358.676    104.11797   0.93195862 
   99600    233.26524    -738.5434    134049.79   -40411.287     2902.263    -43313.55    104.16307   0.93169482 
   99700    234.05947   -864.33865    134258.81   -40416.769    2912.1448   -43328.913    104.16557   0.93024431 
   99800    229.62756   -856.24329    134105.71   -40445.488    2857.0034   -43302.491    104.44498   0.93130629 
   99900    230.58635   -870.13326    134216.76   -40506.456    2868.9326   -43375.389    104.56191   0.93053576 
  100000    233.09431   -771.12796    134324.68   -40527.977    2900.1363   -43428.114    104.73816    0.9297881 
  100100    231.83438   -939.30662    134349.03   -40461.553    2884.4604   -43346.013    104.91984   0.92961957 
  100200    237.02531   -888.16008    134261.62    -40483.05    2949.0455   -43432.095    105.01572   0.93022485 
  100300    235.15023   -984.82011    134448.65   -40465.998    2925.7159   -43391.714    104.94271   0.92893076 
  100400    231.40934   -1026.0206    134379.57   -40508.174    2879.1722   -43387.346    105.03708   0.92940835 
  100500     237.3814   -963.09663    134344.79   -40435.849     2953.476   -43389.325    105.33558   0.92964896 
  100600    225.78985   -850.31643       134046   -40532.163    2809.2549   -43341.418    105.47135   0.93172113 
  100630    232.28766   -812.95721    134078.81   -40515.324       2890.1   -43405.424    105.58902   0.93149311 
Loop time of 86.5288 on 6 procs for 100000 steps with 4175 atoms

Performance: 499.256 ns/day, 0.048 hours/ns, 1155.685 timesteps/s
98.5% CPU use with 6 MPI tasks x no OpenMP threads

MPI task timing breakdown:
Section |  min time  |  avg time  |  max time  |%varavg| %total
---------------------------------------------------------------
Pair    | 63.563     | 64.695     | 65.704     |   9.4 | 74.77
Neigh   | 5.2736     | 5.2911     | 5.3292     |   0.9 |  6.11
Comm    | 12.512     | 13.551     | 14.683     |  20.7 | 15.66
Output  | 0.17576    | 0.17713    | 0.18308    |   0.6 |  0.20
Modify  | 2.0435     | 2.0664     | 2.0821     |   1.0 |  2.39
Other   |            | 0.7478     |            |       |  0.86

Nlocal:        695.833 ave         703 max         684 min
Histogram: 1 0 0 0 1 1 0 1 0 2
Nghost:        1459.00 ave        1478 max        1431 min
Histogram: 1 0 0 1 1 0 0 1 0 2
Neighs:        0.00000 ave           0 max           0 min
Histogram: 6 0 0 0 0 0 0 0 0 0
FullNghs:      18882.3 ave       19115 max       18376 min
Histogram: 1 0 0 0 0 1 0 1 1 2

Total # of neighbors = 113294
Ave neighs/atom = 27.136287
Neighbor list builds = 5713
Dangerous builds = 0

undump              1
unfix               2
unfix               3
unfix               4


################################################
#######         Run Simulation         #########
################################################

reset_timestep      0
log                 log.run_${NAME}
log                 log.run_liquid_density_MLmW
