LAMMPS data file via write_data, version 29 Oct 2020, timestep = 800000

4175 atoms
1 atom types

-0.306460454823128 50.30646045482136 xlo xhi
-0.306460454823128 50.30646045482136 ylo yhi
-0.306460454823128 50.30646045482136 zlo zhi

Masses

1 18.015

Atoms # atomic

1930 1 36.606018005691325 22.609518007095907 0.41670913480537 0 0 1
2856 1 3.121427254009831 2.515985095302821 3.451663519447731 0 1 1
1262 1 7.866783373096572 3.057482365824852 2.7680934961028667 0 0 0
1371 1 1.537250482160796 6.079473386836053 1.6743971595446936 0 0 1
726 1 19.175715601127543 14.275594101006945 0.7215342234668625 -1 0 1
3162 1 48.52718818253439 9.731558249532524 1.0642854189528037 -1 1 0
59 1 16.998389049566857 0.41792502427330225 1.5255350160529138 0 1 -1
1848 1 26.48010289752358 24.2122845258486 10.267725297334115 0 -1 0
3974 1 35.31394467753317 0.46400577826300293 13.210541319067508 0 1 0
2233 1 14.911966830943552 2.155757349172964 0.5609234402494586 0 1 0
391 1 29.193610587443615 0.3113418047109837 1.5466666371273743 0 0 0
2602 1 30.841060008237164 3.5622357104785984 1.7246184593274028 0 0 0
4151 1 41.66201726933514 7.503915617060669 16.17237537285252 -1 1 1
3310 1 33.52347186180505 23.916094450593803 2.7419948531528613 0 0 1
3831 1 31.048198683048277 -0.19400429440401204 16.229213703292128 0 1 1
1707 1 40.02681560500727 1.6394198122166521 3.3595719475093726 0 0 1
3314 1 42.999523880467876 0.021403603664637838 1.8407394958122398 -1 1 1
2928 1 46.742763476478615 2.188370677203175 2.3080995943324267 -2 0 0
111 1 47.959250360664555 2.2704791223967282 5.1743238434345615 -1 0 -1
3719 1 0.7734639105476773 3.552465922778018 2.2808874475877423 1 1 1
487 1 27.269401109426425 4.76002362092501 -0.22940784560252836 0 0 0
1193 1 5.595878064817966 3.8249139669195173 4.213957712757159 1 1 1
3907 1 12.299802808628055 1.7146412256731396 1.2247228214732933 -1 1 1
554 1 15.305224275170236 4.58978964918165 2.1777690555539007 0 1 0
2132 1 18.79671295490678 4.392542652772275 1.3550340196662538 1 1 0
2473 1 24.702195235195592 3.596578148350229 1.2063469883991504 0 0 1
1755 1 28.31456639665549 2.7205202855796515 3.271221297367761 0 1 1
3485 1 11.963736050445036 15.140703908469282 14.998583079121286 0 0 1
3985 1 35.797550212519994 2.6600524374619257 -0.005786017879997496 0 0 1
320 1 40.648416888207706 4.13875519313379 2.9155693928178623 0 0 0
1264 1 46.86890552199742 14.57220163649095 0.12670533739281498 0 0 1
1162 1 9.759030387475196 10.916887189317245 0.03637550982133475 0 -1 2
421 1 44.41331451585336 23.01417192127682 0.23064832001492064 0 0 0
577 1 4.0368037986984 7.163995641826067 1.72115650668775 1 0 0
2107 1 3.1053158166881327 9.833190960171214 2.391599493540526 0 1 0
2593 1 5.478154710092125 6.493616732839477 3.959997358485066 0 1 0
2331 1 8.627119940436124 7.438571618291407 1.072369747828579 0 1 0
46 1 11.559859241307702 7.263990060022528 1.8462269577418828 1 1 0
1191 1 12.674626677269153 9.896663853223588 0.9076610995370318 0 0 1
2236 1 16.542417614840424 6.601496400447888 0.9410826926133797 0 0 0
3554 1 19.503916596965386 7.344076913344062 0.8211495361091257 0 1 0
1390 1 21.77202338020996 4.769694964505394 0.509086744267839 0 1 0
2434 1 20.937490292772623 7.361358849834394 3.2368095085067705 -1 0 0
3430 1 49.11788648721348 2.7232998417553493 0.7188834846184222 -1 0 1
1784 1 24.576964819612126 7.943535565922117 0.7643469719308744 0 0 1
307 1 27.358763829852943 7.582316323004998 1.293510227926024 1 0 0
226 1 31.468655249575363 6.526214526092143 1.7789400822881243 1 0 0
3939 1 45.920916210894475 6.006293000507931 1.0396993038418532 1 0 1
1351 1 34.49600595746547 6.833020801715285 1.4453827110531487 0 0 0
1347 1 39.03418998698672 6.595515229774428 3.348143327139347 0 1 1
3333 1 36.62478681460587 8.22642591027747 3.36425668890162 -1 1 0
100 1 44.282749288931626 2.367776277786998 1.2991482727224208 -1 1 1
1928 1 50.29418308739572 7.529672261529983 3.0360574180653472 -1 0 1
3560 1 47.33499654336066 7.792197000956225 2.542845804143295 -1 1 1
4109 1 0.5339441405389258 10.80690799916748 0.996409678229701 1 1 0
3792 1 2.7301668171394287 14.55173091171782 2.06257769561884 0 1 0
3618 1 5.389012137371078 0.060495338913164165 4.882905708387117 1 1 0
1710 1 14.304738839947486 11.830230716240575 3.376968524436863 0 0 1
1811 1 16.335708294595662 13.649101254293878 2.1606133315469673 0 1 1
2672 1 21.21483767862109 12.409914084270627 3.0853812579169975 0 0 0
3222 1 22.524994940541458 12.902301857495297 0.8111814659505341 0 0 1
733 1 25.789258463666304 11.037788771258988 3.513965762915174 0 0 1
3841 1 28.147010375619733 9.78358577760502 2.650164558258456 1 1 1
1783 1 34.49384529034907 9.870801295803325 1.2846377150995325 0 0 0
769 1 38.200782572160634 10.321902270450273 4.240634574642032 -1 0 0
41 1 1.0166828436685043 -0.23354920187734554 1.4449734548130277 0 1 1
2413 1 44.057850475118926 8.204494659387548 2.6981373526593475 -1 1 0
1438 1 40.9919454850194 13.951849693943103 16.35522861922809 0 0 2
3057 1 30.78925895771241 23.797053114005347 2.959116276410481 0 0 1
2990 1 32.47239186151076 0.7941567427548837 14.056168781728124 0 1 0
2790 1 2.4901399638548987 17.279443062992982 1.889774539639454 1 1 -1
3526 1 6.39871641891211 14.353001298495624 0.282572512926041 1 0 2
2826 1 11.634659752200944 12.292092451477052 2.176975819427486 1 0 0
1882 1 9.314454977845958 15.555192799721876 1.3641352024345876 0 0 1
83 1 14.93870290543024 15.91240162436554 2.757119046381526 0 0 0
2528 1 29.240922869325335 24.277965228705682 7.570558210106867 0 0 0
2782 1 20.06005984151041 16.216918082083588 2.2938022701025744 0 1 0
3740 1 24.688807040285297 13.390621198799083 2.780526500169204 0 1 0
2817 1 40.283611689926076 5.340587530124913 15.124401570809587 0 1 0
3576 1 30.004787004483575 11.106463130840726 1.2492236287421528 0 0 0
4038 1 32.96156001328595 11.625748723772023 2.658992514671303 0 1 1
2934 1 39.02703168194097 13.757307644542125 3.64542285149849 -1 1 1
3897 1 25.97013454649084 12.848657187857283 0.14063513982716613 0 1 1
1021 1 44.2116444321814 14.147039804731627 0.8709821080792066 1 -1 1
707 1 47.585379603713506 16.783840280406224 2.392727624694523 0 0 0
4125 1 50.299502402177524 13.688487622057895 1.1900222427058276 0 1 0
1301 1 -0.0004875470756044442 17.917257564673882 3.174336896850135 0 -1 0
2427 1 11.72559043279025 24.05996086855692 5.55007886510367 0 0 0
35 1 6.061549321938853 17.428295075909077 0.6456072841038549 1 0 0
3130 1 12.294251360880809 16.311796874981084 0.6197489537496376 1 1 0
3941 1 3.2702184313988467 1.5507627286817214 0.83078953229727 1 1 1
2380 1 22.39060883122718 17.247741952172436 1.343164452282481 0 0 0
2044 1 40.28855675539475 11.43011244202047 0.06255140555998229 -1 1 1
3339 1 24.783420347997946 17.124817734650463 -0.2333469659328436 0 1 0
580 1 26.50962719096125 15.673726926481654 1.660148628976715 0 0 0
2383 1 28.74872724054118 13.567241020111814 0.905878047530156 1 0 0
2583 1 30.654089973929786 17.120431857110372 2.3794507831557272 0 1 0
1723 1 35.4143813940712 14.92898454838691 0.6056947402435734 -1 1 0
3383 1 3.190175072360634 24.71836567446744 13.479635401253578 0 0 0
1950 1 22.622541239916863 24.728194977751524 2.7172486229200743 0 0 1
3798 1 40.11223031072818 16.01408206793933 2.0222974354136443 1 0 1
1945 1 45.18829627978272 24.72192290597996 2.283404700275757 -1 -1 1
3736 1 42.93660367990411 16.23630631619925 2.151272449610893 0 0 1
471 1 43.56928622089836 18.728373103627266 1.2815389358720737 0 1 0
2708 1 2.191693842398562 1.0662779958862447 15.647009501483321 0 -1 0
2671 1 49.75354781337728 15.149644927149337 3.7402771628324896 -1 0 0
3010 1 49.65112456030563 19.2877291911859 1.0791311470931497 0 1 1
1154 1 5.319184029616134 20.68294556391842 1.4737409680022122 0 0 1
2649 1 12.164387328522507 19.057526425335652 1.3053443477429267 1 0 0
3969 1 36.31537520865018 17.631572412834515 1.3717828413273099 -1 0 0
1951 1 14.488830158971021 20.305689223630154 0.21926980107178695 1 0 0
3877 1 19.623751526967485 21.577552218967387 1.543522738189253 0 0 1
3955 1 26.67102969947728 20.714240235098035 0.7891401593049736 0 1 1
3613 1 22.456100330216326 20.141544272362783 1.622372504177159 0 1 1
399 1 29.239966972942295 21.62440248092829 4.272634652144662 1 0 1
3288 1 29.051354755465166 19.369710041904003 1.9352721965666229 0 0 1
2155 1 34.95217775355991 20.087403289659864 2.168797141790425 0 0 0
3728 1 30.604667540722616 21.388575873525784 0.7858441721897622 0 0 1
1861 1 39.4570051794331 22.53586894336208 1.7739986512453876 -2 0 0
865 1 42.41984657377927 21.403050892219742 1.3282741647258138 -1 0 0
2669 1 45.98700566231442 19.005567142719382 2.588954950205252 0 0 0
634 1 47.442092534407266 21.026418546455687 1.4863108736500859 -1 0 0
3944 1 0.7633782717441597 21.74521638150574 1.7703194367542197 1 0 1
3880 1 14.27309089665811 0.4832305861772518 8.555943957598116 0 1 1
2629 1 3.1709213419496067 22.832102471924067 0.8381197969158376 0 1 0
3852 1 7.547481545502723 22.034436985853905 0.36104729880084363 1 0 0
2139 1 15.023725325171425 22.838644637447796 1.2515228307184187 1 0 0
3280 1 12.679440270047456 24.60732968665485 1.563763978562961 0 0 1
1965 1 17.145762491907302 22.574925340499075 2.9911360266178475 0 0 1
1977 1 20.001098305143408 24.3330870260973 2.00112216700443 0 0 1
812 1 38.34871071876384 5.919630604349235 0.6940974595816629 -1 0 1
2271 1 -0.08391172287366178 0.3986198123939927 3.824097053172684 0 1 0
1171 1 30.98384593762141 20.00471010809665 5.523875750755173 0 0 0
787 1 7.148012900412673 0.5259580950666574 7.008559995133774 0 0 1
3206 1 36.63654430079285 22.518349423105104 3.457326800087615 0 0 1
3407 1 31.158242194916465 24.692774855925396 15.342498878492613 0 0 0
3170 1 18.227747739313244 10.661463871483472 14.867657391009104 0 0 1
329 1 4.806234439290997 9.743963900020928 -0.0873086585821578 0 0 0
881 1 3.032297436577597 0.5099240891388548 8.914122465040993 2 0 1
878 1 0.6919746986106514 1.9341428258268545 7.750672207096221 0 1 0
1907 1 6.937473635303253 11.360839199703166 0.5834459096741835 0 0 0
3947 1 10.443116935267334 2.336995246780194 3.286670868432133 0 1 1
957 1 14.352711109272507 0.4283031893683925 5.178999710446307 0 0 0
4174 1 33.43544530330411 21.812364870530466 0.669557212255396 -1 0 0
67 1 43.759842288397465 24.66536888177279 16.11480015756375 -1 -1 0
968 1 37.554122474825974 0.025096607013383954 6.499583190128021 0 1 1
3080 1 20.870488471805487 3.4565772561084254 5.5141307042380845 0 1 1
1350 1 9.50569769475493 19.90794131312102 0.5072935564028935 0 -1 1
3644 1 13.701092804941204 -0.1558641368980706 16.035138493557582 1 1 0
3770 1 35.26957022466695 1.581923800313201 2.3677133574886975 0 0 1
303 1 40.42881828097289 0.6692315271514896 6.405138849163574 1 0 0
3400 1 42.60574645773485 0.30075812500538546 4.448358055235348 0 1 1
1011 1 6.23659730361323 23.993198800113394 14.409991110007743 0 0 1
1752 1 32.243098083398095 0.2152134688074645 0.8433801298487733 0 0 2
3475 1 -0.06240020011342734 3.239176733685585 5.089976997738486 1 1 1
2834 1 2.508729192597249 4.262969087095092 6.042515209610561 0 0 1
2706 1 11.353711503494925 3.92446395049721 5.501436802590674 0 1 0
2729 1 15.20290659887667 5.224512012834769 4.787535211010953 0 1 0
1402 1 13.914952857685797 3.039436531217417 6.075528009107001 1 1 0
1725 1 18.24392497654923 3.2829694267624023 3.815673359601016 0 0 1
1933 1 18.982888715857225 2.9252560456299985 7.504768381048114 0 0 1
3243 1 22.36933405344312 1.0084779566125157 5.879611159096352 0 1 1
2085 1 25.37753449651904 2.837555804734609 4.2728410723709125 1 1 1
334 1 23.8554749581043 4.959655909120297 5.467550103404977 0 0 0
528 1 30.126793755664117 3.700737921785964 5.263486806715295 0 0 0
798 1 28.57485731009668 4.273050352421563 7.797071994708379 0 0 1
206 1 32.4976321764852 2.366220270499801 6.121922516924755 0 0 0
509 1 32.929273640140806 2.7512788018985685 3.303748132709598 0 0 0
2720 1 37.433216244567475 1.751067828777324 4.4013369961898805 1 0 0
2991 1 37.5183348182526 4.481314445648024 5.140142245831117 0 1 0
2298 1 39.93856539456611 5.660005583889164 6.349827760108853 0 1 0
582 1 43.403073647137816 4.798583767400763 2.8950489966006745 -1 0 0
2912 1 44.028062296282926 2.835426503212986 4.8763215794882 -1 1 0
1699 1 46.584951143459506 4.690880796340734 3.862564947937252 0 0 2
341 1 45.879993445017135 2.6227254541055323 7.1809935529046385 0 -1 0
1665 1 48.96478681204145 5.734097932262404 4.848727611740473 -1 0 1
853 1 1.609778552725061 9.12908737908037 4.5495575028384065 0 0 0
2151 1 3.368271209184987 7.258949423771143 5.853926173765569 1 1 0
3639 1 7.770923140763703 8.165447125675508 3.7730688078381496 0 0 1
3783 1 11.869044270895865 6.425612491554083 4.56280167180053 0 0 1
3027 1 15.122936257059648 9.2495366716122 2.529909647433429 -1 1 0
3408 1 14.546491147665538 7.924215774934929 5.218161362932572 0 0 1
2873 1 17.773087734646985 8.420707051016374 5.530111426087635 1 1 1
1685 1 19.920369832320908 6.393142772536261 5.690050377853051 0 1 1
2263 1 23.815361895772465 7.235440272627682 3.5369562938016346 1 1 -1
3268 1 24.36174656405278 9.407240279650303 5.221785915319069 1 1 0
2091 1 30.993320958538174 6.31255067088636 4.454947984219729 0 -1 1
2981 1 34.80582402457517 5.36201093902993 3.872192386646672 0 0 0
2154 1 35.25161288094533 8.780214964438585 5.764535727444403 1 1 0
1865 1 39.85101310239045 10.086438457584961 6.654971210708821 0 0 1
3155 1 44.44443990441151 6.193782831242212 5.550992817785174 -1 2 1
3169 1 41.9132521290841 7.787513165822546 6.071437146851108 0 1 1
300 1 46.000468227285126 8.419161548857371 4.903034568958664 0 0 0
108 1 48.41314775012246 7.03165700733814 7.240990200062598 0 0 0
3842 1 4.720413514385431 10.980919286297341 4.369555249570058 1 1 1
1254 1 7.143079673939393 10.727391901818095 3.2541273694108352 0 0 1
4017 1 10.729800902891578 10.687160943435522 6.348334735852344 0 1 0
69 1 16.231757522363107 11.400018172855907 6.337576614888419 0 0 -1
1737 1 17.77251956015638 8.974060489948304 2.770539579082576 1 1 1
864 1 21.61217798533536 10.094089422885833 4.492276673827 0 1 1
3538 1 30.778684332098535 11.510802180844475 4.390042554786657 1 1 1
2082 1 29.610987834742524 8.848163686377108 4.848984931945457 0 1 1
2166 1 33.92839042022996 11.28684845931876 5.400680599255417 -1 1 0
2282 1 40.60946833968265 11.219359784000288 2.8526372386723278 -1 0 0
1269 1 40.38359742425452 12.665940305971471 5.9330896391865835 0 0 0
1466 1 43.156119047002164 12.455747682036534 2.918572587261845 0 0 1
2479 1 44.27079818224719 10.454722684011536 1.3228162895805435 -1 0 1
892 1 47.49546181169852 9.752394991276374 7.292552870063012 -1 1 0
170 1 48.12908353044267 13.027355218064166 4.14008002812804 -1 1 0
2254 1 4.155208930311601 13.60460460364164 4.2176866784047675 0 0 -1
3634 1 0.6568077477335716 15.66006060164 6.0989506631657475 0 0 0
1843 1 7.135647142234426 14.426060987284536 3.3838621203662886 0 0 0
664 1 7.9149187301568205 13.310755059713491 6.0030866504399505 1 0 0
3865 1 9.601101775577826 11.883922520110259 4.201286823649212 0 1 1
1957 1 10.300739204610572 17.240617782642815 3.8067631748581094 1 1 1
1389 1 14.22658750457947 14.523378979084134 6.922208982836862 0 0 0
2858 1 18.190832415452885 13.131771293256866 4.784436974817291 0 0 1
2658 1 16.56991054729066 15.27878575117373 5.45794758354268 1 1 0
1180 1 22.271822126851156 14.266492185170835 6.376522726425395 0 0 1
3436 1 20.311238375991724 14.754909901852752 4.598046731280727 1 1 -1
3370 1 26.89598108943581 12.613408249992007 5.418760869769808 0 1 1
227 1 24.71624103613674 14.941264949830542 5.2305962819897 -1 0 0
945 1 29.089679414223074 13.632103111274223 3.980239709217612 0 0 1
2080 1 34.41939135049297 14.173705211510974 3.139024273406154 1 -1 0
221 1 36.4085074303364 12.73749471976944 4.748063565575797 -1 0 0
1305 1 42.811417300729104 16.268799853310888 4.904877441932227 -1 0 1
721 1 46.814786315339674 11.896022986006498 1.943520023895748 0 1 0
1616 1 46.844637726682194 16.51785607298873 5.597469931845955 0 0 1
3575 1 3.0001022294529904 16.968588292517904 6.580652972769627 0 0 1
572 1 6.661641154644808 17.231425996005342 3.74668544945807 0 0 0
2475 1 3.7848528553174043 17.59776831122776 4.1602636707137925 0 0 -1
3724 1 8.34925531816902 16.340824027573703 5.91385143237283 0 1 0
1719 1 12.300654437206243 15.04282723452555 2.8955959686207278 0 0 1
231 1 16.375067129726997 18.859560431987738 1.9911365439222677 1 0 0
3102 1 19.12197033920381 18.894395831083752 2.561584264496393 0 0 2
2630 1 19.49986256994366 19.408395139528032 5.329705707057297 0 1 0
739 1 24.306492931287107 17.278785048939096 3.564827398710782 0 0 0
3598 1 27.26036056134218 17.796204412192346 3.528337161488564 -1 0 1
4171 1 29.083794929937415 16.297067495473506 5.517084811872618 0 0 1
3637 1 33.66514940190109 16.360450503881786 4.98398128632691 0 1 1
2522 1 38.826412446513885 18.62568989676626 1.7541808380692867 0 0 -1
3509 1 38.642453324935715 16.19862788565475 5.157374858292204 0 0 1
2015 1 40.73337643480272 17.660673224632486 5.966946812727648 0 0 1
1169 1 44.713364728874666 18.30530451259565 5.9989737447506775 0 0 0
3909 1 49.2516441940364 17.59308643449194 6.77211640923054 0 0 0
1718 1 2.0051708660505674 21.46763341343466 4.5872886540082085 0 0 1
1518 1 0.20737534437087057 19.73976741995428 5.171157414668993 2 0 0
1779 1 4.357729348867028 20.40393213146282 4.120933564846646 0 0 1
3389 1 6.4552772926439905 21.26965644303485 5.465072864419401 1 1 0
2681 1 8.183567120612008 19.84731276326632 3.390127641416119 1 1 0
1555 1 11.000780261832007 20.652705827429664 3.5758050796322287 0 0 1
1894 1 13.671095741141867 18.395546023278033 3.908983510976035 1 0 1
2507 1 15.590239917201952 20.52298663835222 4.335963643008597 0 1 0
2426 1 21.786486709448162 20.52149727834265 6.437419827922581 0 0 1
1405 1 24.669836031889204 21.10460700491399 2.977501889650125 0 -1 0
1604 1 23.92448721736505 19.129043061009035 5.548548965049511 0 0 0
1918 1 26.67671608197987 19.962844522011594 5.0189605713891 0 -1 1
57 1 29.872608352770524 18.348217916113878 7.0478244308861235 0 0 0
2632 1 32.739113703754754 18.796595985268784 3.8128688140870723 0 0 0
3227 1 36.900668228029105 18.79803818656024 6.082583094793104 -1 1 1
1494 1 34.49410305756636 20.18588089033873 5.708007874493936 0 1 1
1747 1 38.254682687999264 20.285461013315714 3.9312827014377314 0 0 1
3858 1 40.81849666661762 20.10019534820651 5.236910875060436 0 2 0
2743 1 42.79815692270212 21.68143524605882 4.07699371668518 1 1 0
318 1 45.45068368833185 20.808476557189 4.938570374006453 -1 -1 0
1455 1 48.235797146772185 21.224247984837916 6.509110293544512 -1 0 1
2747 1 8.19674880107947 24.16954634907186 2.36503524753878 0 0 0
3439 1 6.9943163301025395 23.864846670406287 4.943018338553768 0 0 0
2199 1 41.2241608888137 8.484270701069216 3.368521688501085 -1 0 0
400 1 10.630181162677317 23.40566914898589 3.264368281871885 -1 -1 1
904 1 17.001046936355966 24.29758520797043 5.029168490871242 1 0 0
2363 1 23.266829628135312 22.91429906921218 4.887193850058232 0 1 0
1867 1 15.953199647024306 10.285574825157108 16.43357618712485 0 0 1
447 1 27.26648106541622 22.51804727353404 6.440731955372107 0 0 1
2847 1 31.60089608117662 23.06518781770872 5.958257787419462 -1 0 0
3967 1 34.291707152120026 23.005789017847153 5.494148237710677 0 0 0
3279 1 11.126348551895944 17.46025472554316 16.21843923211779 0 0 1
1289 1 38.258215843620334 24.17927572504178 6.797235967070237 0 -1 1
1198 1 43.499917833114466 24.371594916675583 4.7976865418444765 -1 -1 1
2216 1 47.239313709779 22.803398035760274 3.5297228646648358 0 0 0
3992 1 26.179485413079647 5.668066148990778 2.833289354328779 0 1 0
980 1 4.3473278617102435 24.737805415366715 2.6044198895308925 1 0 1
3072 1 7.964613275538953 4.6647033671642975 0.7196239893367049 0 1 0
3679 1 6.755078254964558 3.3515063813095867 7.119960785782748 0 1 1
1356 1 14.136923551715883 11.431727297835963 14.784954930298488 0 0 0
2830 1 17.18745846717764 1.0575615571947177 7.895233450507449 0 1 0
3567 1 16.862095468449272 2.005729545328186 10.461360076643338 0 1 0
1013 1 23.908110571749187 0.406023662886149 3.580256206722562 0 0 1
3412 1 9.232800058907515 10.991726101551432 15.705804445895115 0 1 0
2661 1 26.28752818226118 1.7072187312729454 6.812703233754159 0 0 0
1854 1 28.385765084430066 1.4881485307443685 8.795706116154259 0 0 1
2478 1 32.10991170900979 1.2657796240761112 9.297996766169232 0 1 0
2972 1 36.69824217536814 1.1998286779130949 8.807124898499305 0 1 0
136 1 40.69323847131963 -0.290289655142238 16.2031249985727 -1 0 0
4083 1 24.013940825914958 13.568291350213185 16.06574187158621 0 0 0
3156 1 49.27441883321994 0.2702153448825094 8.867002475547546 -1 0 0
3480 1 1.326436234288575 4.131461498298063 9.226640542398394 1 0 1
219 1 2.0687197921779266 3.658022838439545 12.011411336846665 0 0 -1
439 1 4.060573540979816 3.0607539460665047 8.235967086747431 0 0 0
2850 1 9.778717876590845 4.279431892004818 7.830798826849765 -1 1 0
1669 1 16.230880086216676 5.607490630134069 8.629918825452144 0 1 1
1034 1 20.946278120070286 3.5071554660836752 9.503698669266253 0 -1 0
353 1 21.98248142746354 5.651861098525809 7.945151543751798 1 0 0
1099 1 30.149915296131514 5.5936701958234645 9.707930495315766 0 0 1
1520 1 33.50539525948065 4.426825988921215 7.543741744441763 0 0 1
2210 1 32.41735338203924 4.029870663899897 10.059903290475251 0 1 0
2877 1 36.20053149410441 3.7707668550312503 7.636630862312007 0 1 0
1383 1 41.30670363578828 2.8715158324187993 9.356936343438726 -1 1 1
3953 1 41.28604831100452 3.311275288002908 6.258111926003042 -1 1 0
670 1 43.31044768829662 3.879947733719269 11.306061079032382 -1 0 0
484 1 45.64953449733726 5.230900282265053 10.210164560367426 -1 0 0
4016 1 48.15640521851839 4.600034289939219 11.076135601583706 -1 1 1
3516 1 1.5416500589283657 10.97264474256293 6.634128601447927 0 1 1
943 1 7.137091397705257 7.682116061482211 6.940405320609462 0 0 0
3672 1 3.1118307090099355 6.9831519469230106 8.763757429481403 1 2 1
2197 1 2.228279567793299 9.536247472206387 9.003596708233806 0 1 0
1798 1 8.596124269097352 8.765636877442288 9.23230554978164 0 1 0
193 1 10.624775459563997 6.908474367889249 8.32988889091152 1 1 0
2059 1 9.98689690854251 8.151424563673228 5.537363990731529 0 0 0
3561 1 17.661057171195623 5.133079919158571 6.146125546654273 1 1 1
1618 1 13.149495128191072 9.369359578632919 7.127733883942487 1 1 1
632 1 15.530862885557127 11.59960664624807 9.363484647697344 1 0 0
2876 1 16.049831281758557 8.580907931938508 8.150863502089987 1 1 0
1388 1 21.59928829093114 8.215157313703324 8.951866686323777 0 0 1
660 1 26.282652008176104 8.340456293451195 7.297067275402416 -1 1 0
803 1 26.126398808558523 5.567607182649228 7.483223023631354 0 0 0
3930 1 33.343947314305055 6.575105158836565 5.924261276795039 -1 0 1
1742 1 31.714087614814222 7.520127205176969 8.398437327747947 0 0 1
3324 1 36.287318288040524 8.217092135786524 8.313069911099465 0 1 0
1610 1 37.97761886117166 5.939810845380197 8.476643629946405 -1 0 1
27 1 43.03042487653853 8.735760960186862 8.59151972955025 0 -1 0
454 1 46.16124922309726 5.407569923669985 7.521857822883507 -1 0 0
3993 1 49.920677367839275 6.097677816488291 9.383841498817244 0 1 0
2616 1 49.63839391212289 11.960094813467164 6.819122005324265 -1 1 0
194 1 4.876754052818149 9.652268303967295 6.871794529494004 0 0 0
558 1 4.332874049199964 11.017780572759637 9.666373660869283 0 1 0
2090 1 8.802960996029897 11.425018496726222 8.535211719081387 0 0 0
273 1 14.037066521973815 13.986088421532257 9.711976135626752 0 0 -1
3272 1 19.299646857309313 12.017162378744985 7.478604537392336 0 0 1
1206 1 20.29607174493282 9.41037705700748 6.7479821210816215 0 -1 1
1471 1 23.97457139272485 10.04944207040346 8.246313227662242 0 0 0
1172 1 22.155676243891076 12.40691791208319 8.210624905181493 1 0 1
2130 1 28.32375967355263 10.494663824849889 6.915690849389064 0 1 0
784 1 30.142044310551768 9.642975429621986 8.830282229198515 0 0 0
743 1 35.90774645044938 11.124908615069828 9.572959806623144 0 0 1
793 1 38.9139565849154 9.493105689166686 9.264841950597297 1 0 1
3460 1 41.569587852810926 11.060921129185958 9.318463133182581 0 1 0
3527 1 44.828347717233015 10.605924525153593 7.57510631844664 0 0 1
1582 1 45.095044722654734 11.187822464668194 4.695000465180268 -1 0 1
2582 1 45.48555414817923 8.167415127926267 10.735214016902928 0 0 0
1510 1 2.9366420485091087 13.651970067164632 6.598823490845042 -1 0 1
1716 1 0.7567916800179959 14.126095173337438 10.545952562970577 0 0 1
1606 1 5.631652042390768 12.958409800376547 7.817950765458045 1 0 0
911 1 5.312311015885073 14.984033839483782 9.621793842207389 1 0 1
264 1 13.435128533952227 11.961126117268936 5.95617455001825 -1 0 1
230 1 14.807687392247162 18.78587528796091 9.401811161031969 1 0 1
2218 1 25.833832047596918 12.228982490856051 8.201793293875305 0 1 0
3551 1 30.179343058056165 13.101542620999584 9.213962737646707 1 1 0
1903 1 34.0430327444289 13.678364011043225 8.928551601997736 -1 0 1
2490 1 31.688691247656845 12.910625165111238 6.8802021668886715 0 1 0
2322 1 36.476347111683495 13.274263142350462 7.486324418945155 0 1 -1
983 1 39.10224509552161 14.313929720593867 7.675757669679294 0 0 0
1352 1 42.958346648198614 13.674057452414498 5.472855197931314 -1 0 0
4166 1 42.93707959963125 13.776426694976852 8.253620087460453 0 0 1
3710 1 45.72651243579698 13.688857104280418 8.85460974127096 -1 1 1
123 1 46.11284178360248 13.813961165303818 6.0624898911137866 0 0 0
3623 1 47.349384753959455 12.462040256364824 10.80770673809195 -1 0 1
261 1 50.02581084363587 14.525089829751046 8.239661429354467 0 0 0
1721 1 2.626223782823259 15.743771394839257 9.10494612144293 0 0 1
3537 1 7.4000233633182555 16.813168737220085 8.704877068797858 1 1 0
3586 1 12.559657669398243 16.58328018363882 5.713246159568205 0 1 0
2680 1 12.028998386069974 17.25837387952869 8.327354580754415 1 0 0
3387 1 17.348402979174573 18.555151248740618 8.128898368975591 0 -1 1
3958 1 18.839279957226665 16.82996612825987 6.347571314444266 1 1 1
3706 1 19.814825577857246 18.850043037460395 9.754122118049102 0 0 1
1292 1 20.845148948230097 16.118957711437623 8.145089069869774 1 0 0
3625 1 23.52824267928537 16.871560546594292 9.047499027254094 -1 1 1
1192 1 26.92407227540999 15.570571619471316 7.298335931053814 -1 0 1
2474 1 31.64673838881768 15.663263686593728 6.466231976654765 -1 0 0
1488 1 34.78055816762304 16.419217442039383 9.181974729884153 0 -1 0
3378 1 36.128592691629294 15.999306073661671 6.690224463390991 0 0 1
629 1 37.11755659994088 19.335716849118626 8.83951500789625 0 0 0
3946 1 40.65393480032658 17.527061290440013 8.968046037631545 0 0 0
2188 1 45.72400950051346 16.189092967599997 10.012602655884173 -1 0 0
3923 1 48.40115403606447 16.11937081413593 10.284877805705865 0 0 1
1807 1 2.0877935229056903 19.468585878785422 7.277596880970748 0 0 0
1525 1 4.511187748842602 20.92740145649556 7.53967874892416 0 0 0
2079 1 8.879985282358758 20.736829283527868 7.242209578812707 1 1 1
2142 1 5.930695266855307 19.36906423451845 9.360047805936837 0 0 0
529 1 8.057186420956326 20.954643715688466 10.097913247227485 1 0 1
316 1 12.09392483695561 20.044919698709066 7.878531559897356 1 0 0
2975 1 17.327071481028863 20.807623589374426 6.25755136536759 0 1 0
3356 1 17.577852174162906 22.730398967671523 8.301971409823848 0 0 0
10 1 22.330541826473763 19.56003546393699 8.932896708800893 1 0 0
3704 1 24.421884628960942 21.049482802338805 10.439268072976242 0 0 1
3112 1 25.64420570017704 17.8678091867203 7.615783109508473 1 0 0
2529 1 27.84646837131621 19.295420923125107 8.500202534462716 0 0 0
2419 1 31.95200150159287 17.26979830006821 8.826311696162385 0 0 0
2964 1 32.48615494128633 20.192242013203977 8.231886910656627 -1 0 0
3785 1 39.3136369348004 20.64853273373074 9.787892761181615 0 0 1
3630 1 39.97905994770787 21.767819931755795 7.208306857181263 -1 0 0
1226 1 47.05374463590675 20.305609673154965 8.71398948675507 -1 0 0
950 1 49.13952691548111 18.642749847429947 9.150917807714016 0 0 1
319 1 2.291139770720498 23.89859358991132 6.037633525793257 0 -1 -1
3748 1 3.2354623459906495 23.235733974739937 8.411043598497114 -1 0 0
3041 1 9.504184500477296 23.513980436988206 7.2061249397964104 0 0 0
3640 1 11.591441143315045 24.374560505943563 9.18167547461279 1 0 1
2357 1 12.941722225019 21.452939735931146 5.500724036716631 0 1 -1
539 1 1.882906612411774 14.140647119129563 15.002272157122103 1 -1 0
369 1 21.120384243837968 23.53466781057283 6.979973178878406 -1 0 0
2722 1 3.7164440896225956 20.087918657607442 15.85089753817497 0 1 0
2045 1 22.74989268726786 23.06558230376923 9.501297796835988 0 0 1
3219 1 31.495698960271177 22.811583767316993 8.749371963360437 0 0 0
330 1 34.21769805223235 21.48953226278262 11.93843529453124 0 -1 0
1558 1 33.36817844848666 24.68061530830118 8.741522351015163 0 0 1
3263 1 34.88773538031677 20.908591213469737 9.298873156035103 0 1 0
4141 1 42.403900007547676 22.79321433604837 8.715171458126676 0 1 1
2135 1 50.11851097256735 16.017346495296405 15.73518128061518 0 1 0
3827 1 14.975930646353447 23.028426652640253 14.762927723458532 -1 0 1
3459 1 44.38031438508884 23.035049978325116 6.810950839951057 0 0 0
1632 1 48.78511881494087 23.856231751567915 7.351293594869863 0 -1 0
263 1 4.856959538115917 1.1256496131610578 13.167898329226743 0 0 0
1654 1 8.328776557723337 2.7850540785193827 11.40746314823731 0 0 0
2466 1 10.607268289600707 2.314362782404603 9.786614983521291 0 1 0
722 1 14.595220358750366 3.2719579565158616 8.889638047562915 1 -1 1
2769 1 14.677730278891314 2.723182477161602 12.260273780286463 0 1 0
3948 1 18.596042550368146 0.5761561450703435 12.105334836250375 0 1 2
588 1 40.17775020535454 3.35133112350326 0.23629414422178452 -1 0 1
1132 1 24.846054940875945 1.2975795758570128 10.229265654750147 0 0 0
3215 1 27.289422450833964 2.1904944318810746 11.672661893838685 0 1 0
3882 1 26.890746735508326 0.4348236403075201 13.87336119467502 0 0 0
770 1 31.16305348200976 0.637648814375123 11.546480032319373 0 0 0
60 1 34.52807776802801 0.1480989233403106 10.552152285596083 -1 0 -1
3767 1 38.13002264724646 1.731401959035336 12.937729813405031 0 1 0
3568 1 48.22190164077253 22.634442660846016 15.07865823200473 0 0 1