LAMMPS data file via write_data, version 29 Oct 2020, timestep = 800000

4175 atoms
1 atom types

-0.07700499428482033 50.077004994282326 xlo xhi
-0.07700499428482033 50.077004994282326 ylo yhi
-0.07700499428482033 50.077004994282326 zlo zhi

Masses

1 18.015

Atoms # atomic

3379 1 5.8418894067032285 1.237541471941751 1.2502761585928635 0 0 1
920 1 3.328895236634453 2.0125809449845216 1.4848060715440685 0 0 1
3202 1 10.672805424181975 0.4044660356757821 2.04821250802347 0 1 1
3770 1 13.946544358716032 2.792395822129623 1.5695447837405683 1 1 1
1894 1 13.499034619800328 0.13382638592828808 2.83316331453 1 1 1
3774 1 16.470986935630897 2.940705791363415 1.995982807815393 0 0 1
1215 1 16.73068492041996 0.550068197859564 3.033945808864874 1 1 2
2904 1 20.331468858243007 2.6759779336709935 1.181823985118437 1 1 1
266 1 23.426687983150657 0.5570051343047273 1.9984951231074488 -1 0 -1
1878 1 27.436035909513095 2.0867141896471084 1.0375086222425522 0 0 1
2711 1 29.865747627910025 2.4953330669773233 2.6540413918430796 1 1 0
4131 1 32.11744365117635 2.1361178587748118 0.6321594270754296 -1 1 1
3321 1 33.983089284226686 2.567310371735343 2.9149066537003274 -1 0 2
2499 1 38.733149520168524 2.608014031802262 1.1429398202767598 -1 1 -1
2428 1 38.89276274905461 0.15523589915653016 2.8895838381774275 0 1 0
841 1 41.62697035783339 1.46602601981019 2.2075016829590757 -1 0 -1
635 1 46.30475769001875 2.921249072343771 1.5567695430750388 -1 -1 0
213 1 45.79652595660825 0.2802204418013627 1.6811255529038247 -2 0 0
1195 1 3.026561383289644 4.827076826827955 1.8799372473328517 0 1 0
636 1 0.36164163164935803 3.507020913495892 0.9285286187777078 0 0 1
3883 1 7.191096829260547 3.2639578923547603 2.692842429891424 1 1 1
2214 1 8.794689544386623 4.62231002481859 0.44565349742604476 0 0 0
2815 1 12.470287994600522 4.954678367283614 2.4516096926403423 1 1 -1
1965 1 22.657238377665195 4.29054661648901 0.7737117269476808 -1 -1 2
1013 1 30.753025231403786 5.208902030861567 2.0385875831983977 0 0 0
1969 1 33.466984120243886 5.94254437513877 2.6908551630721402 0 -1 1
2559 1 36.89335448844956 3.5797408968084277 3.0368804350323115 0 1 0
1611 1 35.819334731698085 5.65969573316899 1.2518148941576577 0 1 1
3659 1 42.00809914735121 4.269279466836351 1.6092060682878728 -1 1 0
2369 1 40.85043354776707 6.149206890123117 3.1297185544802435 -1 0 -1
1703 1 44.531967773950605 4.764089367791671 2.40051469775602 1 0 1
1169 1 48.66832956874658 3.423248545239952 3.084625195141197 0 0 0
751 1 2.275495332262629 7.122783703623524 0.13424913350004633 1 0 0
2801 1 -0.01521518391400889 7.207939243531845 1.7266821437410347 2 0 2
3284 1 4.212950582242719 9.055480544316925 1.5422605786616153 0 0 1
96 1 8.903277367881552 7.2058552228715484 3.151554109915933 0 0 0
1268 1 6.371649765097111 7.393178437212576 1.1541260588215831 0 0 1
3935 1 10.679636555694058 6.514882949992062 1.1679999851867855 0 0 2
3515 1 13.517455562403757 7.586157263342655 2.8173108883648164 1 1 1
2926 1 15.073699866029756 7.587486075195232 0.3213036541316343 0 0 1
460 1 17.909627804040838 7.126183822776974 -0.028953380185633648 1 1 0
315 1 21.84964653255477 7.006255548696377 0.6292728986278054 1 0 0
2255 1 19.657852682111457 6.966922829377803 2.096516374565608 1 0 0
383 1 23.750821441447368 8.396870529933663 1.736527181928021 1 0 0
2152 1 26.042258756261656 6.887900135347334 0.9948172232980474 1 0 1
4104 1 34.48457989735554 8.45801492751942 2.3337924503306944 0 0 0
2273 1 37.236827123536784 8.049326827153994 2.924130440859043 -1 1 0
2073 1 39.30283251380255 7.307975782713407 1.1015705193267835 0 0 0
2024 1 44.97905029367136 7.016978257068742 0.5619216983199815 0 -1 1
1634 1 47.039449833462335 9.05698454966306 1.3377142395606012 0 0 0
1848 1 8.499703670160246 9.33142007608065 0.8582733362222552 0 0 2
1438 1 13.11698579848599 10.425184508679346 1.0762099301871455 0 1 0
1570 1 17.686721490404615 10.527767745981688 1.985343295524165 0 0 2
1133 1 15.647163527109742 10.179618808719056 -0.02685474039962088 -1 -1 1
3512 1 19.650426034772345 12.061398701086254 0.4977800248372779 1 1 1
23 1 23.415728894465403 11.458722925913026 1.3260142685651937 0 -1 0
2663 1 26.29125381250137 11.723982372815794 2.2564544260449857 -1 0 0
2587 1 28.782652254754424 10.433322876431275 1.281862143074355 1 0 0
73 1 32.26550166930127 11.206172951641511 -0.02750892665465364 1 0 -2
3775 1 37.87812926119361 10.531492722040873 1.875158694851875 1 0 0
642 1 40.85909964165978 9.70656425607644 0.6417360670958095 -2 0 -1
1972 1 41.19752952263509 11.664918719807613 3.0568707642191812 -1 -1 2
2755 1 43.647772982077356 9.78031797118099 2.0607216586028914 -2 0 1
3618 1 44.266445029343586 11.769279754706938 0.20427257848082475 0 1 0
292 1 2.362139814349102 14.964871349808092 -0.03268763138412045 0 0 0
3230 1 0.6601783073233518 15.475196649984133 2.1662062011029057 1 1 0
2832 1 6.361790042005136 13.837984809517561 1.769570072584399 1 1 0
4066 1 8.991156263556286 12.619738693398403 1.8164974534380158 1 1 2
3473 1 10.049932971011614 14.866467694649508 3.212311103219455 0 0 1
985 1 13.035578417952703 12.882280287261645 0.05220124492653233 0 0 0
284 1 14.299556898456721 13.834677605259495 2.5164906840803813 0 0 0
717 1 17.899355109724254 14.37544991483358 0.2664504783718463 0 0 0
1129 1 20.928252259312604 12.98029894824671 2.528580821354987 0 0 1
2203 1 22.657464973038778 15.02527474718176 2.471114947136794 0 2 0
919 1 24.74224631521144 14.12566690865664 0.5740360001680138 -1 0 1
143 1 27.7496858164007 14.46361950309734 1.1827667007084761 -1 0 -1
913 1 31.78955715561757 14.236068590836375 0.6344874605321217 0 -1 0
172 1 34.25611948414983 13.132471168561455 1.3694731823628232 -1 0 0
3645 1 37.98254071348863 14.533052543227905 2.360291104170592 0 1 0
2523 1 40.81929321967239 14.089262377239796 1.5962324386059936 0 1 0
724 1 45.52905517277708 14.099344802729632 1.1194975150742428 -1 0 0
2395 1 47.37944551376089 13.38256334991843 3.1676720856464824 0 1 0
3424 1 49.95018962068892 12.498682772813074 2.2969430485823903 -1 -1 0
1656 1 5.197199753193233 16.790221819073604 1.7296205622071315 1 0 1
2158 1 9.044581131099328 16.676742934286878 0.7701654420191377 0 0 0
3715 1 15.0350334023256 18.046065679481956 2.2355308966109293 0 0 2
3425 1 16.499704143378388 15.623415227972796 2.2248852412399622 -1 -1 1
1903 1 20.893727687295396 16.960306853627802 1.167732874457017 0 -1 1
524 1 24.50590919270904 17.679840256953494 2.8976928479979254 1 0 0
441 1 25.118937512929353 17.90616805535111 0.37360887616489175 0 -1 1
22 1 28.31297434022416 18.626641649440735 2.0321032903659084 -1 -1 0
1171 1 31.2311214111853 17.87353042014694 2.1594296219237363 0 0 1
2216 1 35.69302521880863 15.878802215452472 1.3050279513109817 0 0 0
3547 1 38.38751138385748 17.507363322731678 2.9699219541540782 -1 0 0
3877 1 41.17402680109788 16.981089002654077 1.6828322539472815 0 0 1
3401 1 43.95713806413205 17.697289746478052 0.6670096461111162 -1 1 1
702 1 47.92603541075034 18.214958910555218 0.8537102968635699 0 0 0
3974 1 3.1558635635696244 19.803354372124737 1.0516022398809555 1 0 0
1295 1 6.051505014740062 19.655875449751473 1.4874458160876445 1 0 0
1288 1 9.595079533118577 20.35500452318781 2.9692465167337896 1 0 1
1861 1 12.307945893557436 19.9138024880334 2.719014346138671 -1 -1 2
1512 1 10.131927020267954 20.930487993167176 0.3371322964855929 0 -1 1
376 1 13.070215962370394 18.798895477761636 0.19944868161807783 0 -1 -1
1381 1 14.4312772094866 21.777442603679926 2.7300042070438013 0 0 -1
2931 1 17.94931515570291 21.02461198621307 0.4152106926959273 0 2 0
793 1 16.71615879828446 20.01613944936243 2.7662796141485626 1 0 0
1850 1 20.461855743665847 20.902436263421112 1.3649663437202155 -1 0 1
531 1 27.6305357996462 21.04572226201529 0.7023335705444518 0 -1 -1
367 1 31.36807063303811 20.589009778037358 2.4788607414791604 -1 1 2
2985 1 32.87197368742089 21.48752815076951 0.2009634688548232 -1 0 0
3855 1 34.86459427024461 21.44535325384581 2.082319494288755 0 0 1
1657 1 37.01280536051609 21.625783427596 -0.017641415860542818 0 0 -1
153 1 39.78510106330837 19.440728461180704 0.5341274761751378 0 -2 0
1849 1 40.64424241505133 20.856181322397504 2.9624081826496003 1 0 1
1697 1 45.215936736185114 21.068236218362152 3.134400507234344 0 0 0
334 1 46.94712986759908 20.842034357343536 1.0847134381947923 -1 -1 1
492 1 4.0852718845696225 22.59507636044837 0.3620178438503223 0 0 1
2996 1 7.248480286094878 24.672641694706115 3.019654308578527 0 1 1
1775 1 6.534115724279568 23.98813827656615 0.32736112825533337 2 -1 0
2089 1 11.465565975051057 24.535558830276067 2.808222503769458 1 0 2
3141 1 14.910333534061046 23.038853128695155 0.019633178151251873 0 1 1
3871 1 18.700890480087875 23.215326803384023 2.7320353383533162 0 0 2
4086 1 20.783331998174795 23.976218636513256 0.6327434855779757 0 0 0
1306 1 23.27476302797654 22.19187101910688 1.3097630416154982 0 0 2
180 1 28.461886067585013 23.572496161899533 1.500778857920922 0 0 -1
2995 1 34.214582342403546 24.234011804138895 1.333127226705905 0 0 0
3381 1 38.39416090112948 22.8270938074926 2.100813584244752 0 0 2
564 1 39.34776937313264 24.70497274218563 -0.03533647949910464 0 -1 -1
15 1 42.772544281501595 22.166924715125756 1.7335542874629686 -2 -1 1
3020 1 41.625902158245836 24.22912485905507 3.2601852836058436 0 1 1
304 1 49.452186378617164 22.07836874132371 2.0458399966272207 -1 1 0
4088 1 2.2160520794283918 0.5630296969876563 3.753983565259186 0 1 0
3902 1 0.6051829227306798 2.6756324479658797 4.777419782692299 0 1 1
1678 1 3.9947144673013852 0.767060425842089 6.01526622917527 1 -1 1
3566 1 7.337521280497308 2.8938925495593675 5.623161038861244 1 0 0
17 1 9.566338654869545 0.3337075908426543 6.370935771422852 -1 0 0
2238 1 9.726307560834506 2.1169633915253745 3.8946060216595915 -1 0 1
1330 1 14.234336546129876 0.3379428257450508 5.626838655019921 -1 1 1
3418 1 17.110605222472415 0.17456171938945253 5.6182838789443785 0 0 1
1152 1 19.830643391572597 1.8246260180686864 4.315835870195263 -1 0 0
1782 1 22.46527203670314 1.9233924783510248 4.12191047832657 0 1 1
3831 1 31.540353960928133 0.8341966575854222 4.6943739468455785 0 1 1
3876 1 34.845263225838536 0.4168804168305595 4.626473269464224 -1 1 2
375 1 37.52131698000982 1.3033436093861634 5.306850290011499 -1 0 0
2286 1 40.437276186741535 0.6389932479687773 6.118518128096005 0 2 0
594 1 42.81408384026781 0.75738013323992 4.598509968415462 0 0 0
3874 1 46.8457870516163 2.314909970692409 5.3972391464082685 -1 0 1
1232 1 2.6302173214155755 4.739278267909144 4.847301899146416 0 1 0
2662 1 4.504750082292788 3.2847361421034678 6.043413951868305 -1 1 -1
3069 1 6.290277619508251 5.665841256040768 3.3997199089469796 0 -1 1
2409 1 8.999387987352481 5.33204452653116 6.411514077983114 1 2 0
821 1 11.519980025709161 4.08609137573706 4.86016131121215 0 0 1
2061 1 13.890564700320454 3.0814933363060732 5.876993941431028 1 1 0
369 1 16.21146749830582 4.506576150115819 4.549079977789896 -1 1 0
1201 1 18.05595868815771 4.607396271203498 6.607042394495386 -1 0 1
3276 1 19.022099517680893 4.442801355924282 3.309754263675362 1 0 1
661 1 20.919443852195112 5.137303964894492 5.332645867103748 0 0 0
3059 1 23.155829115890917 4.517679082071308 3.708486755390955 0 0 1
4004 1 27.55257169883629 3.0638320121133953 4.377851139967453 1 1 1
3161 1 25.728810642501788 5.0790509457512565 4.5782099687679505 -1 1 0
2896 1 30.148785447450884 3.6893815779973287 5.842222077264288 -1 1 0
3520 1 33.14833390086955 3.2573766776434616 5.405495176579497 -1 1 1
1251 1 38.3383563088347 5.427766974710633 4.585338386149997 0 0 0
2338 1 41.28198227138652 3.309898455576493 5.9762325452294425 -1 0 1
2342 1 44.30835710548739 3.3426021605048497 4.920049701733544 0 1 1
2545 1 44.48857913022809 5.810646594268593 6.015103370843651 -1 1 0
3429 1 47.67449746543633 5.933607292208835 3.330347710039714 -1 0 0
2098 1 1.8996192303003596 7.621549922696645 5.082607129280295 -1 0 1
242 1 6.702529105246349 6.908339702623607 6.110737159645961 0 0 -1
3326 1 11.162264175729026 6.986736094890854 5.043203438717828 0 1 -1
1536 1 16.005351743296913 7.240736345948331 4.131786504450396 0 0 1
3996 1 18.52425817783222 8.789627005551596 3.9680692085306326 -1 1 0
1768 1 21.15467906547257 7.897841215202202 5.745288523817419 1 1 0
2937 1 23.480173799774317 8.949851574253074 4.509760376418469 0 1 0
2432 1 27.259664646567376 7.1304833745063085 3.7222533638035404 1 1 0
865 1 26.06273508272106 8.978074712415792 5.47608344603983 0 0 0
207 1 29.858786473605207 6.865104500219913 3.7726715243272846 1 0 0
3600 1 30.763480017969997 6.371750866150638 6.470409421078353 0 1 0
3825 1 33.43351758155699 6.31142855738377 5.3427013170868065 -1 0 1
38 1 34.155386558630966 9.127299502247606 6.265433243742064 0 0 -1
2654 1 38.10513663936922 7.881432843089128 5.531558006252021 0 -1 0
424 1 42.568021002742285 7.8213171129061365 4.159132196930857 0 1 -1
3906 1 40.76056161718769 8.397201578453114 6.05356392641909 -1 0 1
3048 1 45.70072358582929 7.695883843491338 3.7159824559252725 0 -1 0
2502 1 49.37022708308327 7.603971474655099 5.409799447523122 -2 2 0
2604 1 1.1854505778171833 11.667664240971199 4.294360890670424 1 1 0
136 1 3.19290362298567 9.679220381791467 4.090904490324085 0 0 0
801 1 4.698084966113673 11.640616635452558 5.6984426732053315 1 1 0
4117 1 6.657657304499305 9.70997319260215 5.174757423607403 1 1 1
2126 1 8.999113429500817 10.478842045789472 3.5814650761771003 0 1 0
2419 1 10.880115196179343 10.333341582557209 5.435500454809277 -1 0 0
1587 1 13.184951596794647 10.348702996486486 3.6836854507059353 0 0 1
3535 1 15.124820215910393 10.973893342308127 6.231378188831001 1 0 1
1091 1 15.914635927557073 11.846663344982042 3.7397074154862726 0 1 0
2288 1 19.211960520459975 10.314873312331827 6.145469671827575 0 1 0
307 1 23.185460402569692 11.936007584169458 4.374349478662741 0 -1 0
3585 1 30.527658729149973 9.558572590516393 3.810887343967464 1 0 2
1726 1 29.881325910037297 10.847508464922768 6.098009198451967 0 0 0
1459 1 33.24978186698757 10.250745345731822 3.8985237597289553 0 0 1
128 1 36.63724322672868 10.499292780227611 5.9145490834253245 -1 0 0
519 1 37.305763461854276 12.249400048170697 4.022313610199811 1 0 0
2918 1 39.95079614016685 12.337434730153252 5.399586883017203 0 1 1
2439 1 46.91726411861216 10.745092271752904 3.8911171521889565 0 0 1
675 1 44.28962947023722 11.247345027697044 4.6845427638038455 0 0 0
1364 1 49.13849213851164 10.424486531645606 5.58597026640029 0 0 0
1927 1 2.1294426321622297 13.643677544200674 6.087262867470792 0 0 0
3604 1 4.6834073542632275 13.709174091255997 3.9499013184355833 0 0 1
3781 1 6.043940030560192 14.953198195671824 5.805585833585087 0 1 1
3561 1 8.953008601456657 14.28535841612816 5.686376156792215 1 1 1
769 1 12.819926039214435 15.215242581148601 4.265740184060667 -1 0 0
468 1 17.464263435800127 15.31856022728155 4.795584277902956 -1 0 -1
3155 1 18.7807051286371 12.908476659178431 4.417830373328167 2 1 0
99 1 24.105360380868078 14.321312020224651 5.233085184463107 0 0 0
119 1 26.39648708253599 13.067229069860065 4.822033493854073 0 0 0
1281 1 28.16868873022551 15.00213436647044 3.7930359682117607 0 1 -1
175 1 30.8725582388182 15.355177429449437 3.3162172080461265 -1 0 0
3032 1 32.60271665765446 14.428250808800524 5.331808806754798 0 1 1
82 1 34.4184961608428 12.533550615267707 4.13992335323528 0 -1 1
2738 1 35.95856908414882 15.186541775108807 5.111433863965679 0 2 2
2217 1 43.61702154984514 13.761245482225432 3.5304017129163032 1 -1 0
2377 1 41.70094879332804 14.575240306728777 5.525181973288636 -1 1 -1
1209 1 45.99534312291114 14.720085020571773 5.074157416147128 0 0 1
3652 1 2.613083421598737 16.237511715981007 4.052249551069559 1 0 1
2134 1 6.358101759752998 17.29603819236258 4.2740923445369905 0 0 0
2648 1 9.009869834938248 17.618421652205004 3.5910303112678648 1 -1 -1
2593 1 10.525939227223908 18.025243699750778 5.856254298049052 0 2 0
2462 1 12.901909847896178 17.92405878961882 4.814288097146543 1 1 0
331 1 19.19627374423718 16.491292545141665 6.374661504210534 -1 0 0
587 1 20.825171040665435 18.612338591578155 3.3696736269750613 0 0 0
2970 1 22.09767192082248 16.551392576060017 5.162001744434966 2 0 0
949 1 27.744924352685622 17.786792603503358 4.391929693630628 0 0 2
2990 1 31.770094138935697 18.21173416146025 6.353345850492795 -1 1 1
1667 1 35.89131406687718 17.846353605321763 3.6382090636471633 0 0 2
2058 1 39.66253869827352 16.740341543633164 5.546018110619005 -1 -1 2
3982 1 41.55361918969959 18.69138517460116 4.23386105773268 -1 1 0
4000 1 46.6476769987524 17.18692673367581 4.825556745881102 1 1 0
1235 1 44.530318259400865 18.610915321310227 3.5206246023624295 -1 1 -1
4047 1 48.975199077633064 17.387686416152206 3.3383760759072456 -1 0 0
491 1 49.21339163776097 17.876429051238656 6.577621048618409 -1 0 0
1854 1 2.9135499424484115 19.022356373607817 3.661105999853095 1 0 0
2303 1 0.15718185830788042 19.98261183505546 3.4309274248225163 0 0 1
3373 1 3.606462023802196 20.390188095747725 5.911679520923564 0 0 0
622 1 6.393270307923357 19.44330022494422 5.960995268140495 1 0 1
1963 1 6.888139060067042 21.28148732728428 3.695282575901284 0 -1 1
3270 1 18.622100402301776 19.29050786648494 4.866929848490931 0 0 0
590 1 19.906024052728235 21.64603952887598 5.014034315194538 0 0 1
771 1 23.000845577619717 20.31324060017729 3.402036870537436 -1 1 1
2758 1 22.631634613104556 21.2314517931299 5.732783960172798 1 1 0
1452 1 25.74670656985559 19.226898976277432 5.178723746568961 1 1 0
727 1 32.14560199939614 20.724341625149332 5.0648039644274006 0 0 1
3826 1 34.901423748381326 19.91130379738659 5.274828624960069 0 1 0
103 1 39.37021721508489 21.143511508047652 5.357490918474472 1 0 0
472 1 46.49976584623495 21.33237256395871 5.6846643302689515 -1 -1 1
495 1 49.309815646381054 20.804828932543924 6.125702877844472 -1 -1 0
899 1 4.151819700732335 22.402729830158236 3.2772102085341226 -1 0 0
881 1 3.977242526801393 23.74038386837346 6.207065525876463 1 0 0
2349 1 8.320852508138856 23.40612484696304 5.253618445995124 -1 1 1
3409 1 10.68343494212099 22.49919712447879 4.386680047655716 0 -1 1
2586 1 12.703494284082439 22.21129410943358 6.158771755271514 0 0 0
1974 1 15.007183089618842 23.443174509973773 4.848787887830419 1 1 1
1249 1 19.971031792582135 24.9283410921038 4.599618120712233 1 0 0
1692 1 24.22940235176625 23.802215196838628 3.3400148354562833 0 0 1
2267 1 25.666720000807818 22.35493751382333 5.257048579967803 1 0 -1
627 1 30.309213460040358 23.272409618393763 3.4447119765680925 0 0 0
2442 1 28.62346602872537 23.212557658162964 5.890344066020127 0 0 0
3430 1 31.309659181928996 22.87560914335999 6.4659830736301664 -1 0 1
1936 1 36.77951994109163 21.994973166417108 4.832072112548532 -1 1 0
3679 1 40.09395386245292 23.742051600743597 5.623547329510338 0 1 1
274 1 37.762524753903364 24.998835959633634 3.8218080718486855 1 -1 0
1057 1 43.7534453688568 24.8551079224638 4.763549718509399 -1 -1 -1
253 1 48.115676009413974 23.693042027892858 4.036764631559067 0 0 0
2634 1 49.89774370227808 24.660437667461633 5.570218936579849 -2 1 0
1378 1 1.811754077736805 0.4108441507544437 7.641766408060196 -1 0 1
2188 1 5.051983330323448 0.5596465837316077 8.99699938963678 -1 1 0
820 1 7.251052185884494 1.8633575430004445 9.937795565949125 1 0 0
2383 1 9.28653783268242 2.3210585241131296 8.334817137403654 0 1 0
2878 1 11.05819889690906 0.4245517446911514 9.23099632465357 0 1 1
2684 1 13.611649835796651 0.9569428224734002 8.439480211131647 0 2 0
3587 1 18.60801125296887 1.7608974789753973 7.339238427133918 1 1 0
618 1 21.448471540377078 0.693314332620566 9.021625446643709 0 1 -1
2032 1 23.531714117516596 1.4170184253298337 6.678017376484162 -1 0 1
2231 1 27.18897825215565 1.8369673526682369 6.922023446997319 1 0 0
2070 1 29.804083818294522 1.984129804998307 7.996071819461417 1 1 1
1406 1 34.77824647939918 0.15968409965338792 8.322359142112854 0 0 0
3033 1 38.17824461206674 1.5886273543301013 9.199938439494545 0 1 1
2600 1 43.428997712111645 2.4756370875882854 7.95268268273532 -1 1 0
1187 1 41.31544924605693 1.237763221574747 9.145898500903478 0 1 1
1713 1 45.28551859282434 0.43853961065751146 7.071326499831741 0 0 0
281 1 48.04206765511094 1.5207477126388018 9.576144721892085 -1 0 0
3936 1 49.35619702366043 1.4045351953520917 7.030976933082737 -1 0 1
3767 1 0.5802297425858236 4.622077064134736 7.532331760989738 1 0 1
1457 1 4.165630279960029 3.606241932558267 8.626593434620695 1 -1 1
1349 1 10.270362452820391 4.800551678036169 8.963311467096297 1 -1 1
2454 1 13.09848018823673 4.263366102690858 8.348212477140649 1 2 0
1280 1 21.30147348088102 3.4238926058428207 7.421623098872172 1 1 0
825 1 24.32064862066221 4.993289242029244 7.372664770024571 1 1 1
3782 1 21.91933967375054 5.4236744835074715 9.252256457663556 0 1 1
3583 1 25.913003798106402 3.123991037955207 8.766012435137862 -1 0 0
4067 1 33.76085468511309 3.260261188931522 8.117711505610725 1 1 1
2307 1 32.274321188682336 5.391370314316595 9.083405627760838 0 0 1
2960 1 36.31877695724826 4.287799207956178 8.710049187159596 -1 0 0
3223 1 38.459843301190745 3.6914485847649763 6.647654161640772 0 1 1
1368 1 39.405240940669636 5.2657767795358055 9.076820597809737 1 0 0
4105 1 41.896608623041374 6.150715701271303 7.203071495063626 0 1 0
1380 1 44.43973888970996 4.19663597555085 9.890092467170215 -1 1 0
4026 1 47.176190019327784 3.9640374793062643 9.49804560450057 0 1 0
1729 1 2.655880872918336 6.473208324685619 7.646047147631972 1 0 1
363 1 5.254602015385896 6.74737158365193 8.725021680702444 1 0 0
1048 1 8.243614225156128 8.226745332342844 8.730311500870796 1 1 0
511 1 10.952956027808481 8.025364841790164 7.737225818060286 -1 0 0
208 1 15.463036839109703 8.244251405055346 6.64670559750794 0 0 0
250 1 13.47917469996927 7.073740273315649 8.166353559723891 0 0 0
2072 1 16.973401427046262 7.407941548615239 9.785586475554654 -1 -1 2
1419 1 18.250135178661544 7.502724537827376 7.3255930087072425 -2 1 0
1957 1 20.82346692650134 7.703065220672747 8.590567186752322 0 0 1
1088 1 23.202147313839685 9.154630127576127 7.86229096225615 -1 0 0
803 1 25.501031490429465 7.645555605060795 8.01443039112036 -1 2 1
3938 1 29.834213976353748 8.755899157240567 8.153079092550861 -1 1 1
3297 1 35.854450308196526 6.953066722225518 7.3452980011031155 0 0 1
3522 1 35.60296444815388 9.228100008233792 9.348545625910175 -1 1 1
2474 1 42.1303431618506 8.379473233760068 9.514063259297973 0 1 0
2232 1 45.897438469163895 6.728662549868985 8.330571925478592 0 1 -1
2281 1 44.782982322918365 9.046404922281146 9.685881691633615 0 0 0
1316 1 48.57367681889486 6.684566477873125 7.80858163353534 -1 -1 0
3027 1 49.45784671871335 8.578489439851822 9.596667078667222 -1 0 0
2554 1 5.712762952576406 11.45167093467706 9.554120775673802 1 1 0
3044 1 7.4692767622861105 10.72403214330485 7.668295949135068 0 1 0
2599 1 9.570369619868494 12.106219586643395 7.407608309752713 0 1 0
1628 1 12.175406265121795 10.369498517670037 9.901979435522273 0 -2 1
3275 1 12.823241689297186 11.72262187388073 7.541416869450317 1 1 1
2491 1 17.52321784557898 9.965672821720515 9.75500033391726 1 1 0
2802 1 17.269530708506927 12.035164201191353 7.716853983899225 0 0 1
610 1 21.727926492931946 11.410535154731278 6.621399020915363 0 0 0
713 1 27.09261219696885 11.185155129764228 6.848880106258231 0 -1 0
2030 1 25.950473945319604 11.962149364859785 9.347201273816516 0 1 2
2147 1 33.39354374389489 10.807851333639235 8.491400666646095 0 1 -2
2515 1 38.13494868187189 10.756025901545165 8.175658151981171 -2 0 0
1096 1 41.043197618073314 10.691777179389483 7.609630325957248 1 -1 1
638 1 44.00118563774693 11.293283969264175 7.623565841791994 -1 -1 1
2186 1 46.303409358479 11.428446933643482 9.275290543308348 -1 2 0
2597 1 48.81954232488938 10.9065584739359 8.298152380423874 -1 1 0
988 1 0.47946845038372476 13.325993290469526 8.546432472355509 1 0 0
2967 1 3.5733662047913515 12.635959506244433 8.375854082955836 0 1 1
1698 1 5.191929663317132 15.122599875233098 8.749618680130238 1 -1 -1
2594 1 13.319465683393148 14.317546143986384 6.80966397879103 0 0 0
1124 1 15.811664387596997 14.788696346771966 6.956069442485051 0 0 0
3500 1 17.138440424639867 14.754152350689287 9.825441213214555 1 1 0
2754 1 19.562799424287597 13.72797912656505 7.291885230916594 0 0 0
3139 1 21.5958650098293 13.162119617472879 9.254791024106442 0 0 0
1060 1 24.123655634683317 13.68085428392314 8.02882620441101 1 -1 0
1580 1 28.76860855806298 14.046648440302745 6.64056740679558 1 -1 1
3211 1 31.454261739045197 13.036376871060021 7.1142757786986115 0 0 0
1486 1 33.25253041505381 15.230454441183372 9.489598472156654 0 1 0
28 1 37.51690623326846 13.132123771143997 9.220634779075588 0 -1 -1
3480 1 38.260429360396365 14.388343494598109 6.688743043390431 0 0 0
2023 1 43.0690506566328 14.051050059974706 7.867611605240751 -1 1 2
2258 1 40.701956385282465 12.688087415373001 9.73580767315958 1 0 0
3277 1 45.97359650275551 14.172267613180605 7.795585819389061 1 0 1
925 1 49.03043837866443 15.489641161302746 8.03597790849983 -1 1 1
1888 1 1.6242799846257938 16.356149306778416 6.7393104364218575 1 0 0
51 1 3.2491868125695222 16.977934820574788 9.075173787535338 2 0 0
420 1 8.97030362979705 16.38692667488223 7.864315796381224 0 -1 1
1206 1 11.634946259262989 16.09912930807707 8.50392704043465 0 0 0
1662 1 12.896093011330937 18.52822698926349 8.93076756935113 1 0 1
779 1 15.968726919215545 17.26805819212584 8.254928279762286 -1 0 1
2751 1 18.43291935730042 18.719046413028266 7.89122691517617 0 1 0
389 1 21.524548666175804 17.809236621296797 7.992991642226231 0 0 0
3665 1 24.37447519530387 18.411359199448455 7.502357060904193 0 1 0
3183 1 22.160584716359466 15.828935739374014 9.734574573753 0 1 0
656 1 28.065042865219592 16.1958064551143 8.153559975503677 1 0 1
4090 1 25.378504140298144 16.29288808857166 8.844902544671356 0 0 2
1740 1 29.065229729708413 18.21908669666079 6.911257732429577 0 -1 1
348 1 34.04942061646953 16.25679442436155 6.983378603833425 -1 0 0
1715 1 38.09131911028175 17.95382393562026 7.213141708658037 0 0 0
3975 1 39.18368059011539 16.50270641641422 9.364655424397498 0 1 1
1159 1 43.403814457780584 17.972761557801455 8.937108484987125 -2 0 0
1607 1 41.84581741596333 15.704804708991984 9.695484828389196 0 1 -1
3077 1 45.97106009115535 16.69022326738816 9.086232930908388 -1 1 0
3447 1 3.6714263292589773 19.640603289785894 8.790772305508776 0 1 1
1879 1 8.698986503717665 21.842149387450327 7.9869104551093795 0 0 1
3646 1 7.9607029735334685 19.048832944629424 8.269031060844242 0 0 1
628 1 11.083509582257449 20.209161810403778 7.391104499912737 1 0 0
1026 1 14.436089124941336 19.653942563338287 6.902345755797055 0 0 0
2572 1 21.535412258161806 20.939395328325805 8.94533173405533 0 0 -1
3550 1 18.887392519087808 21.59971207981206 7.629384226719025 0 0 1
4116 1 24.907282351763204 21.03300544211378 8.296764021125592 0 0 0
2884 1 27.910740740951727 20.836304620577994 7.319381838107183 0 1 0
2046 1 32.24406942539051 19.37497604321495 8.717257166733479 0 -1 1
1665 1 35.077033841120446 18.86053320510326 8.011440775664912 -1 1 1
2841 1 38.874386381715865 20.4028850309733 8.469450698108941 -1 0 0
2041 1 42.97497077128072 19.575651614449235 6.660423806358866 0 -1 1
2138 1 41.019918389822486 21.71698410011522 9.787410511710013 0 1 1
2968 1 45.90321912346188 18.828751527275465 7.113059560838746 0 1 1
2870 1 49.17587997120866 19.824014597565707 8.82009484006531 -1 0 0
3565 1 47.10204215112102 21.42608381867941 9.738216722076368 0 0 1
4 1 0.1431305211091269 24.70564826952747 9.331228880844305 0 0 0
2393 1 1.4473570913266471 22.791097683275474 6.736262724284134 0 0 0
75 1 2.675456018259622 23.26631791009622 9.428434631027724 1 -2 -1
218 1 5.2405119369017665 24.12708405509941 8.803040669648732 1 0 -1
3254 1 10.28799577448355 24.933479493016943 9.880170118089165 0 0 1
2838 1 12.328409022857837 23.757450173784672 8.277541556341715 -1 1 1
3396 1 15.019781145330137 23.56455666466979 9.201622053489784 1 1 2
2106 1 16.150058916779994 21.952206102243437 7.204888312985239 0 0 1
2351 1 18.25624455980768 23.948827417207365 9.396043568043156 1 1 0
2435 1 20.94843418796903 24.069296506380617 8.089786326286418 0 0 1
2750 1 23.57506922656501 23.847393421693177 6.911817096048387 -1 0 0
1222 1 25.74128212370795 24.674244649905184 8.474818781336943 0 0 0
3640 1 29.407926749285277 23.289664622119364 9.806465019522273 1 -1 1
1154 1 32.0126994889922 22.13226723014524 9.146765094550203 -1 -1 1
205 1 37.29516471023652 22.857741200620804 7.730076883237845 -1 0 0
83 1 34.78135735965337 23.09156808406924 9.16033120365919 0 -1 0
2223 1 39.07662839631422 24.984099071611375 9.267266534392663 -1 -1 0
4075 1 42.130575261214766 22.29072509611957 7.046591359672377 -1 1 0
936 1 46.62730620371762 22.984429110811842 7.620571353790745 -1 -1 -1
979 1 44.0813171037381 24.006696320844256 7.369236590175798 0 -1 0
3636 1 2.5728132791676828 1.7051505098989064 10.308595511590243 1 1 1
2756 1 2.983140588167621 2.1194167444829617 12.948353548170378 0 1 0
2778 1 7.8839394140038985 0.7288619856502558 12.443720981142494 0 0 -1
3209 1 10.811739437443181 0.6490810235143245 12.291662633892887 0 1 1
2137 1 15.061457317319785 0.33290317442287837 13.291370122222299 1 0 0
2608 1 18.515350343724744 1.3924728223916394 10.223661531301497 0 0 -1
139 1 15.758771318475869 1.3798669174677207 10.90952916034773 -1 0 0
3341 1 20.639029903284726 -0.07061065659884808 13.075921503095087 0 1 0
1456 1 20.307591267503515 2.82993152211017 13.050988123901298 -1 1 2
705 1 24.218579515989433 1.3763747336024474 10.124617826981567 1 1 0
3660 1 23.72454890130734 0.6051923319461171 12.987299290810963 0 0 1
2335 1 26.92414700590292 0.2969211283839825 12.173506996102788 1 0 -1
1949 1 27.696847028813124 2.6772343293112204 13.294496313175449 0 0 0
1106 1 32.98046563824337 1.7340847912506945 10.414585095389453 0 0 1
102 1 35.71817143384599 2.395283848852459 11.037576111113788 -1 0 0
3875 1 38.01604632746751 0.5694500238240994 12.260446206573148 0 0 1
1761 1 41.36617534937832 0.7018106443844525 12.542683018618778 0 0 0
3289 1 44.23189575185257 1.7360696434395488 11.313664922027677 0 1 1