
# Create simulation box of size 50 x 50 x 50 Angstrom
#
lattice	            sc 1
Lattice spacing in x,y,z = 1.0000000 1.0000000 1.0000000
region 	            all block 0 50 0 50 0 50 units box
create_box          1 all
Created orthogonal box = (0.0000000 0.0000000 0.0000000) to (50.000000 50.000000 50.000000)
  1 by 2 by 3 MPI processor grid

# fill box with 4175 randomly distributed atoms
#
create_atoms        1 random 4175 63782 all
Created 4175 atoms
  create_atoms CPU = 0.000 seconds
mass                1 18.015

# Define potential
#
pair_style          sw
pair_coeff          * * ML_mW.sw mW
Reading sw potential file ML_mW.sw with DATE: 2019-02-27

# Run minimization
#
minimize            1.0e-8 1.0e-8 10000 1000
WARNING: Using 'neigh_modify every 1 delay 0 check yes' setting during minimization (../min.cpp:187)
Neighbor list info ...
  update every 1 steps, delay 0 steps, check yes
  max neighbors/atom: 2000, page size: 100000
  master list distance cutoff = 6.0032907
  ghost atom cutoff = 6.0032907
  binsize = 3.0016454, bins = 17 17 17
  1 neighbor lists, perpetual/occasional/extra = 1 0 0
  (1) pair sw, perpetual
      attributes: full, newton on
      pair build: full/bin/atomonly
      stencil: full/bin/3d
      bin: standard
Per MPI rank memory allocation (min/avg/max) = 4.255 | 4.258 | 4.261 Mbytes
Step Temp E_pair E_mol TotEng Press 
       0            0    7792709.3            0    7792709.3    5898794.3 
     630            0   -45180.336            0   -45180.336   -154.07449 
Loop time of 1.11757 on 6 procs for 630 steps with 4175 atoms

98.4% CPU use with 6 MPI tasks x no OpenMP threads

Minimization stats:
  Stopping criterion = max force evaluations
  Energy initial, next-to-last, final = 
      7792709.32924461  -45180.0188663597   -45180.336116598
  Force two-norm initial, final = 2.0191930e+08 4.9721331
  Force max component initial, final = 1.0948746e+08 0.73126211
  Final line search alpha, max atom move = 0.053306038 0.038980685
  Iterations, force evaluations = 630 1000

MPI task timing breakdown:
Section |  min time  |  avg time  |  max time  |%varavg| %total
---------------------------------------------------------------
Pair    | 0.87694    | 0.97237    | 1.0311     |   5.2 | 87.01
Neigh   | 0.023827   | 0.024381   | 0.024795   |   0.2 |  2.18
Comm    | 0.041871   | 0.10099    | 0.19739    |  16.2 |  9.04
Output  | 0          | 0          | 0          |   0.0 |  0.00
Modify  | 0          | 0          | 0          |   0.0 |  0.00
Other   |            | 0.01983    |            |       |  1.77

Nlocal:        695.833 ave         704 max         685 min
Histogram: 1 1 0 0 1 0 0 1 0 2
Nghost:        1494.17 ave        1515 max        1468 min
Histogram: 1 1 0 0 0 0 1 1 1 1
Neighs:        0.00000 ave           0 max           0 min
Histogram: 6 0 0 0 0 0 0 0 0 0
FullNghs:      19997.0 ave       20462 max       19320 min
Histogram: 1 1 0 0 0 0 0 2 0 2

Total # of neighbors = 119982
Ave neighs/atom = 28.738204
Neighbor list builds = 26
Dangerous builds = 0

# Add velocity/set timestep
#
velocity            all create ${TEMP} 120598 rot yes dist gaussian
velocity            all create 230 120598 rot yes dist gaussian
timestep            5.0

# Define output
#
compute	            1 all msd
thermo	            100
thermo_style        custom step temp press vol etotal ke pe c_1[4] density

# Neighbor lists
#
neigh_modify        delay 0 every 1 check yes

# Set fixes
#
fix                 1 all momentum 10 linear 1 1 1 rescale
fix                 2 all nve
fix                 3 all temp/csvr ${TEMP} ${TEMP} 500.0 928347
fix                 3 all temp/csvr 230 ${TEMP} 500.0 928347
fix                 3 all temp/csvr 230 230 500.0 928347
fix                 4 all press/berendsen iso ${PRES} ${PRES} 1000.0 modulus 20000
fix                 4 all press/berendsen iso 250 ${PRES} 1000.0 modulus 20000
fix                 4 all press/berendsen iso 250 250 1000.0 modulus 20000

# Run 0.5 ns equilibration
#
dump                1 all custom 1000 eq.${NAME}.dump id type x y z vx vy vz
dump                1 all custom 1000 eq.liquid_density_MLmW.dump id type x y z vx vy vz
run                 100000
Per MPI rank memory allocation (min/avg/max) = 3.506 | 3.508 | 3.511 Mbytes
Step Temp Press Volume TotEng KinEng PotEng c_1[4] Density 
     630          230    892.42114       125000   -42318.699    2861.6373   -45180.336 2.7295415e-33   0.99914793 
     700    146.22012     145.2886    125273.23   -41439.608    1819.2562   -43258.864   0.27443419   0.99696873 
     800    180.03869   -33.186675    125006.67   -40639.639    2240.0236   -42879.662   0.65583057   0.99909463 
     900    199.21817      278.255    124685.13   -40187.727    2478.6528    -42666.38    1.1177128    1.0016711 
    1000    212.22685    326.09908    124996.48   -39879.798    2640.5055   -42520.304    1.5174214   0.99917603 
    1100    222.30868    261.80683    125025.35   -39679.841    2765.9426   -42445.784    1.9814616   0.99894532 
    1200    218.48571    141.27163    125195.19   -39702.465    2718.3776   -42420.842    2.4724366   0.99759021 
    1300    221.72479    326.02426    125100.33    -39669.46    2758.6779   -42428.138    2.9391986   0.99834664 
    1400    219.83502    331.53476     125210.6   -39650.678    2735.1656   -42385.844    3.3676433   0.99746741 
    1500    225.88193    403.26365    125034.08   -39593.855    2810.4007   -42404.255    3.8329139   0.99887564 
    1600     230.9621    158.01091    125181.16   -39491.199    2873.6076   -42364.807    4.3530954   0.99770201 
    1700    224.85917      219.494    125109.58   -39503.649    2797.6756   -42301.324    4.7544388   0.99827279 
    1800    224.25696    331.25895    124917.08   -39567.069     2790.183   -42357.252    5.1738166    0.9998112 
    1900    228.05598     210.2114     124943.3   -39533.664    2837.4499   -42371.114    5.5601943   0.99960138 
    2000    230.78021    306.67833    124860.21   -39488.767    2871.3446   -42360.112    5.9564393    1.0002666 
    2100    233.48374    262.58433    124878.94   -39444.891    2904.9816   -42349.872    6.5529299    1.0001165 
    2200    228.35914    334.48217    124698.48   -39471.091    2841.2218   -42312.313    7.0635037    1.0015638 
    2300    231.00839    107.97198     124668.1   -39451.006    2874.1835    -42325.19    7.3912798    1.0018079 
    2400    231.02235    257.13604    124532.64   -39477.657    2874.3573   -42352.014    7.6634299    1.0028976 
    2500    229.15301    78.854858    124580.74   -39421.468    2851.0991   -42272.567    8.1243213    1.0025105 
    2600    235.23149    328.84108     124829.8   -39370.397     2926.727   -42297.124    8.6423519    1.0005102 
    2700    231.26975    433.30176    125107.54       -39404    2877.4354   -42281.435    9.2024466   0.99828911 
    2800    236.30252    312.37858    125241.94   -39405.766    2940.0526   -42345.819    9.6585174   0.99721777 
    2900    231.13862    129.55659    124926.34    -39483.51    2875.8039   -42359.314    10.027548   0.99973709 
    3000    230.20098    146.08339    124967.59   -39510.667    2864.1379   -42374.804    10.306705   0.99940705 
    3100    231.42319    252.47905    125056.17   -39483.846    2879.3444   -42363.191    10.536184   0.99869918 
    3200    232.66419    382.92056    124986.52   -39551.078    2894.7848   -42445.862    10.828638   0.99925571 
    3300    229.22233    215.94789    124914.19    -39535.95    2851.9616   -42387.911    11.451238    0.9998343 
    3400    225.21726    454.15299    125185.38   -39554.769    2802.1309     -42356.9    11.876709   0.99766834 
    3500    228.43516    284.57372    125093.73   -39601.931    2842.1676   -42444.099    12.291466   0.99839933 
    3600    226.27285    157.90913    125217.87    -39633.52    2815.2644   -42448.785    12.877737   0.99740948 
    3700    225.05031    153.18611    125224.18   -39683.161    2800.0538   -42483.215    13.298644    0.9973592 
    3800    230.43079    252.70773    125377.79   -39639.817    2866.9971   -42506.814    13.810182   0.99613727 
    3900    225.16874    256.93255     125348.3   -39665.231    2801.5271   -42466.758    14.266652   0.99637167 
    4000    229.66605    284.94664    125451.13   -39664.308    2857.4823    -42521.79    14.593725   0.99555496 
    4100    230.34459    296.99077    125604.63   -39660.743    2865.9246   -42526.668     14.91094   0.99433829 
    4200    225.60389    433.22998    125592.57   -39672.691    2806.9413   -42479.633     15.29409   0.99443375 
    4300    230.36183    220.19088    125533.48   -39678.026    2866.1391   -42544.165    15.570571   0.99490184 
    4400    229.34431    224.90953     125269.7   -39678.035    2853.4792   -42531.514    15.988616    0.9969968 
    4500    225.52938    175.57777    125200.15   -39677.647    2806.0142   -42483.662     16.44243   0.99755065 
    4600    231.72109    101.24935    125175.82   -39725.932    2883.0509   -42608.983    16.812495   0.99774456 
    4700    229.93619     330.7893    125156.73   -39631.748    2860.8433   -42492.592    17.192848   0.99789675 
    4800    225.18079    244.76361    125208.72   -39686.609    2801.6772   -42488.287     17.42487   0.99748241 
    4900    232.25292    319.63344    125457.97   -39574.529    2889.6679   -42464.197    17.543056   0.99550067 
    5000    229.51092    501.73738    125679.16   -39526.671    2855.5522   -42382.223    17.821165   0.99374864 
    5100    233.34175    365.69105    125973.59   -39613.671     2903.215   -42516.886    18.234546   0.99142598 
    5200    229.18575    403.15279    126025.67   -39685.164    2851.5065    -42536.67    18.690827   0.99101628 
    5300    233.46852     212.3446    126084.31   -39667.209    2904.7923   -42572.001      19.0458    0.9905554 
    5400    227.92317      328.627    126169.79   -39697.115    2835.7976   -42532.913    19.375912   0.98988428 
    5500    231.94051    147.95612    125846.65   -39707.995    2885.7809   -42593.776    19.561951     0.992426 
    5600     232.3736    256.07957    125893.03   -39721.893    2891.1694   -42613.063    19.641288   0.99206045 
    5700    230.84721    196.66711    125992.57   -39731.539    2872.1781   -42603.718    19.930151   0.99127664 
    5800    230.38387    504.54088     126182.4   -39759.032    2866.4134   -42625.446    20.222314   0.98978539 
    5900    227.04764    329.18915    126077.88    -39809.49    2824.9043   -42634.395    20.370135   0.99060593 
    6000    227.99697    72.921673    126123.36   -39802.643    2836.7157   -42639.359      21.0176   0.99024869 
    6100     229.2274    239.78618    126167.82   -39740.682    2852.0247   -42592.706     21.03765   0.98989972 
    6200    227.76344    231.54509    126264.83   -39804.129    2833.8102   -42637.939     21.29842   0.98913919 
    6300    230.85966    194.11378    126055.11   -39766.704    2872.3331   -42639.038    21.527085   0.99078481 
    6400    228.23529    412.86025    126124.19   -39740.211    2839.6809   -42579.892    22.108427   0.99024218 
    6500    231.58287    262.41819    125963.72   -39688.638    2881.3312   -42569.969    22.450414   0.99150366 
    6600    228.91572    421.84355    125819.33   -39758.267    2848.1468   -42606.413      22.7057   0.99264152 
    6700    226.76877    347.50373    125981.16   -39822.406    2821.4346   -42643.841    22.955645   0.99136643 
    6800    228.09791    172.41591    126111.07   -39727.227    2837.9716   -42565.199    23.222975   0.99034517 
    6900    232.73909    377.00425    126053.57   -39655.367    2895.7167   -42551.083    23.717273   0.99079693 
    7000    226.77318    590.85292    126036.32   -39630.686    2821.4895   -42452.176    24.230957   0.99093254 
    7100    230.67461    233.54841    126077.35   -39645.935    2870.0307   -42515.966    24.616893   0.99061009 
    7200    231.90559    168.53891    125879.41   -39691.666    2885.3465   -42577.013    25.047972   0.99216776 
    7300    225.53181    118.11178    125725.36   -39753.091    2806.0444   -42559.135    25.473723   0.99338346 
    7400    227.14079    133.31673    125725.97   -39791.244    2826.0632   -42617.307    25.854261    0.9933786 
    7500    224.67306    158.10903     125549.2   -39761.755      2795.36   -42557.115    26.244007    0.9947773 
    7600    225.32993    102.39625    125452.57   -39828.554    2803.5327   -42632.087    26.655551   0.99554354 
    7700    228.08116    310.11156    125521.83    -39721.16    2837.7632   -42558.923    27.062625   0.99499415 
    7800    231.42059    255.55691     125530.4   -39691.872    2879.3121   -42571.184    27.641405   0.99492622 
    7900    229.82562    473.29999    125586.34   -39758.304    2859.4677   -42617.772    28.069514   0.99448311 
    8000    232.43357    295.17622    125788.45   -39721.336    2891.9155   -42613.252    28.330994   0.99288522 
    8100    227.85313    345.53702    125771.56   -39788.836    2834.9261   -42623.762    28.730471   0.99301854 
    8200    229.08959     355.0384    125944.42   -39803.888      2850.31   -42654.198    29.098163   0.99165561 
    8300    228.88997    319.23324     125990.8   -39803.764    2847.8264    -42651.59    29.277372   0.99129055 
    8400    229.01696    343.73678     126141.3   -39750.639    2849.4064   -42600.046     29.68348   0.99010787 
    8500    231.57677    95.694251    126051.36   -39675.438    2881.2553   -42556.693    30.110405   0.99081434 
    8600    230.72897    1.7185674    125782.77   -39685.508     2870.707   -42556.215    30.365313   0.99293004 
    8700    234.16349    408.84221    125659.85   -39665.209    2913.4389   -42578.648    30.915161   0.99390129 
    8800    230.84708    260.59095    125417.92   -39717.682    2872.1765   -42589.859    31.407589   0.99581851 
    8900    222.78196    302.10736     125553.6   -39790.279    2771.8312    -42562.11    31.800725   0.99474243 
    9000    228.41807    253.15952    125405.96   -39721.915     2841.955    -42563.87    31.852643    0.9959135 
    9100    221.26876    346.41768    125337.62   -39785.947    2753.0041   -42538.951    32.362885   0.99645656 
    9200    224.46164    345.14561    125468.33   -39678.724    2792.7295   -42471.454    32.804292   0.99541844 
    9300    223.60647    59.768731     125362.3   -39726.974    2782.0895   -42509.064    32.997721   0.99626033 
    9400    229.46691     191.3261    125246.78   -39678.027    2855.0046   -42533.032    33.300907   0.99717922 
    9500    227.61322    373.87705    125206.92    -39686.87    2831.9412   -42518.811    33.613549   0.99749673 
    9600    230.64964    406.13137    125274.55   -39653.878      2869.72   -42523.598    33.971907   0.99695821 
    9700    235.49314    336.95467    125355.99   -39591.764    2929.9824   -42521.746    34.367229   0.99631053 
    9800    230.14095    259.10127    125330.03   -39673.473     2863.391   -42536.864     34.59203   0.99651687 
    9900    229.09729    320.23397    125298.23   -39742.602    2850.4058   -42593.008    34.920184   0.99676982 
   10000    229.15585    282.01462    125432.18   -39740.263    2851.1344   -42591.398     35.32459   0.99570537 
   10100    227.07154    190.28959    125638.08    -39710.71    2825.2017   -42535.912    35.680693   0.99407354 
   10200     230.1254    98.791547    125737.25   -39765.157    2863.1975   -42628.354    36.118378   0.99328948 
   10300    225.93118    275.23472    125715.85   -39756.143    2811.0134   -42567.156    36.621108   0.99345859 
   10400    228.28512    298.29434    125783.73   -39698.388    2840.3009   -42538.689    36.845492   0.99292244 
   10500     228.9835    291.49401    125940.38   -39676.081    2848.9901   -42525.071    37.064486   0.99168743 
   10600    229.94038     299.8434    126077.18   -39618.116    2860.8955   -42479.012    37.420582   0.99061143 
   10700    231.37239    87.300356    125967.24   -39606.788    2878.7124     -42485.5     37.63164   0.99147593 
   10800    233.00169      126.398    126098.15   -39582.119     2898.984   -42481.103    38.003476   0.99044669 
   10900    235.34292    409.64157    126130.72   -39614.334    2928.1134   -42542.448    38.578259   0.99019091 
   11000    233.83363    277.98984    126161.73   -39604.551    2909.3349   -42513.886    38.941288   0.98994751 
   11100    229.75949    295.36657     126108.5   -39664.527    2858.6448   -42523.172     39.37201   0.99036541 
   11200    232.85973     192.3105    126121.41    -39668.03    2897.2178   -42565.248    39.497553   0.99026399 
   11300    229.18194     353.6051    126116.86   -39682.178     2851.459   -42533.637    39.861274   0.99029971 
   11400    229.40776    190.32595    126032.27   -39708.549    2854.2686   -42562.818    40.501171   0.99096441 
   11500    226.58415    205.96231    125925.05   -39723.353    2819.1376   -42542.491    40.845948   0.99180819 
   11600     228.3115     105.7138    125894.88   -39731.577    2840.6291   -42572.206    41.313029   0.99204584 
   11700    235.12364    222.80603    125917.13   -39613.089    2925.3851   -42538.474    41.822242   0.99187055 
   11800    230.36744    160.78663       126063   -39688.671    2866.2089    -42554.88     42.53375   0.99072282 
   11900    228.34658    368.56862    126176.53   -39705.226    2841.0656   -42546.291    42.753437   0.98983143 
   12000     228.2112    71.168442    126300.25   -39691.949    2839.3812    -42531.33      43.0706    0.9888618 
   12100    231.76048    162.40779    126188.15   -39653.285    2883.5409   -42536.825     43.37629   0.98974024 
   12200    229.90941    326.47496    126002.29   -39664.034    2860.5102   -42524.544    43.789252   0.99120014 
   12300    231.10678    381.36907    125996.24   -39681.382    2875.4078    -42556.79    44.159099   0.99124775 
   12400    229.85505    331.09378    125972.81   -39687.146    2859.8338   -42546.979     44.56509    0.9914321 
   12500    227.67689    379.28507    125984.84   -39783.756    2832.7333   -42616.489    44.916777   0.99133745 
   12600    230.43421    363.47803    125920.54   -39707.429    2867.0397   -42574.469    45.065547   0.99184369 
   12700    230.85966    144.09932    125602.94   -39692.441    2872.3331   -42564.774    45.331587   0.99435168 
   12800    233.50163    226.47125    125708.49   -39651.452    2905.2041   -42556.656    45.790901   0.99351677 
   12900    230.71978    294.01808    125625.39   -39698.978    2870.5927   -42569.571    46.244746   0.99417392 
   13000    232.47709    319.03179    125660.41   -39632.539     2892.457   -42524.996    46.884749   0.99389687 
   13100    237.06318    333.41394    126125.14   -39639.085    2949.5167   -42588.602    47.407879   0.99023473 
   13200    235.29468    231.70074    126260.15   -39566.829    2927.5131   -42494.342    48.085754   0.98917581 
   13300    230.38125    232.34351     126189.8   -39616.898    2866.3808   -42483.278    48.654701    0.9897273 
   13400    235.22325    283.15508    126387.48   -39705.563    2926.6244   -42632.187    49.267761   0.98817926 
   13500    231.48159    153.64381    126447.06   -39748.584     2880.071   -42628.655    49.609834   0.98771365 
   13600     223.3944    274.14093    126508.82   -39770.057    2779.4511   -42549.508    49.921636   0.98723146 
   13700    228.25739    350.80489    126541.82   -39763.677    2839.9559   -42603.633    50.131122   0.98697401 
   13800    232.34673    244.79257    126440.16   -39671.457     2890.835   -42562.292    50.547342   0.98776761 
   13900    229.08581    211.92698    126253.36   -39715.527     2850.263    -42565.79    50.664728   0.98922902 
   14000    232.62014    328.67027    126209.69   -39706.084    2894.2368   -42600.321    50.977875   0.98957136 
   14100    227.25506     267.4491    126282.13    -39714.95     2827.485   -42542.435    51.522252   0.98900367 
   14200    228.44313    445.95869    126215.63    -39749.02    2842.2668   -42591.287    51.913144   0.98952479 
   14300    228.08836    232.87604    126472.54   -39796.512    2837.8529   -42634.365    52.271796   0.98751468 
   14400    232.97388    200.74571    126452.72   -39768.301     2898.638   -42666.939    52.530388   0.98766947 
   14500    226.13001    221.65142    126290.92   -39707.145    2813.4872   -42520.632    52.690344   0.98893482 
   14600     231.1719     298.0149    126079.89   -39729.559    2876.2179   -42605.777    52.828875   0.99059007 
   14700    230.27466     149.5641    126056.83   -39781.117    2865.0546   -42646.172    52.900291    0.9907713 
   14800    229.20931    303.35646    126152.59   -39833.081    2851.7996    -42684.88    53.111214   0.99001925 
   14900    225.04641    438.34631    126260.16    -39919.69    2800.0051   -42719.696     53.48515   0.98917574 
   15000    223.27329    334.92552    126317.15   -39936.924    2777.9442   -42714.868    53.853694    0.9887295 
   15100     225.2023     258.7835    126402.68   -39972.099    2801.9447   -42774.044    54.133901   0.98806045 
   15200    230.59577    118.60157    126501.45   -39908.539    2869.0498   -42777.589    54.332571   0.98728898 
   15300     229.4086    505.28985    126602.94   -39935.557    2854.2791   -42789.836    54.523236   0.98649754 
   15400    227.88178    335.53539    126693.52   -39919.728    2835.2826   -42755.011    54.733538   0.98579229 
   15500    227.87852    462.46835    126747.27    -39909.01     2835.242   -42744.252    54.966888   0.98537417 
   15600    230.84374    328.89699    126665.79   -39851.704     2872.135   -42723.839    55.331772   0.98600804 
   15700    227.73138    265.28613     126715.9    -39961.66    2833.4113   -42795.071    55.654823   0.98561814 
   15800    228.15501    335.30213    126358.25   -39958.567    2838.6821   -42797.249    55.810697    0.9884079 
   15900    227.15031     187.4581    126262.41   -39982.405    2826.1817   -42808.587    56.108228   0.98915817 
   16000    226.11921    430.88966    126144.32   -39911.241    2813.3528   -42724.594    56.360131   0.99008411 
   16100     226.2173    407.64918    126286.58   -39837.515    2814.5733   -42652.089    56.637534   0.98896881 
   16200    229.55819    317.57737    126477.32   -39888.334    2856.1403   -42744.474    56.834195   0.98747738 
   16300     226.3155    26.326923    126488.54   -39914.754    2815.7951   -42730.549     57.38292    0.9873898 
   16400    235.03408    192.29423    126357.33   -39818.988    2924.2708   -42743.259      57.5185    0.9884151 
   16500    237.67207    387.54068    126447.76   -39803.193    2957.0923   -42760.285     57.75646   0.98770818 
   16600    233.95137    480.86143    126630.29    -39794.08    2910.7998   -42704.879    58.028204   0.98628452 
   16700     230.4697   -61.532726    126661.95   -39821.766    2867.4812   -42689.248    58.218733   0.98603797 
   16800    229.92284    126.74754    126318.32    -39809.77    2860.6772   -42670.447    58.311937   0.98872031 
   16900     230.5457    198.07176    126456.19   -39757.659    2868.4269   -42626.086    58.579193   0.98764236 
   17000    228.30173    82.903772    126485.33    -39765.59    2840.5076   -42606.098    58.917621   0.98741486 
   17100    233.53287   -72.566752    126355.12   -39674.423    2905.5929   -42580.016    59.098265    0.9884324 
   17200    231.24057    133.09858    126419.22   -39686.478    2877.0723    -42563.55    59.798028   0.98793119 
   17300    231.98936     145.7486    126165.53   -39738.601    2886.3887   -42624.989    60.039216   0.98991773 
   17400     235.5261    219.01247    126131.44   -39758.944    2930.3925   -42689.337    60.459195   0.99018528 
   17500    229.69554    111.83723    125949.75   -39736.314    2857.8492   -42594.163    60.760757   0.99161366 
   17600    231.20792    326.32176    126190.33   -39703.487    2876.6661   -42580.153    60.974165   0.98972319 
   17700    232.21187    268.08076    126026.25   -39728.822    2889.1571    -42617.98    61.487054   0.99101169 
   17800    230.41632    284.09452    125999.47   -39731.316     2866.817   -42598.133    61.751551   0.99122236 
   17900    235.56172    283.19938    126025.14   -39682.223    2930.8357   -42613.058     61.87014   0.99102045 
   18000    233.03434    250.24657    125985.69   -39618.552    2899.3902   -42517.943     62.02115   0.99133079 
   18100      227.766    106.85661    126092.51   -39698.417    2833.8421   -42532.259    62.097302   0.99049093 
   18200    228.31895    381.23653    126082.32   -39684.564    2840.7218   -42525.286    62.479088   0.99057101 
   18300    234.85117    476.05408    126068.68   -39605.843    2921.9951   -42527.838    62.888035   0.99067821 
   18400    232.23646    284.08844     126274.2   -39663.918    2889.4631   -42553.381    63.236996   0.98906575 
   18500     233.9272    265.78593    126170.57   -39614.953    2910.4992   -42525.452    63.578362   0.98987812 
   18600    230.84315    87.285379    125985.99   -39684.392    2872.1277    -42556.52    64.193897   0.99132839 
   18700      230.327     203.9732    126112.55   -39653.035    2865.7058   -42518.741    64.556341   0.99033355 
   18800    232.71133    224.97808    125980.67   -39634.206    2895.3713   -42529.577    64.890285   0.99137029 
   18900    236.79908    76.356982    125873.04   -39682.154    2946.2307   -42628.385    65.688925   0.99221797 
   19000    233.16685    284.60369    126007.23   -39659.229    2901.0389   -42560.268    65.888492   0.99116128 
   19100    229.86434    334.96944    126032.71   -39719.987    2859.9494   -42579.937    66.431283    0.9909609 
   19200    231.64447    156.03316    125879.67   -39703.184    2882.0975   -42585.282    67.009922   0.99216569 
   19300    231.50566    248.09498    125889.92   -39656.348    2880.3706   -42536.719    67.144486    0.9920849 
   19400    229.82633    244.53134    125896.45   -39651.255    2859.4765   -42510.732    67.389605   0.99203347 
   19500    234.50111    203.55661    125788.04   -39632.865    2917.6396   -42550.505    67.686422   0.99288841 
   19600    230.29661    244.02332    125849.44   -39669.158    2865.3276   -42534.485    67.802855   0.99240407 
   19700    233.68894    437.06156    125791.31   -39627.104    2907.5347   -42534.639    68.125019   0.99286266 
   19800    233.61702    280.43683    125802.45   -39684.073    2906.6399   -42590.712    68.547447   0.99277468 
   19900    237.74602    284.63628    125923.17   -39709.052    2958.0125   -42667.065    69.355916   0.99182299 
   20000      226.397    349.27558     126218.7   -39756.837    2816.8091   -42573.646    69.760566   0.98950069 
   20100    228.92205    314.42004    126361.81   -39706.188    2848.2255   -42554.413     70.07439   0.98838008 
   20200     224.4916    139.79648    126153.89   -39741.135    2793.1023   -42534.237    70.604462   0.99000905 
   20300    227.57434   -22.187089    125963.24   -39757.099    2831.4574   -42588.557    70.918536   0.99150743 
   20400    228.69852    81.690268    125747.91   -39750.833    2845.4443   -42596.277    71.131027   0.99320532 
   20500    232.77672    191.20038    125581.09   -39721.326    2896.1849   -42617.511    71.107056    0.9945247 
   20600    224.26276      113.634    125584.33   -39750.497    2790.2551   -42540.752    71.415597   0.99449897 
   20700    230.39136    424.44037    125759.51   -39679.294    2866.5065     -42545.8     71.62592   0.99311367 
   20800    229.94912    412.04486    125956.73   -39691.177    2861.0043   -42552.181    72.449296   0.99155872 
   20900    229.84886    176.69106    125805.81   -39717.052    2859.7567   -42576.808    72.904638   0.99274819 
   21000    226.05499    143.44509    125631.56   -39802.608    2812.5539   -42615.162    73.540962   0.99412512 
   21100    226.06774     174.7044    125542.06   -39819.749    2812.7125   -42632.462     73.81458   0.99483384 
   21200    226.32888    223.30189    125362.05   -39784.799    2815.9616   -42600.761    74.048968   0.99626235 
   21300    227.48005    156.94466    125290.47   -39785.658    2830.2843   -42615.943    74.064674    0.9968315 
   21400    227.07551    328.43564    125502.31   -39730.936    2825.2511   -42556.187    74.548433   0.99514896 
   21500    232.43649    431.87143    125536.89   -39717.999    2891.9518   -42609.951    74.764039   0.99487481 
   21600    232.17162    118.50453    125470.61   -39668.614    2888.6563    -42557.27    75.079277   0.99540033 
   21700    227.63465    -31.51999    125483.78   -39619.634    2832.2078   -42451.842    75.581476   0.99529587 
   21800    230.05362    296.29102    125531.59   -39608.903    2862.3044   -42471.207    75.978976   0.99491681 
   21900    231.49303    367.44463    125589.11   -39644.089    2880.2134   -42524.302    76.322686   0.99446117 
   22000     228.6716    216.33746    125756.15   -39694.295    2845.1094   -42539.404    76.757801   0.99314025 
   22100    227.07947    208.21442    125614.31   -39622.965    2825.3004   -42448.265    76.778802   0.99426164 
   22200    228.38624    343.07393    125777.24   -39648.215     2841.559   -42489.774    77.185503   0.99297369 
   22300     231.2911    184.54269     125653.6   -39618.898    2877.7009   -42496.599    77.837911   0.99395073 
   22400     231.9437    300.25753    125566.47   -39581.982    2885.8206   -42467.803    78.257435    0.9946405 
   22500    233.30584    249.94979     125515.1    -39589.71    2902.7682   -42492.478    78.437057   0.99504753 
   22600    232.82862    97.127378    125658.27   -39559.619    2896.8307    -42456.45    78.926228   0.99391384 
   22700     231.1335    165.94593    125545.89   -39564.728    2875.7402   -42440.468    79.137191   0.99480352 
   22800    230.99871    43.451647    125742.94   -39530.812    2874.0632   -42404.875    79.724942   0.99324459 
   22900    231.02857   -6.8324469     125580.1   -39568.492    2874.4346   -42442.926    80.197373    0.9945325 
   23000    232.54977    109.50939     125726.1   -39550.986    2893.3613   -42444.347    80.548297    0.9933776 
   23100     228.2556    24.162694    125601.59   -39681.405    2839.9336   -42521.339    80.810752   0.99436237 
   23200    228.91539    363.49696    125553.81    -39622.58    2848.1426   -42470.723    81.097485   0.99474078 
   23300    226.06276    345.82665       125659   -39671.105    2812.6505   -42483.755    81.635634   0.99390807 
   23400    233.40227    193.95201    125880.94   -39604.192     2903.968    -42508.16    82.459259    0.9921557 
   23500    230.45628    367.18623    125903.52   -39650.656    2867.3142   -42517.971    82.941387   0.99197774 
   23600    230.67309    203.40888    126091.31   -39635.933    2870.0118   -42505.945    83.641009   0.99050035 
   23700    231.13868    302.12039    125681.31   -39674.227    2875.8046   -42550.032    83.733058   0.99373159 
   23800    227.20984    168.37655    125674.18   -39742.753    2826.9224   -42569.675     84.18268   0.99378799 
   23900    224.15152    332.50243    125840.66   -39761.623    2788.8711   -42550.494    84.783667    0.9924733 
   24000    230.31999    210.76597    126022.41   -39680.177    2865.6185   -42545.796    85.244331   0.99104189 
   24100    230.14158    219.23368    126002.97   -39687.401    2863.3988     -42550.8    85.965791   0.99119479 
   24200    231.33518    168.93627       125881   -39755.774    2878.2495   -42634.023    86.164434    0.9921552 
   24300    232.31118    254.67137    125557.18    -39737.61    2890.3928   -42628.003    86.371517   0.99471407 
   24400    224.27705    241.42134    125753.96    -39777.64    2790.4328   -42568.073    87.123147   0.99315752 
   24500    229.84794    260.89114    125642.56   -39737.424    2859.7454   -42597.169    87.150301   0.99403813 
   24600     227.8047    441.21625    125655.79   -39718.758    2834.3235   -42553.081    87.717673   0.99393341 
   24700    226.68131    152.28554    125895.94   -39718.259    2820.3464   -42538.606    88.211623    0.9920375 
   24800    228.03108    389.47145    125895.59   -39708.069    2837.1401   -42545.209    88.277018   0.99204023 
   24900    233.88455    54.179373    125900.36   -39651.731    2909.9685     -42561.7    88.774889   0.99200268 
   25000    226.76441    408.42455    125885.38    -39631.76    2821.3804   -42453.141    88.582914   0.99212069 
   25100    230.39503    179.45724    125474.52   -39633.694    2866.5522   -42500.246    89.038081   0.99536931 
   25200    228.39808    379.79541     125318.6   -39665.907    2841.7064   -42507.614    89.188398   0.99660781 
   25300    228.37873    56.700013    125425.19   -39666.181    2841.4655   -42507.646    89.597229   0.99576086 
   25400    230.00347    81.252502    125412.75   -39641.665    2861.6804   -42503.345    89.772783   0.99585958 
   25500    229.03752    227.02019    125101.49    -39588.79    2849.6622   -42438.452    89.850117   0.99833735 
   25600    227.89358    80.252419    125229.72   -39671.491    2835.4294   -42506.921    90.611316    0.9973151 
   25700     225.0151    334.21321    125218.48   -39680.282    2799.6156   -42479.898    90.933261   0.99740463 
   25800    225.53978    401.15021    125404.56   -39635.508    2806.1436   -42441.652    91.501883   0.99592462 
   25900    232.03809    217.69298    125677.96    -39584.99     2886.995   -42471.985    91.997444   0.99375809 
   26000    232.94814    298.46711    125716.33   -39524.023    2898.3178    -42422.34    92.348661   0.99345477 
   26100    231.63883    437.18223    125767.87   -39619.538    2882.0274   -42501.566    92.972093   0.99304764 
   26200    234.36447    384.82118     125527.5   -39604.946    2915.9396   -42520.886    93.691622   0.99494924 
   26300    229.37734    239.77194    125282.01   -39565.036    2853.8902   -42418.926    94.100906   0.99689881 
   26400    231.82274    112.67449    125100.63   -39532.337    2884.3156   -42416.652    94.305049   0.99834425 
   26500    229.98549    279.70945     125071.3   -39565.552    2861.4567   -42427.008    94.489526   0.99857837 
   26600    226.81042    307.78967    124856.29   -39618.403    2821.9528   -42440.356    94.770813    1.0002979 
   26700    232.05548    241.36665    125087.55   -39652.232    2887.2113   -42539.444    95.367474   0.99844859 
   26800    231.85718    456.12243    125397.82   -39593.062    2884.7441   -42477.806    95.723911   0.99597819 
   26900    231.33968    413.38634    125458.59   -39613.681    2878.3055   -42491.987    96.018028    0.9954957 
   27000    231.02465    504.07335    125681.56   -39662.829    2874.3858   -42537.215    96.423645   0.99372967 
   27100    227.66386    245.56221       125794   -39675.434    2832.5713   -42508.006    96.862587    0.9928414 
   27200    228.23857    114.42906    125743.11    -39693.95    2839.7217   -42533.671    96.948856   0.99324325 
   27300    224.51246    102.86594    125689.91   -39718.322    2793.3618   -42511.684    97.514312   0.99366365 
   27400    230.76804    339.55684    125575.78   -39653.852    2871.1931   -42525.045    97.556811   0.99456668 
   27500    235.21472    317.48838    125797.33   -39595.599    2926.5183   -42522.117    98.023657   0.99281511 
   27600    229.78384    159.07941     125590.8   -39634.767    2858.9479   -42493.715    98.513549   0.99444779 
   27700    230.98484     279.8834    125971.61   -39631.749    2873.8905    -42505.64    99.038444   0.99144153 
   27800      232.871    285.11831    126041.91   -39576.284     2897.358   -42473.642    99.651814   0.99088859 
   27900    232.17671    2.8364392    126053.45   -39617.121    2888.7196   -42505.841    100.27301   0.99079788 
   28000    226.50459    197.20758    125868.31   -39658.797    2818.1477   -42476.944    100.23322   0.99225523 
   28100    231.06656    22.016376    125694.76   -39624.165    2874.9073   -42499.072     100.0998   0.99362531 
   28200    232.07955    259.14996    125732.69   -39661.842    2887.5109   -42549.353    100.19897   0.99332557 
   28300    231.47502    130.50701    125867.02   -39664.041    2879.9894   -42544.031    101.18112    0.9922654 
   28400    226.46695    222.14065    125785.56   -39692.918    2817.6794   -42510.597    101.62427   0.99290799 
   28500    226.85269    498.22785    125827.59     -39699.8    2822.4787   -42522.279    102.00287   0.99257639 
   28600    229.90669    241.27793    125843.48   -39664.264    2860.4764   -42524.741    102.17594   0.99245101 
   28700    230.82162    204.88565    125826.21    -39674.71    2871.8598    -42546.57    102.81285   0.99258728 
   28800    232.45515     383.9653    125820.18   -39634.501     2892.184   -42526.685    103.33766   0.99263478 
   28900    231.93646    155.24809    125721.65   -39601.379    2885.7305    -42487.11    103.50459   0.99341274 
   29000    224.11694    182.91799    125617.92   -39694.659    2788.4408     -42483.1    103.99222   0.99423308 
   29100     230.8801    180.96032    125166.22   -39635.157    2872.5874   -42507.744     104.0749   0.99782108 
   29200    228.40843    325.50664    125231.23   -39601.067    2841.8352   -42442.902     104.3807   0.99730312 
   29300    228.15795    208.59277     125355.1   -39658.579    2838.7187   -42497.297    105.01388   0.99631762 
   29400    231.36985    194.36048    125088.98    -39710.25    2878.6808   -42588.931    105.22021   0.99843723 
   29500    228.77702    407.44729    125162.74    -39733.31     2846.421   -42579.731    105.62736   0.99784877 
   29600    231.83304    167.37886    125629.49   -39661.391    2884.4437   -42545.835    106.06568    0.9941415 
   29700    228.38462    353.00651    125545.25   -39716.758    2841.5388   -42558.297    106.45228   0.99480856 
   29800    229.38574    354.61261    125588.31   -39687.841    2853.9947   -42541.836    106.78066   0.99446751 
   29900     229.8917    155.49397    125727.25   -39701.758    2860.2898   -42562.048    107.06485   0.99336849 
   30000     229.7706    266.70949    125695.61   -39668.813    2858.7831   -42527.596    107.42311   0.99361857 
   30100    225.93068    497.31301    125515.82   -39664.715    2811.0072   -42475.723    107.88694   0.99504179 
   30200    233.77383    310.14958    125839.84    -39680.44    2908.5909   -42589.031     108.9071   0.99247975 
   30300    228.65104    337.12814    125790.82   -39646.254    2844.8536   -42491.107    108.92514   0.99286652 
   30400    230.02333    278.39346    125711.89   -39629.275    2861.9275   -42491.202    109.17359   0.99348987 
   30500    228.93276    178.58115    125782.43   -39630.347    2848.3588   -42478.706    109.60871   0.99293271 
   30600    230.39253    406.00221    126103.66   -39628.204    2866.5211   -42494.725    110.54925    0.9904034 
   30700    233.36985    356.05734    126220.82   -39640.529    2903.5646   -42544.093    111.04821    0.9894841 
   30800    229.75225    265.30097    126233.04    -39572.75    2858.5548   -42431.305    111.22925   0.98938829 
   30900    229.43666    110.83668    126136.54   -39702.164    2854.6283   -42556.792    111.08153   0.99014525 
   31000    224.30332    189.57338    126059.33    -39734.18    2790.7598   -42524.939    111.65737   0.99075168 
   31100    228.80771    226.51844    126138.71   -39724.988    2846.8029   -42571.791    112.26828    0.9901282 
   31200    229.15726    152.22071    126060.99   -39738.396     2851.152   -42589.548    112.27224   0.99073861 
   31300    227.82209    159.27109    125798.46   -39695.627    2834.5399   -42530.167    112.56454   0.99280623 
   31400     228.6158    186.96145    125784.84   -39660.042    2844.4152   -42504.458    113.00628   0.99291373 
   31500    228.40563    260.33894    125805.34   -39715.326    2841.8002   -42557.127    113.60497    0.9927519 
   31600    231.64987    286.50309       125801   -39649.553    2882.1648   -42531.718      114.082   0.99278613 
   31700    232.05227    284.62238    125878.65   -39692.106    2887.1714   -42579.278    114.36842   0.99217372 
   31800    232.55701    211.72875    125876.68   -39641.338    2893.4513    -42534.79    114.51255   0.99218924 
   31900    233.84467    75.609939    126001.65   -39624.427    2909.4722   -42533.899    115.09303   0.99120523 
   32000    232.63105    135.65141    126020.76   -39624.819    2894.3725   -42519.191    115.28108   0.99105492 
   32100    232.50421     251.7756    125806.16   -39624.825    2892.7945    -42517.62    115.30438   0.99274546 
   32200    228.19977    18.876964    125961.24   -39622.326     2839.239   -42461.565    115.76437   0.99152317 
   32300    232.79374    344.63296    125747.88   -39607.913    2896.3967   -42504.309    115.50934    0.9932055 
   32400    228.20993    102.34555     125742.8   -39694.686    2839.3653   -42534.052     115.9636   0.99324564 
   32500    230.92126    188.25894    125794.95   -39707.535    2873.0995   -42580.635    116.77806    0.9928339 
   32600    234.18331    245.14394     125816.2   -39643.507    2913.6855   -42557.193    116.89498   0.99266624 
   32700    229.47866    127.67392    125730.19   -39727.839    2855.1508    -42582.99     117.0643   0.99334529 
   32800    225.44779    284.65275    125846.87   -39770.308    2804.9991   -42575.307    117.38908   0.99242428 
   32900    231.73676    38.848756    125804.26   -39756.024    2883.2459   -42639.269    117.66899   0.99276044 
   33000    227.65487    335.75443    125919.86    -39804.29    2832.4593   -42636.749    117.86828     0.991849 
   33100    228.48351    160.04707    126336.55   -39738.047    2842.7693   -42580.817    118.56193    0.9885777 
   33200    229.12523    361.23861    126225.09   -39775.776    2850.7535   -42626.529    119.20504   0.98945057 
   33300    229.05919    427.17715    126058.37   -39720.229    2849.9319   -42570.161    119.60239   0.99075923 
   33400    230.99307    197.50858    126215.39   -39811.638    2873.9929    -42685.63    120.01698   0.98952662 
   33500    227.19312    368.46899    126120.69   -39782.814    2826.7144   -42609.528    120.11604   0.99026968 
   33600    233.84384     286.6133    126388.56   -39766.957    2909.4619   -42676.419    120.61819   0.98817084 
   33700    230.79506    281.91191    126209.77   -39769.523    2871.5293   -42641.052    120.99957   0.98957073 
   33800    229.46457    300.83802    125970.57   -39760.294    2854.9755    -42615.27    121.24258   0.99144975 
   33900     233.6794    61.109362    125931.53   -39772.562     2907.416   -42679.978    121.53328   0.99175715 
   34000    233.56161    272.07832    125833.92   -39735.421    2905.9505   -42641.371    121.64654   0.99252645 
   34100    230.30906    93.899731    125610.82   -39770.178    2865.4826   -42635.661    121.77067   0.99428929 
   34200    226.78983    218.92738    125735.41   -39760.262    2821.6966   -42581.959    122.34476   0.99330406 
   34300    223.88841     461.4721     125782.9   -39816.436    2785.5975   -42602.034    122.46946   0.99292899 
   34400    230.48726    291.09057    126026.81   -39739.177    2867.6997   -42606.877    123.04304   0.99100733 
   34500    230.50159    204.33685    125839.15   -39753.311     2867.878    -42621.19    123.67444   0.99248516 
   34600    229.36924    346.85539    125875.14   -39733.597    2853.7894   -42587.386    124.16155   0.99220139 
   34700    231.78008    330.51655    125860.05   -39814.135    2883.7848    -42697.92     124.2971   0.99232034 
   34800    229.57416    394.66121    125947.88   -39802.739     2856.339   -42659.078    124.68713    0.9916284 
   34900    229.80593    386.33264    126259.15   -39827.513    2859.2227   -42686.735    124.99697   0.98918366 
   35000    222.30799    131.30223    126208.21   -39888.205    2765.9341   -42654.139    125.29377   0.98958292 
   35100    228.19751    62.782882    126016.94   -39820.573    2839.2109   -42659.784    125.54417   0.99108495 
   35200    228.15553    414.82516       126100   -39808.643    2838.6886   -42647.332    126.05381   0.99043215 
   35300    225.51701    251.52935     126183.5   -39793.671    2805.8604   -42599.532    126.48015   0.98977674 
   35400     226.3238    166.08965     126337.4   -39809.457    2815.8983   -42625.355    127.09217     0.988571 
   35500    230.95498    291.75352    126278.01   -39692.751     2873.519    -42566.27    127.68617   0.98903593 
   35600    228.89752     272.4805    126200.63   -39734.698    2847.9204   -42582.619    127.89332   0.98964236 
   35700    231.30899    130.87657    126022.15   -39706.892    2877.9235   -42584.816    127.68313   0.99104399 
   35800      233.454    151.30085    125871.62   -39751.692    2904.6115   -42656.303    127.69224   0.99222916 
   35900    234.67151    355.22778    125968.14   -39708.114    2919.7598   -42627.873    128.16926   0.99146889 
   36000    229.46556     155.5092    126209.05   -39677.992    2854.9878    -42532.98    128.75617   0.98957636 
   36100    229.99742    112.16706    126355.35   -39685.928    2861.6052   -42547.533    129.06526   0.98843059 
   36200    232.66337    360.06579    126004.08   -39716.103    2894.7747   -42610.878    128.54813   0.99118609 
   36300    227.74246    435.53794    125839.53   -39757.442    2833.5492   -42590.991    128.89022   0.99248218 
   36400    233.18298    167.65224    125855.41   -39693.304    2901.2395   -42594.544    129.22497   0.99235695 
   36500    227.66438    314.72733    125782.77   -39682.408    2832.5778   -42514.986    129.48662   0.99293008 
   36600     223.4271    199.69844    125689.97   -39799.788    2779.8578   -42579.646    129.91525   0.99366317 
   36700    229.01662    218.94658    125983.63    -39745.27    2849.4022   -42594.672    130.74277   0.99134698 
   36800    230.54759    255.99182    126130.28   -39762.781    2868.4504   -42631.231    131.15064   0.99019438 
   36900    231.15252    146.74463    125934.59   -39790.244    2875.9768   -42666.221     131.3423   0.99173302 
   37000    229.52667    119.08267    125856.89    -39716.35    2855.7482   -42572.098    131.57061   0.99234525 
   37100    229.92283    200.08058    125784.42    -39712.74    2860.6771   -42573.417    131.62167   0.99291702 
   37200    227.63749     386.3374     125673.9   -39768.167    2832.2431    -42600.41    131.96341   0.99379018 
   37300    227.46362    166.90952    125703.39   -39770.075    2830.0799   -42600.155    132.50397   0.99355709 
   37400    225.48665    312.23591    125723.81   -39803.696    2805.4826   -42609.178    132.62229   0.99339571 
   37500     225.8288    440.48356    125832.73   -39816.019    2809.7397   -42625.759    132.89924   0.99253578 
   37600    226.40226    268.48684    125804.04   -39761.464    2816.8746   -42578.338    133.30351   0.99276215 
   37700     225.9258    85.982066    125852.46   -39758.665    2810.9465   -42569.612    133.57747   0.99238018 
   37800    223.37959    269.44029    125938.71   -39849.377    2779.2668   -42628.644    133.86078    0.9917006 
   37900    227.50016    192.87574    126044.67   -39803.868    2830.5345   -42634.402    134.33597   0.99086688 
   38000    227.12378    12.884239    125897.28    -39784.15    2825.8517   -42610.001    134.68447   0.99202696 
   38100    228.75325    202.38387    125836.95   -39731.788    2846.1254   -42577.913     134.9301   0.99250256 
   38200    232.87945    222.27644     125870.5   -39748.292     2897.463   -42645.755    135.83202     0.992238 
   38300     230.3806    276.38981    125875.76    -39702.67    2866.3726   -42569.042    136.07379   0.99219656 
   38400    229.86334    116.18173    126087.98   -39780.258    2859.9369   -42640.195    136.56158   0.99052654 
   38500    228.09226    265.09566    125897.43     -39799.3    2837.9013   -42637.201    136.88561   0.99202572 
   38600    230.85299    275.91169    125861.23   -39735.416    2872.2501   -42607.667    137.14029   0.99231104 
   38700    229.51526    94.079675    125910.42   -39749.288    2855.6062   -42604.894    137.57181   0.99192342 
   38800    229.70283    260.21226    126065.25   -39770.646    2857.9399   -42628.586    137.50526   0.99070512 
   38900    227.39558    417.59917    125986.72   -39708.107    2829.2333    -42537.34    137.42184   0.99132266 
   39000    226.52922    262.39617     125857.5   -39753.108    2818.4542   -42571.563    137.83926   0.99234044 
   39100    229.16599    194.36178    125813.96   -39721.269    2851.2607    -42572.53    138.21293   0.99268387 
   39200    230.23661    410.77178    125899.02   -39741.656    2864.5811   -42606.238    138.90394    0.9920132 
   39300    233.51145     316.0347    125994.23   -39725.984    2905.3264    -42631.31    139.22386   0.99126359 
   39400    234.11068    267.29883    126123.57   -39695.525    2912.7819   -42608.307    139.98371   0.99024704 
   39500     229.9056    205.49528    126063.12   -39681.592    2860.4627   -42542.054     140.2289   0.99072191 
   39600     227.5029    286.24133    125927.58   -39723.364    2830.5686   -42553.932    140.48008   0.99178823 
   39700    228.60969    114.92228    126086.89    -39655.29    2844.3391   -42499.629    140.81416   0.99053509 
   39800    228.06248     427.8668    125787.66   -39729.029    2837.5308   -42566.559    140.88473   0.99289145 
   39900    228.15743    200.06326    125860.11   -39777.565    2838.7121   -42616.277     140.9846   0.99231993 
   40000    226.71554    168.37203    125749.25   -39816.439    2820.7723   -42637.211    140.89279   0.99319469 
   40100    227.47296    477.81359    125772.53   -39701.104    2830.1961     -42531.3    141.10566   0.99301085 
   40200     222.9675    243.64524    125800.18   -39718.404    2774.1396   -42492.544    141.50025    0.9927926 
   40300    232.75008    479.25688    125915.61   -39681.769    2895.8535   -42577.623    142.26477   0.99188254 
   40400     233.9272    271.10557    126195.73   -39580.931    2910.4992    -42491.43    142.55991   0.98968081 
   40500    233.81755    138.18648    126335.46   -39597.844    2909.1348   -42506.979    143.40285   0.98858618 
   40600    232.15224    295.55601    126398.25   -39615.201    2888.4152   -42503.617    143.77671   0.98809512 
   40700    229.59539     157.6829    126077.58   -39662.213    2856.6031   -42518.816    143.87754   0.99060829 
   40800    225.64275    258.65803    126036.98   -39716.293    2807.4248   -42523.718    144.57801   0.99092735 
   40900    225.72903    355.23914    126037.54    -39716.84    2808.4983   -42525.339     145.0001   0.99092292 
   41000    233.01361    70.166082    126104.76   -39632.694    2899.1322   -42531.827    145.83835   0.99039476 
   41100    229.62286    287.27505    126165.05   -39604.642    2856.9449   -42461.587     146.4648   0.98992143 
   41200     230.8514    373.59373    126074.25   -39608.076    2872.2303   -42480.306    146.59758   0.99063441 
   41300    223.37048    202.71572    125893.09   -39758.814    2779.1534   -42537.967    146.46768   0.99205998 
   41400    225.71858    397.80945    126117.46   -39693.503    2808.3683   -42501.871    146.94607   0.99029499 
   41500    228.40792    98.263756    125872.38   -39703.453    2841.8287   -42545.282    147.23976   0.99222313 
   41600      230.901    221.63217    125706.93   -39671.461    2872.8474   -42544.309    147.16973   0.99352906 
   41700    230.17182    156.46375    125762.78   -39664.401     2863.775   -42528.176    147.73282    0.9930879 
   41800    233.82651    143.27424    126024.51   -39689.624    2909.2464   -42598.871    148.19062    0.9910254 
   41900    232.82867    88.840784    126000.14   -39680.422    2896.8313   -42577.254    148.56707   0.99121711 
   42000    231.32344    394.19958    125960.61   -39699.394    2878.1033   -42577.497    148.88867   0.99152812 
   42100    224.33454    187.60541    125924.94   -39706.241    2791.1482   -42497.389    148.93934   0.99180905 
   42200    231.59046    287.86088     125943.3   -39659.079    2881.4256   -42540.504    149.35619   0.99166447 
   42300    236.50883    438.56978     126219.9   -39652.453    2942.6195   -42595.072    150.08854   0.98949125 
   42400    229.03827    257.90648    126106.55   -39699.201    2849.6715   -42548.873    150.48012   0.99038068 
   42500    232.24046    39.346626    125909.65   -39701.169    2889.5128   -42590.681     151.1218   0.99192943 
   42600    230.75394    315.86011    125801.17   -39709.653    2871.0178   -42580.671    151.59158   0.99278484 
   42700    230.85655    146.89742    125752.28   -39723.177    2872.2943   -42595.472    152.18209   0.99317081 
   42800    236.06642    181.61975    125550.43   -39661.391    2937.1151   -42598.506    152.73694   0.99476752 
   42900    231.02513    366.24781    125719.78   -39728.347    2874.3918   -42602.738    152.96195   0.99342752 
   43000     229.0532    397.99062    125915.08    -39738.95    2849.8573   -42588.807    153.57914   0.99188669 
   43100    230.37082    219.54592     126183.2   -39719.849     2866.251     -42586.1    153.82906   0.98977911 
   43200    231.02753    404.43697    126227.37   -39682.492    2874.4217   -42556.914    154.46814   0.98943273 
   43300    227.90605    262.92205    126238.87   -39702.627    2835.5845   -42538.211    154.46391   0.98934261 
   43400    231.58558     121.5779    126359.91   -39657.357    2881.3649   -42538.722    154.59153   0.98839488 
   43500    230.52124    266.87318    126220.18   -39670.074    2868.1224   -42538.196    155.01409    0.9894891 
   43600    237.62088    259.10826    126264.11   -39578.964    2956.4555   -42535.419    155.53485    0.9891448 
   43700    233.56554    456.45508    126333.73   -39622.336    2905.9994   -42528.336    155.85512   0.98859976 
   43800    231.61939    76.841778    126281.41   -39621.863    2881.7856   -42503.649     156.1875   0.98900934 
   43900    230.22833    258.65096    126334.46   -39674.562    2864.4781    -42539.04    156.89131   0.98859401 
   44000    230.58282    342.98561    126165.27   -39713.615    2868.8886   -42582.503    157.14763   0.98991971 
   44100    229.41344    259.85787     125869.3   -39741.998    2854.3394   -42596.338    157.17042   0.99224748 
   44200    228.64632    331.21279    125970.39   -39767.216     2844.795   -42612.011    157.65593   0.99145116 
   44300    224.33618    293.41485    125814.31   -39762.743    2791.1686   -42553.911    157.87131   0.99268116 
   44400    232.62755    339.03306    125907.68   -39742.597     2894.329   -42636.926    158.41803   0.99194499 
   44500     229.2321    267.55102    125810.99   -39776.304    2852.0831   -42628.387    158.45183    0.9927073 
   44600    227.41083    205.72563     125827.7   -39847.899    2829.4231   -42677.322    159.11942   0.99257546 
   44700    227.25343    456.71599    125750.85   -39829.674    2827.4647   -42657.139    159.47072   0.99318211 
   44800    227.59657    328.83007    125925.44   -39802.249     2831.734   -42633.983    159.71731   0.99180508 
   44900    228.72384    252.51085    126144.91   -39749.445    2845.7595   -42595.204    159.87921   0.99007953 
   45000    229.93718    387.06703    126056.74   -39757.067    2860.8557   -42617.923    159.67973   0.99077201 
   45100    230.81256    194.06403    126023.09   -39698.931    2871.7471   -42570.678    159.97066   0.99103654 
   45200    229.57511    382.07329    126143.59   -39747.213    2856.3508   -42603.564    160.20401   0.99008984 
   45300    230.04022    438.60769    126293.21   -39770.677    2862.1377   -42632.814    160.86085   0.98891688 
   45400      233.896     168.3414    126349.26   -39743.524    2910.1109   -42653.635    161.56867   0.98847825 
   45500    231.27781    245.52215    126221.38   -39760.517    2877.5356   -42638.052    161.80807   0.98947971 
   45600    231.12651    128.33547    126446.05   -39749.181    2875.6532   -42624.834    162.77165    0.9877216 
   45700    233.63075    240.97551    126447.64    -39758.52    2906.8107   -42665.331    162.77089   0.98770916 
   45800    232.34104    157.69391    126495.62    -39709.21    2890.7642   -42599.974    163.44098   0.98733451 
   45900    233.31526    101.58458    126505.85   -39644.837    2902.8854   -42547.723    163.79717   0.98725466 
   46000    236.08707    164.48267    126787.76   -39631.885     2937.372   -42569.257    164.07525   0.98505954 
   46100    241.91629    410.99758       126562   -39596.607    3009.8985   -42606.506     164.4302   0.98681669 
   46200    237.00198    318.56296     126642.1   -39606.558    2948.7552   -42555.313    164.43856   0.98619254 
   46300    233.94668    363.85123    126721.28   -39635.541    2910.7414   -42546.282    164.36248   0.98557628 
   46400    234.35917    167.92265    126455.78   -39680.766    2915.8736    -42596.64    164.75593   0.98764556 
   46500    233.78029    229.17024    126465.23   -39683.591    2908.6712   -42592.262    164.94809   0.98757179 
   46600    232.10279    257.05841    126530.24   -39666.185       2887.8   -42553.985    165.63016   0.98706437 
   46700    231.52753     212.9128    126399.61   -39761.636    2880.6427   -42642.279    165.57723    0.9880845 
   46800    229.34268    210.96855    126308.82   -39828.811     2853.459    -42682.27    165.98955   0.98879472 
   46900    232.39267    214.75415    126467.61   -39756.263    2891.4066   -42647.669    166.34182   0.98755321 
   47000    231.21186    128.89774    126416.47    -39717.75    2876.7151   -42594.465    166.56145   0.98795272 
   47100    229.31275    358.26987    126328.95   -39667.697    2853.0866   -42520.783    166.61865    0.9886371 
   47200    234.04559    389.91436    126329.42   -39716.987    2911.9721   -42628.959    166.75436   0.98863344 
   47300    230.74541    178.51005    126213.97   -39730.376    2870.9115   -42601.287    167.22128   0.98953778 
   47400    224.94198    399.27358    126380.89   -39684.447    2798.7058   -42483.153     167.8566   0.98823086 
   47500    229.99987    209.43108    126179.37    -39607.76    2861.6356   -42469.396    168.22392   0.98980914 
   47600    231.14648    23.337961    126218.84   -39542.941    2875.9017   -42418.843    168.21886   0.98949959 
   47700    230.53929     256.2208    126090.58   -39601.417    2868.3471   -42469.765    168.30009    0.9905061 
   47800    236.31864    181.41796    126147.39   -39612.995    2940.2531   -42553.248    168.51415   0.99006008 
   47900    229.42301    208.37839    126161.26   -39710.122    2854.4584   -42564.581    169.04542   0.98995122 
   48000    229.31299    336.58371     126067.6    -39716.87    2853.0896   -42569.959    169.73412   0.99068666 
   48100    229.77743    307.81762    126309.31   -39675.874    2858.8681   -42534.742    170.56328   0.98879088 
   48200    227.52752    432.41413    126212.99   -39709.786    2830.8749   -42540.661    170.99083   0.98954547 
   48300    229.12818    216.64695    126311.23   -39690.727    2850.7902   -42541.517    171.16328   0.98877583 
   48400     235.4497    380.80548    126448.94    -39629.38    2929.4419   -42558.822    171.40252   0.98769898 
   48500    235.51732    395.01586    126438.15   -39710.804    2930.2832   -42641.087    171.55017   0.98778328 
   48600    234.77561    230.22589    126528.01   -39728.262    2921.0549   -42649.317    171.90429    0.9870818 
   48700    235.40134    113.96378    126580.54     -39705.5    2928.8402    -42634.34    171.86045   0.98667217 
   48800    228.96968    234.98813    126611.48   -39738.298    2848.8181   -42587.116    172.62007   0.98643102 
   48900    230.46313    179.80924    126623.89   -39732.407    2867.3995   -42599.807    172.86296   0.98633433 
   49000    231.32061    201.20783    126410.19   -39785.921    2878.0682   -42663.989    173.10863   0.98800174 
   49100     227.6848    342.51866    126377.03   -39776.257    2832.8318   -42609.089    173.04746   0.98826102 
   49200    226.20422    224.46539    126497.16   -39794.116    2814.4106   -42608.526    173.02271    0.9873225 
   49300     230.7472    143.31076    126536.38   -39757.811    2870.9339   -42628.745    173.37665   0.98701647 
   49400    232.08054    152.69908    126401.91   -39726.392    2887.5231   -42613.915     173.4383   0.98806648 
   49500    230.49608     71.84109    126257.81   -39738.772    2867.8094   -42606.582    174.24149   0.98919421 
   49600    232.67932    230.14915    126250.06   -39741.437    2894.9731    -42636.41      174.271   0.98925492 
   49700    232.87094    360.70226    126292.02   -39765.363    2897.3573    -42662.72    174.99011    0.9889262 
   49800    226.65575    89.552044    126189.22   -39800.732    2820.0285    -42620.76    175.80103   0.98973187 
   49900    230.80974    166.49287     126049.7   -39662.243     2871.712   -42533.955    175.59749   0.99082739 
   50000    231.26654    230.54542    126001.73   -39694.523    2877.3954   -42571.918    175.82088   0.99120457 
   50100    234.27019    342.30866    126245.07   -39713.636    2914.7666   -42628.403    176.50294     0.989294 
   50200    232.60879    290.62372    126165.91    -39756.01    2894.0956   -42650.105    176.92192   0.98991474 
   50300    230.69107    194.62998    126162.27   -39725.838    2870.2355   -42596.074    177.65708    0.9899433 
   50400    227.57472    408.46475     126389.2    -39753.42    2831.4622   -42584.882    178.38091   0.98816583 
   50500    226.59097    235.93185    126397.58   -39802.644    2819.2225   -42621.867    178.92724   0.98810033 
   50600    229.26819    329.06137    126561.76   -39838.987    2852.5322   -42691.519    179.10677   0.98681855 
   50700    225.39613    306.95775    126246.92   -39862.707    2804.3563   -42667.064    179.06047   0.98927949 
   50800    221.88036    302.96009    126218.46   -39855.021    2760.6134   -42615.634    179.02425   0.98950259 
   50900    229.13731    446.26346    126350.63   -39764.997    2850.9038   -42615.901    179.01105   0.98846747 
   51000    227.84084    513.87099    126387.16   -39791.618    2834.7732   -42626.392    179.28925   0.98818183 
   51100    229.34168    328.61034     126490.3   -39833.329    2853.4466   -42686.776    180.14166   0.98737607 
   51200    228.52699    268.38756    126467.42   -39820.845    2843.3102   -42664.156    180.34645   0.98755467 
   51300    226.22054    290.57915    126312.13   -39877.452    2814.6136   -42692.066    180.77147   0.98876878 
   51400    223.27666    316.88778    126123.16   -39864.434    2777.9861    -42642.42     181.2842   0.99025023 
   51500    226.09931    197.38062    126201.93   -39854.772    2813.1053   -42667.878    181.85206   0.98963221 
   51600    226.77641    234.19553     126442.8    -39802.32    2821.5297    -42623.85    182.09742   0.98774696 
   51700    228.37218    212.47015    126356.29   -39788.092    2841.3841   -42629.476    182.41482   0.98842322 
   51800    227.19147    217.53057    126389.57   -39828.565    2826.6938   -42655.259    182.83098   0.98816294 
   51900    228.85313    281.25184    126328.99   -39878.583    2847.3681   -42725.951     183.0551   0.98863682 
   52000    223.67317    231.14814    126554.65   -39911.095    2782.9195   -42694.014    183.51774   0.98687401 
   52100    230.06414    164.62644    126436.56   -39850.986    2862.4353   -42713.421    183.56961   0.98779574 
   52200    226.78753    325.33083    126542.41   -39864.037     2821.668   -42685.705    184.29378   0.98696947 
   52300    227.29768    302.25595       126501   -39831.073    2828.0153   -42659.088    184.89944   0.98729248 
   52400    226.80146    366.41585    126582.54   -39770.899    2821.8413    -42592.74    184.93082   0.98665655 
   52500    227.78883     140.4139    126691.25   -39765.148    2834.1261   -42599.274    185.28052   0.98580991 
   52600    227.83015    164.52479    126590.69   -39785.735    2834.6402   -42620.375    185.38536   0.98659305 
   52700     226.9212    439.52763     126613.7   -39805.822    2823.3311   -42629.153     185.6566   0.98641372 
   52800    232.64692    112.93363    126602.29   -39765.602      2894.57   -42660.172    185.99068   0.98650261 
   52900    231.21853    219.22414    126764.43   -39751.619    2876.7981   -42628.417    186.69613   0.98524081 
   53000    231.92388     384.8197    126922.34   -39740.826    2885.5739     -42626.4     187.6982   0.98401503 
   53100    229.94652    96.947967    126922.24   -39800.341    2860.9719   -42661.313    188.04989   0.98401584 
   53200    230.34046    195.83344    126894.07   -39787.967    2865.8733    -42653.84    188.25893   0.98423424 
   53300    232.12063    378.44385    126995.32   -39787.067    2888.0219   -42675.089    188.53997   0.98344958 
   53400    226.48228    195.16891    126886.76   -39884.694    2817.8701   -42702.564    188.82435   0.98429097 
   53500    228.33361    310.45327    126833.81   -39886.623    2840.9042   -42727.527    189.19274    0.9847019 
   53600     229.9746       299.24    126752.45   -39890.998    2861.3212    -42752.32    189.69416   0.98533397 
   53700    224.88544    411.73235    126900.73   -39920.308    2798.0024    -42718.31    190.54205    0.9841826 
   53800    228.61198    167.30624    127041.19   -39811.219    2844.3677   -42655.587     190.8865   0.98309446 
   53900      229.711    163.44536    127106.98   -39870.103    2858.0415   -42728.144    191.13183   0.98258566 
   54000    226.97838    266.72064    126864.89    -39845.51    2824.0425   -42669.553     191.0944   0.98446063 
   54100    229.19799    227.26443    126825.31   -39837.849    2851.6587   -42689.508    191.43246   0.98476784 
   54200    227.37364    320.03877     126786.4   -39826.184    2828.9604   -42655.145     191.8978   0.98507011 
   54300    229.74757    465.68457    126921.62   -39782.632    2858.4966   -42641.129    192.25026   0.98402058 
   54400    231.13215    85.834994    126874.98   -39809.544    2875.7234   -42685.268    191.97382   0.98438235 
   54500    228.83691    133.22057    126784.91   -39806.669    2847.1662   -42653.836    192.06343   0.98508169 
   54600     232.4255    431.39521    126644.93   -39703.126    2891.8151   -42594.941    192.24816   0.98617046 
   54700    235.75787    344.06553    126610.28   -39732.257    2933.2762   -42665.533    192.73549   0.98644036 
   54800    227.17619    85.213066     126222.4   -39800.609    2826.5037   -42627.112    193.06658   0.98947168 
   54900    222.97376    139.61281    126010.36   -39830.652    2774.2175   -42604.869     193.2177   0.99113672 
   55000    226.91501   -82.498883    125841.71   -39890.506    2823.2542    -42713.76    193.41214   0.99246502 
   55100    229.50686    519.18435    125961.96   -39845.344    2855.5016   -42700.846    193.93547   0.99151755 
   55200    229.04735    253.48327    126156.66   -39850.228    2849.7845   -42700.012    194.96268   0.98998731 
   55300    232.76887     186.2343    126345.76   -39828.633    2896.0873    -42724.72    195.07219   0.98850558 
   55400     232.7023    381.99951    126453.32   -39815.883    2895.2591   -42711.142    195.68174   0.98766481 
   55500    234.04314    268.88761    126477.79   -39773.859    2911.9416   -42685.801    196.30573   0.98747371 
   55600    228.43292    100.32731    126278.79   -39815.895    2842.1398   -42658.035    196.36803   0.98902982 
   55700    227.07768    180.35966    126399.85    -39793.53    2825.2781   -42618.808    196.48153   0.98808259 
   55800    229.11085    407.64462    126472.11   -39785.394    2850.5746   -42635.968    196.81131   0.98751803 
   55900    231.39165    49.757564    126481.61   -39745.548     2878.952     -42624.5    196.90263   0.98744385 
   56000    232.58676    233.14717    126565.76   -39739.904    2893.8214   -42633.726    197.46307   0.98678736 
   56100    233.09301     30.27991    126646.33    -39717.69    2900.1202    -42617.81    197.83761   0.98615954 
   56200    229.58711    232.97892    126291.74   -39717.726    2856.5001   -42574.226    197.92962    0.9889284 
   56300    229.84079    180.03318    126276.84   -39743.852    2859.6564   -42603.508    198.41354   0.98904511 
   56400    235.14428    185.75445    126370.11   -39717.889    2925.6419   -42643.531    198.82559   0.98831511 
   56500    228.40669      244.425    126525.77   -39786.582    2841.8134   -42628.396    199.26342   0.98709927 
   56600    228.09314    183.63289    126400.65   -39802.489    2837.9123   -42640.401     199.1115   0.98807631 
   56700    226.47371    410.19875    126385.64   -39850.952    2817.7635   -42668.716    199.32476   0.98819369 
   56800    229.94135    61.739216     126475.4   -39788.764    2860.9076   -42649.672    199.42617   0.98749232 
   56900    229.07718     349.7414    126680.27   -39783.042    2850.1556   -42633.198    199.64184   0.98589535 
   57000    234.89881    133.78813    126531.82   -39733.045    2922.5878   -42655.633    200.04214   0.98705203 
   57100    232.82249    304.92792    126646.68   -39796.716    2896.7544   -42693.471    200.70255   0.98615686 
   57200    228.33031    438.09523    126913.03   -39837.308    2840.8632   -42678.171    201.27061   0.98408723 
   57300    224.01345    371.85624    126814.24   -39872.851    2787.1532   -42660.004     201.5096   0.98485385 
   57400    228.33707    480.84972    126867.91   -39885.785    2840.9472   -42726.733    201.77814   0.98443722 
   57500     224.6402    132.01262    126702.96    -39945.62    2794.9512   -42740.571    201.53118   0.98571881 
   57600    229.25006    366.59804     126810.1   -39911.382    2852.3066   -42763.688    201.71366   0.98488598 
   57700    225.93135    196.05855    126871.53   -39964.099    2811.0155   -42775.115    201.90615   0.98440914 
   57800    225.08316    316.32173     126866.5    -39987.57    2800.4624   -42788.033    202.27635   0.98444813 
   57900    227.49531    172.12329    126780.62   -39956.929    2830.4741   -42787.403    202.02269   0.98511499 
   58000    227.68309    299.48452    126580.56   -39962.119    2832.8104   -42794.929    201.86877   0.98667198 
   58100     227.9414    63.224879    126511.01   -39885.457    2836.0244   -42721.481    201.98343   0.98721444 
   58200    230.61859    93.466193     126168.1   -39833.706    2869.3337    -42703.04    201.55933   0.98989755 
   58300    232.82855    310.00848    126254.04   -39770.679    2896.8298   -42667.509      201.787   0.98922373 
   58400    231.34536    379.34945    126294.32    -39764.73    2878.3761   -42643.106    202.19657    0.9889082 
   58500    230.94368    359.83706    126378.15   -39779.146    2873.3784   -42652.524    202.56804   0.98825225 
   58600    230.55357    6.4666451    126287.79   -39746.709    2868.5247   -42615.234    203.14066   0.98895933 
   58700     231.0724    392.37919    126577.44   -39732.559      2874.98   -42607.539    203.84462   0.98669631 
   58800    230.44282    264.64245    126552.41   -39777.791    2867.1468   -42644.938    204.29556   0.98689143 
   58900    228.49219    245.20433    126660.85   -39807.712    2842.8772   -42650.589    204.73277   0.98604657 
   59000    224.94713   -18.658448    126404.07   -39782.574      2798.77   -42581.344    205.26284   0.98804964 
   59100     229.4985    95.243238    126140.04   -39777.849    2855.3977   -42633.247    205.57074   0.99011773 
   59200    229.40986    158.49008    126118.02   -39792.852    2854.2948   -42647.147    205.72581   0.99029059 
   59300    231.29718    306.40175     126236.7   -39795.147    2877.7766   -42672.924    205.85493   0.98935957 
   59400    226.91447    325.37511    126514.46   -39847.047    2823.2474   -42670.295    207.00599   0.98718751 
   59500    225.91763    288.53125    126727.46   -39809.653    2810.8449   -42620.498    207.09781   0.98552824 
   59600     229.2087    139.20687     126665.5   -39807.669     2851.792   -42659.461    207.23142   0.98601035 
   59700    229.64929    249.74114    126476.07   -39838.592    2857.2738   -42695.866    206.92015    0.9874871 
   59800    230.33273    382.61818    126539.39    -39838.92     2865.777   -42704.697    207.21279     0.986993 
   59900    232.27496    183.11679    126608.54   -39811.221    2889.9421   -42701.163    207.44578   0.98645394 
   60000    230.16708    287.46383    126589.87   -39849.964     2863.716    -42713.68    207.08157   0.98659944 
   60100    227.38803    295.24054    126700.66   -39808.583    2829.1394   -42637.722    207.79315   0.98573668 
   60200    232.19697    243.03876    126744.61   -39791.183    2888.9718   -42680.155    207.90477   0.98539491 
   60300    231.01005    414.05253    126392.58   -39746.498    2874.2042   -42620.702    208.24861   0.98813941 
   60400    231.39547    365.84807    126635.61   -39690.793    2878.9996   -42569.793    209.00063   0.98624309 
   60500    233.30515    216.52558    126519.57     -39719.8    2902.7596   -42622.559     208.9572   0.98714762 
   60600    227.71065    245.16876    126412.69   -39785.615    2833.1534   -42618.769    209.16188   0.98798221 
   60700    229.97141    416.11583    126461.46   -39824.076    2861.2816   -42685.358    209.49388   0.98760124 
   60800    227.26417    346.41712    126467.81   -39774.636    2827.5983   -42602.234    209.73626   0.98755161 
   60900    229.76853    284.89761    126389.82   -39771.368    2858.7573   -42630.126    210.00197   0.98816097 
   61000    231.78935    134.90923    126491.69   -39808.527    2883.9001   -42692.427    210.17974   0.98736518 
   61100    225.65992    537.79224    126312.07   -39853.889    2807.6384   -42661.527    210.55813   0.98876924 
   61200     227.6201    304.50674    126358.25   -39860.185    2832.0267   -42692.212     211.3437    0.9884079 
   61300    227.30423    154.96529    126570.61   -39860.304    2828.0968   -42688.401    211.86484   0.98674954 
   61400    229.81979    248.71402    126576.13   -39905.654    2859.3951   -42765.049    211.76086   0.98670651 
   61500    232.77168    98.824725    126499.78   -39912.583    2896.1223   -42808.705    211.78613   0.98730205 
   61600    227.76441    137.79631    126534.75   -39864.949    2833.8223   -42698.771    211.89145   0.98702921 
   61700    224.21306    242.80126    126420.62   -39939.971    2789.6367   -42729.608    211.98157   0.98792028 
   61800    223.85249    167.71177    126655.87   -39994.072    2785.1505   -42779.223    212.58905   0.98608533 
   61900    222.95335    98.133347    126642.37    -39929.41    2773.9636   -42703.374    212.43199   0.98619044 
   62000    228.07844    142.67897    126495.45   -39888.681    2837.7294    -42726.41    212.64919   0.98733586 
   62100    227.85939    476.82087    126413.81   -39894.756    2835.0041    -42729.76    212.83533   0.98797349 
   62200    230.04885    147.73877    126423.49   -39847.196    2862.2451   -42709.441    212.80199   0.98789786 
   62300     227.8849    299.62362    126457.67   -39873.807    2835.3214   -42709.128     213.0139   0.98763082 
   62400    233.37746    314.29121    126642.23   -39819.048    2903.6593   -42722.707    213.93786    0.9861915 
   62500    235.54128    284.62242    126732.61   -39849.357    2930.5813   -42779.939    214.66235    0.9854882 
   62600    229.51786    298.65984    126711.64    -39855.89    2855.6385   -42711.529    215.09259   0.98565132 
   62700    228.56231    4.4516537    126559.11   -39871.839    2843.7496   -42715.588    215.54527   0.98683919 
   62800    227.29675    282.73633    126452.59   -39853.158    2828.0036   -42681.162    215.42768   0.98767045 
   62900    230.43301    349.20598    126659.27   -39802.164    2867.0247   -42669.189    215.66247   0.98605884 
   63000    232.52056     121.5544     126866.1   -39761.593    2892.9978   -42654.591    215.86121   0.98445123 
   63100    235.19629    124.55344    126773.48   -39734.026     2926.289   -42660.315    216.04009   0.98517052 
   63200    227.52289    148.04729    126599.02    -39748.06    2830.8173   -42578.877    216.30795   0.98652808 
   63300    228.59278    254.01496    126552.91   -39778.544    2844.1288   -42622.672    216.41827   0.98688753 
   63400    231.01779     356.2681    126534.74   -39700.445    2874.3005   -42574.746    216.66901   0.98702925 
   63500    225.07493    312.08917    126392.23   -39785.845    2800.3601   -42586.205    216.47475    0.9881422 
   63600    231.44862    184.04049    126436.05    -39773.64    2879.6609   -42653.301     216.8094   0.98779968 
   63700    230.91514    373.17863     126460.2   -39775.366    2873.0234   -42648.389    217.32429   0.98761105 
   63800    223.06453    337.65101    126310.67   -39890.866    2775.3469   -42666.213    217.35223    0.9887802 
   63900    223.20396    396.05529    126353.58   -39867.202    2777.0816   -42644.284    218.34136   0.98844439 
   64000    227.31662    32.241456    126328.95   -39850.814    2828.2509   -42679.065    218.79581   0.98863715 
   64100    231.51349    336.05325    126443.01   -39770.124    2880.4679   -42650.592    218.81342   0.98774532 
   64200    229.74172    368.29144    126518.88   -39768.461    2858.4238   -42626.884    219.47763   0.98715296 
   64300    233.82527    451.70196    126693.76    -39673.05    2909.2309   -42582.281    220.15658   0.98579037 
   64400    232.84526    74.889663    126538.96   -39690.472    2897.0377    -42587.51    220.53293   0.98699633 
   64500    232.94883    68.796543    126337.78   -39676.333    2898.3263    -42574.66      220.565   0.98856801 
   64600     229.9543    277.47746    126170.33   -39702.666    2861.0687   -42563.734    220.73215   0.98988008 
   64700    235.47368    235.93377    125801.06   -39712.555    2929.7402   -42642.295     219.9249   0.99278569 
   64800    231.11218    153.77472    126019.84   -39730.162    2875.4749   -42605.637     220.9232   0.99106216 
   64900    233.10608    399.18508    126263.75   -39703.781    2900.2828   -42604.064    221.81333   0.98914766 
   65000    233.63759    243.47703    126357.57   -39676.698    2906.8958   -42583.593    222.65556   0.98841323 
   65100    228.27727    347.32938     126355.4   -39703.293    2840.2032   -42543.496    222.97888   0.98843022 
   65200    234.74187    481.74877    126328.98   -39705.065    2920.6352     -42625.7    223.50365   0.98863693 
   65300     231.9587    432.35445    126553.63   -39721.468    2886.0072   -42607.476    223.95725   0.98688196 
   65400    235.73466    336.96124    126560.32   -39680.291    2932.9874   -42613.278    224.08859   0.98682973 
   65500    228.03743    225.78568    126712.54   -39749.333    2837.2192   -42586.552    224.65436   0.98564429 
   65600    229.13522    133.22366    126521.38   -39782.961    2850.8777   -42633.839     224.5758   0.98713347 
   65700    229.65694    121.54649    126236.33   -39831.233     2857.369   -42688.602    224.49873   0.98936247 
   65800    228.52804     69.47694    125960.99   -39817.334    2843.3233   -42660.657    224.47704   0.99152519 
   65900    229.78198    288.30067     125985.7    -39769.48    2858.9247   -42628.405    225.08858   0.99133067 
   66000     236.2113    266.67854    126227.34   -39666.975    2938.9177   -42605.892    225.82044   0.98943293 
   66100    233.91624    279.54293    126310.26   -39613.888    2910.3628   -42524.251     226.6748   0.98878342 
   66200    230.06739    288.36396    126267.68   -39591.688    2862.4758   -42454.164    226.62967    0.9891169 
   66300    233.93742    275.87006    126021.64   -39642.033    2910.6262   -42552.659     226.7747   0.99104796 
   66400    233.76813    96.759219    126048.82   -39686.679      2908.52   -42595.199    226.78268   0.99083424 
   66500    230.79502    120.77664    125948.51   -39729.136    2871.5288   -42600.665    226.89706   0.99162344 
   66600    230.66753    350.03696    126161.24   -39767.528    2869.9426    -42637.47    227.37358   0.98995134 
   66700    227.57399    303.19229    126052.33    -39782.64    2831.4531   -42614.093     227.5673   0.99080668 
   66800    231.84094     57.90311    126186.28   -39714.984     2884.542   -42599.526     228.4464   0.98975488 
[...]
   84600    227.93453    436.86999    125871.23   -39808.882    2835.9389   -42644.821    296.71342   0.99223222 
   84700     227.4522    338.47554    125795.28   -39829.727    2829.9378   -42659.665    297.31429   0.99283128 
   84800    225.62749    262.12353    125733.44     -39799.3    2807.2349   -42606.535    297.57054   0.99331957 
   84900    226.36133     243.9348    125861.84   -39756.622    2816.3653   -42572.988    297.77613   0.99230626 
   85000    230.05764    171.15159    125606.79   -39698.285    2862.3544   -42560.639    297.96619   0.99432121 
   85100     230.8835    174.96334    125702.18   -39698.586    2872.6297   -42571.216    298.04466   0.99356664 
   85200    225.47976     200.2207    125713.68    -39705.05    2805.3968   -42510.447     297.9566   0.99347573 
   85300    223.57225    330.37001    125674.29   -39743.518    2781.6638   -42525.182    297.76607    0.9937871 
   85400    229.40406    90.934112    125823.77   -39737.029    2854.2227   -42591.252    298.87587   0.99260653 
   85500    229.25957    50.689611    125640.62   -39692.986    2852.4249   -42545.411    299.27209   0.99405348 
   85600    235.20473    128.53997    125724.28   -39673.534     2926.394   -42599.928    299.22658   0.99339194 
   85700    230.64671    271.29722    125587.53   -39719.337    2869.6836   -42589.021    299.74063   0.99447369 
   85800    231.77781    449.98342    125818.11   -39733.366    2883.7566   -42617.122    300.39591   0.99265114 
   85900    229.17599    303.82167    125750.85   -39634.288     2851.385   -42485.673    300.42521   0.99318206 
   86000    231.27715    194.11506    125646.81   -39677.564    2877.5275   -42555.091    300.47233    0.9940045 
   86100    232.67137    494.10859     125569.6   -39689.094    2894.8742   -42583.968    300.59451   0.99461566 
   86200    231.72745    46.505762    125904.03   -39659.443      2883.13   -42542.573    301.76306   0.99197373 
   86300    228.54724    36.581394    125754.96   -39688.599    2843.5622   -42532.161    302.45656   0.99314962 
   86400    229.15299    394.46194    125817.65   -39719.047    2851.0989   -42570.146    303.25696   0.99265481 
   86500    228.00769    458.47899    126078.33   -39688.927    2836.8491   -42525.776    303.06256   0.99060237 
   86600    230.44624    254.67846    126259.68    -39624.38    2867.1894   -42491.569    303.48124   0.98917957 
   86700     231.0526    156.16122    126064.54   -39621.883    2874.7336   -42496.616    303.83024   0.99071068 
   86800    222.83493    275.62448    126238.62   -39692.513    2772.4901   -42465.003    304.55659   0.98934458 
   86900    234.05671    166.56746    126243.98   -39648.113    2912.1105   -42560.224    304.54477   0.98930253 
   87000    232.04285    207.57775    126289.46   -39642.706    2887.0542   -42529.761    304.81853   0.98894631 
   87100    227.19522     79.85788    126147.66   -39674.339    2826.7405   -42501.079    305.01644   0.99005793 
   87200    229.98054    224.29855    125981.17   -39670.605    2861.3952   -42532.001     305.5721   0.99136637 
   87300    231.14372    230.00478    126038.07   -39690.932    2875.8674   -42566.799    305.96291   0.99091876 
   87400    232.64479    199.86915    125939.52   -39730.461    2894.5435   -42625.004    306.00864   0.99169418 
   87500    230.57888    362.94117     126015.6   -39744.517    2868.8396   -42613.357    307.09632   0.99109546 
   87600     229.5202    329.89836    126119.53   -39762.797    2855.6677   -42618.465    307.70715   0.99027873 
   87700    228.12936   -56.806542    125906.63    -39766.01    2838.3629   -42604.372     307.0118   0.99195326 
   87800    231.37257    287.91904    126089.55   -39749.364    2878.7146   -42628.078    307.34813   0.99051425 
   87900    230.91404    158.90869     126054.2   -39770.798    2873.0097   -42643.808    307.34298     0.990792 
   88000    228.37741    217.37155    126050.03   -39788.097    2841.4492   -42629.546    307.91498   0.99082479 
   88100     224.6122     309.1967    126100.65    -39727.79    2794.6027   -42522.393    308.25824   0.99042704 
   88200    229.93997     412.5089    126176.15   -39694.238    2860.8904   -42555.128    308.37192   0.98983435 
   88300    229.63003    265.77088    126270.95   -39722.618    2857.0342   -42579.652    308.72399   0.98909126 
   88400    225.81457    277.22864    126335.91   -39828.568    2809.5626   -42638.131     309.1877   0.98858269 
   88500    229.68518    382.35632    126300.18   -39729.458    2857.7203   -42587.178    309.42626   0.98886231 
   88600    234.61692    453.32761    126461.76   -39664.374    2919.0806   -42583.455    309.86188   0.98759888 
   88700    232.70285    133.45565    126630.31     -39651.1    2895.2659   -42546.366    310.84656   0.98628432 
   88800     234.9268    296.90194    126615.35   -39598.477     2922.936   -42521.413    310.75337   0.98640088 
   88900     230.0702    303.69218     126742.8   -39650.053    2862.5107   -42512.563    311.21346     0.985409 
   89000    233.28586    167.93806    126614.55   -39640.846    2902.5196   -42543.365    311.87158   0.98640708 
   89100    228.38958    350.98995    126529.53   -39749.092    2841.6005   -42590.692    311.93661   0.98706993 
   89200    226.38009    288.68833    126524.31   -39775.033    2816.5987   -42591.632    312.08033   0.98711061 
   89300    232.38104    274.70632     126407.2   -39805.093     2891.262   -42696.355     311.9285   0.98802515 
   89400    228.14331    211.63444    126463.78   -39830.745    2838.5365   -42669.281    312.19143   0.98758313 
   89500    220.17418    198.37289    126317.34   -39843.293    2739.3854   -42582.678     312.8599   0.98872804 
   89600    224.72064    96.856577    126052.81   -39882.086     2795.952   -42678.038    312.83029   0.99080289 
   89700    224.15247    232.15342    126146.92   -39846.982    2788.8829   -42635.865    313.55838   0.99006372 
   89800    228.43437    342.43723    126280.73   -39805.673    2842.1578   -42647.831    313.64461   0.98901466 
   89900    227.75655    303.49968    126218.32   -39867.893    2833.7245   -42701.617    313.57399   0.98950369 
   90000    230.26348    256.63774     126389.9   -39778.578    2864.9155   -42643.493    313.60447   0.98816037 
   90100    226.94255    306.58569    126347.85   -39786.099    2823.5967   -42609.696    313.50326   0.98848928 
   90200    227.25423    94.970839    126326.12   -39826.457    2827.4747   -42653.932    313.81278   0.98865925 
   90300     228.5115    528.92867     126324.1   -39833.294    2843.1174   -42676.411    314.58885   0.98867508 
   90400    228.70002    192.86458    126312.66   -39823.713    2845.4631   -42669.176    315.01401   0.98876466 
   90500    228.09929    269.00598    126274.96   -39781.246    2837.9888   -42619.235    314.99079   0.98905987 
   90600    233.57162    220.30925    126323.97   -39684.111     2906.075   -42590.186    315.13919   0.98867612 
   90700    230.53763    322.14371    126153.95   -39676.265    2868.3264   -42544.591    315.66055   0.99000855 
   90800    229.05089     166.8228    126062.49   -39705.216    2849.8285   -42555.044     315.9165   0.99072679 
   90900    226.75359     367.5229    126165.98   -39807.004    2821.2458    -42628.25     316.9298   0.98991418 
   91000    226.96452    186.95255    126218.23   -39826.178    2823.8701   -42650.048     317.2796   0.98950437 
   91100      226.564    420.87981    126401.13   -39814.354    2818.8868   -42633.241     317.8779   0.98807261 
   91200    226.55106     286.3443       126605   -39764.223    2818.7259   -42582.949    318.18865   0.98648154 
   91300    229.62099    195.70924     126728.6   -39679.653    2856.9216   -42536.575    318.97443   0.98551937 
   91400    234.15243    169.89224    126588.17   -39669.333    2913.3014   -42582.634    318.50478   0.98661265 
   91500    232.40314    125.25505     126590.6   -39688.047    2891.5369   -42579.584    319.50687   0.98659373 
   91600    231.57652    86.128621    126621.94   -39733.263    2881.2522   -42614.516    319.55135   0.98634955 
   91700    231.58466    392.12551    126467.71    -39820.48    2881.3535   -42701.833     319.5689   0.98755238 
   91800    230.44781    135.39524     126598.8   -39797.989    2867.2088   -42665.198    319.99899    0.9865298 
   91900    232.04516    178.12675    126598.51   -39801.591     2887.083   -42688.674    320.54944    0.9865321 
   92000    224.33174    252.40158    126593.28   -39799.142    2791.1133   -42590.255    320.89808   0.98657287 
   92100     224.2503    365.18496    126655.46   -39840.283    2790.1001   -42630.383     321.2301   0.98608848 
   92200    230.49101    123.36996    126704.52   -39781.976    2867.7463   -42649.722    321.48248   0.98570664 
   92300    232.29387    153.87019    126667.62   -39709.228    2890.1774   -42599.405    322.12388   0.98599382 
   92400    230.67982    323.85653    126561.96   -39708.595    2870.0955    -42578.69    322.80819   0.98681695 
   92500    231.44686    275.79248    126608.69   -39764.769    2879.6389   -42644.408    322.81731   0.98645278 
   92600    229.15937    302.70083    126438.84   -39732.251    2851.1782   -42583.429    322.76672   0.98777786 
   92700    233.33467    249.32198    126585.99   -39724.077    2903.1269   -42627.204    323.03921   0.98662966 
   92800    233.95767    346.18277    126468.62   -39771.039    2910.8782   -42681.917    323.38735   0.98754531 
   92900    231.31522    167.01402    126424.65   -39745.744    2878.0012   -42623.745    323.27844   0.98788877 
   93000    231.66765    355.79483    126327.04   -39780.866    2882.3859   -42663.252    323.16651   0.98865208 
   93100    232.29264    48.160597    126520.03    -39732.29    2890.1621   -42622.452    324.55708   0.98714399 
   93200    230.47613    275.28369    126444.09   -39755.763    2867.5613   -42623.325    324.65107   0.98773686 
   93300    231.07676    407.85746    126376.66   -39764.949    2875.0343   -42639.983    324.45247    0.9882639 
   93400    229.24239    59.943149    126288.45   -39791.604    2852.2111   -42643.815    324.26445   0.98895417 
   93500    221.30857    244.29629    126307.61   -39826.805    2753.4993   -42580.304    323.83068   0.98880417 
   93600    227.32002    104.49382    126001.07    -39889.01    2828.2932   -42717.303    323.76579   0.99120973 
   93700    227.72939     268.4242    125886.16   -39855.297    2833.3865   -42688.683    323.59438   0.99211459 
   93800    232.05261    212.90641    126064.31   -39834.401    2887.1757   -42721.576    324.27994   0.99071252 
   93900    229.29418    281.35792    126227.98   -39823.231    2852.8556   -42676.086     324.9483   0.98942795 
   94000    233.01794    253.72107    126480.93   -39838.151    2899.1862   -42737.337    325.14443   0.98744922 
   94100    227.57376    298.23514    126184.75   -39838.823    2831.4503   -42670.273     325.1024   0.98976695 
   94200    224.76223    351.52902    126140.39   -39823.742    2796.4695   -42620.212    325.69749   0.99011502 
   94300    232.01438    331.56732    126038.04     -39771.1       2886.7     -42657.8     325.9155   0.99091905 
   94400    232.94162    374.98136    125987.86   -39765.133    2898.2366    -42663.37    326.33598   0.99131373 
   94500    232.52674    290.55789    125688.97   -39697.517    2893.0747   -42590.592    325.76144   0.99367104 
   94600    231.54646    382.73188     125809.6   -39739.099    2880.8781   -42619.977    326.71013   0.99271826 
   94700    229.43577     534.7105    125889.35   -39770.882    2854.6172   -42625.499    327.23071   0.99208943 
   94800    227.68779    253.17624    125937.33   -39754.312     2832.869   -42587.181    327.54634   0.99171147 
   94900    232.24624    178.51225    126156.85    -39707.13    2889.5848   -42596.715    328.25468   0.98998583 
   95000    231.40231    219.15743    126131.69   -39691.412    2879.0846   -42570.497    329.10501   0.99018329 
   95100    231.93427    147.19185    125819.95    -39680.76    2885.7032   -42566.463    328.74352   0.99263662 
   95200    231.73093     79.36924    125759.68   -39693.116    2883.1733   -42576.289    328.39196   0.99311239 
   95300    235.65543    283.35589    125856.91   -39596.011    2932.0016   -42528.012    329.00554   0.99234516 
   95400    233.81691     218.5999    125758.72   -39659.187    2909.1269   -42568.314    329.02405   0.99311997 
   95500    229.30057    241.73405    125864.52   -39659.662     2852.935   -42512.597    329.95249   0.99228516 
   95600    229.24393    280.59961    125814.19   -39633.344    2852.2303   -42485.574    330.03946   0.99268209 
   95700    230.92917    94.910148    125577.41   -39696.446     2873.198   -42569.644    329.84713   0.99455381 
   95800    227.94685    299.15635    125419.18    -39753.74    2836.0922   -42589.832    329.95499   0.99580853 
   95900    228.72662     254.0113    125500.92   -39711.985     2845.794   -42557.779    330.51142   0.99515997 
   96000    231.19959    447.67042    125468.46   -39782.858    2876.5624    -42659.42     331.0598   0.99541743 
   96100    230.12483    152.57336    125238.22   -39726.243    2863.1904   -42589.433    330.54605   0.99724745 
   96200    225.90772    243.85577    125354.79   -39762.593    2810.7215   -42573.315     331.2403   0.99632008 
   96300    229.83524    228.56805    125339.49    -39718.54    2859.5873   -42578.127    330.98142   0.99644165 
   96400    228.04565    182.95253    125434.38    -39686.68    2837.3214   -42524.002    331.89759   0.99568787 
   96500    226.42588    271.62368    125292.29   -39729.959    2817.1684   -42547.128    331.50275   0.99681702 
   96600    229.98995    244.36796    125202.37    -39715.41    2861.5123   -42576.922    331.38154   0.99753299 
   96700    222.89797    306.92542    125225.66   -39788.444    2773.2745   -42561.718    331.98582   0.99734741 
   96800    227.86287    370.43408    125368.63   -39844.406    2835.0473   -42679.454    332.86442   0.99621007 
   96900    231.11921    403.54585    125570.76   -39777.885    2875.5623   -42653.448    333.56157   0.99460647 
   97000     225.4717    441.26817    125674.91   -39775.139    2805.2966   -42580.436    334.29458    0.9937822 
   97100    227.59483    215.55682    125715.42    -39767.59    2831.7124   -42599.303     334.0984   0.99346198 
   97200     234.4042     327.8493    125869.99   -39782.149    2916.4339   -42698.583    334.60903     0.992242 
   97300    227.94303    119.36568    125922.87   -39780.973    2836.0446   -42617.018    334.90866   0.99182529 
   97400    228.28859     265.5369    125871.06   -39780.658     2840.344   -42621.002      334.923   0.99223354 
   97500    231.21903    375.37109    126198.15   -39693.827    2876.8043   -42570.632    335.82399   0.98966179 
   97600     227.2975    4.2926477    125911.54   -39776.145     2828.013   -42604.158    335.51478   0.99191459 
   97700    229.63217    226.57353    125692.23    -39703.85    2857.0608   -42560.911     335.6165   0.99364527 
   97800    232.65665    211.06828    125606.42   -39674.008     2894.691   -42568.699    336.37204   0.99432411 
   97900    231.25859    247.37795     125508.3   -39627.155    2877.2965   -42504.451    336.35387   0.99510146 
   98000    233.25331    234.48542    125821.32   -39634.867    2902.1147   -42536.981    336.98175   0.99262582 
   98100    229.09465     305.8641    125749.85   -39709.897    2850.3729    -42560.27    337.41915   0.99319001 
   98200    228.63548    165.32697    125702.19   -39693.651      2844.66   -42538.311    337.59119   0.99356658 
   98300    230.89295    471.52587    125924.47   -39711.069    2872.7472   -42583.816     338.6901   0.99181276 
   98400    227.86359    44.851494    126119.72   -39725.613    2835.0562    -42560.67    338.99249   0.99027727 
   98500    229.34748    355.52828    126218.87   -39731.998    2853.5187   -42585.517    339.90341    0.9894994 
   98600     231.2389    337.09435    126258.88   -39781.001    2877.0515   -42658.053    340.26906   0.98918577 
   98700    223.79591     86.16528    126360.25   -39830.178    2784.4466   -42614.625    340.45875   0.98839223 
   98800    227.59429     195.8299    126055.77   -39805.507    2831.7056   -42637.212    340.11855   0.99077963 
   98900    227.70451    273.70254    126089.46   -39810.588     2833.077   -42643.665    340.04688   0.99051493 
   99000     223.6251   -56.609395    126105.28   -39853.921    2782.3214   -42636.242    340.35836   0.99039068 
   99100    226.73584    175.98782    125875.88   -39766.386    2821.0249   -42587.411     340.2552    0.9921956 
   99200    228.34352    351.51386    126072.48   -39751.173    2841.0275     -42592.2    341.33613   0.99064835 
   99300    231.91154     78.02332    126030.77   -39708.849    2885.4204   -42594.269    341.48344   0.99097619 
   99400    234.71854    324.55038    126119.29   -39684.777    2920.3449   -42605.122     341.5916   0.99028061 
   99500    240.06008    175.74835    125902.31   -39582.023    2986.8038   -42568.827    341.49249   0.99198731 
   99600    233.50762    134.20311    125947.55    -39603.33    2905.2787   -42508.609    341.86381   0.99163095 
   99700    234.91924    214.81642    125771.97    -39601.28     2922.842   -42524.122    341.53004   0.99301529 
   99800    232.49056    416.30771     125635.9   -39611.095    2892.6245    -42503.72    341.66315   0.99409078 
   99900    230.52581    191.66401    125581.04   -39668.121    2868.1794     -42536.3    342.33571   0.99452508 
  100000    229.18465    204.20795    125572.91   -39668.694    2851.4928   -42520.187    342.97739   0.99458942 
  100100    231.31611    337.76788    125566.52   -39591.279    2878.0122   -42469.291    343.30519   0.99464007 
  100200    231.33753    275.23023    125379.08     -39599.3    2878.2787   -42477.579    343.20694   0.99612701 
  100300    231.57424     303.9503    125484.47   -39588.049    2881.2238   -42469.273    344.11703   0.99529043 
  100400    231.59928    205.39053    125363.26   -39618.097    2881.5353   -42499.632    343.79025   0.99625276 
  100500    234.58552    63.283086    125415.19   -39538.398    2918.6898   -42457.087     343.8296    0.9958402 
  100600    231.60549    420.66792    125468.47   -39617.088    2881.6126     -42498.7    344.23876   0.99541732 
  100630    231.25878     546.2227    125640.85   -39599.864    2877.2989   -42477.163    344.71371   0.99405162 
Loop time of 98.8507 on 6 procs for 100000 steps with 4175 atoms

Performance: 437.023 ns/day, 0.055 hours/ns, 1011.626 timesteps/s
98.7% CPU use with 6 MPI tasks x no OpenMP threads

MPI task timing breakdown:
Section |  min time  |  avg time  |  max time  |%varavg| %total
---------------------------------------------------------------
Pair    | 81.537     | 82.399     | 83.609     |   7.2 | 83.36
Neigh   | 5.3591     | 5.3791     | 5.4026     |   0.7 |  5.44
Comm    | 7.2086     | 8.4094     | 9.2555     |  22.3 |  8.51
Output  | 0.16446    | 0.16552    | 0.17046    |   0.5 |  0.17
Modify  | 1.8169     | 1.844      | 1.8656     |   1.2 |  1.87
Other   |            | 0.6536     |            |       |  0.66

Nlocal:        695.833 ave         705 max         689 min
Histogram: 1 0 1 2 0 0 1 0 0 1
Nghost:        1494.67 ave        1514 max        1479 min
Histogram: 2 1 0 0 0 1 0 0 0 2
Neighs:        0.00000 ave           0 max           0 min
Histogram: 6 0 0 0 0 0 0 0 0 0
FullNghs:      20034.0 ave       20474 max       19729 min
Histogram: 1 1 1 0 1 0 1 0 0 1

Total # of neighbors = 120204
Ave neighs/atom = 28.791377
Neighbor list builds = 5825
Dangerous builds = 0

undump              1
unfix               2
unfix               3
unfix               4


################################################
#######         Run Simulation         #########
################################################

reset_timestep      0
log                 log.run_${NAME}
log                 log.run_liquid_density_MLmW
