
# Define the lattice
#
variable	    lattice_constant equal 6.2045
lattice		    diamond ${lattice_constant}
lattice		    diamond 6.2045
Lattice spacing in x,y,z = 6.2045 6.2045 6.2045

# Define region
# multiples of lattice spacing
#
region 		    simbox block 0 4 0 5 0 5

# Create Atoms
#
create_box          1 simbox
Created orthogonal box = (0 0 0) to (24.818 31.0225 31.0225)
  1 by 2 by 5 MPI processor grid
create_atoms        1 box
Created 800 atoms
  create_atoms CPU = 0.000267506 secs
mass                1 18.015

# Define potential
#
pair_style          sw
pair_coeff          * * ML_mW.sw mW
Reading potential file ML_mW.sw with DATE: 2019-02-27

# Add velocity/set timestep
#
velocity            all create ${TEMP} 120598 rot yes dist gaussian
velocity            all create 270 120598 rot yes dist gaussian
timestep            10.0

# Define output
#
compute	            1 all msd
thermo              50
thermo_style        custom step temp press vol etotal ke pe c_1[4]

# Neighbor lists
#
neigh_modify        delay 0 every 1 check yes

# Set fixes
#
fix                 1 all momentum 10 linear 1 1 1 rescale
fix                 2 all nve
fix                 3 all temp/csvr ${TEMP} ${TEMP} 500.0 928347
fix                 3 all temp/csvr 270 ${TEMP} 500.0 928347
fix                 3 all temp/csvr 270 270 500.0 928347
fix                 4 all press/berendsen iso ${PRES} ${PRES} 1000.0 modulus 20000
fix                 4 all press/berendsen iso 1 ${PRES} 1000.0 modulus 20000
fix                 4 all press/berendsen iso 1 1 1000.0 modulus 20000

# Run 1 ns equilibration
#
dump		    1 all atom 1000 eq.${NAME}.dump
dump		    1 all atom 1000 eq.ice_box_270K_1atm.dump
run	            100000
Neighbor list info ...
  update every 1 steps, delay 0 steps, check yes
  max neighbors/atom: 2000, page size: 100000
  master list distance cutoff = 6.00329
  ghost atom cutoff = 6.00329
  binsize = 3.00165, bins = 9 11 11
  1 neighbor lists, perpetual/occasional/extra = 1 0 0
  (1) pair sw, perpetual
      attributes: full, newton on
      pair build: full/bin/atomonly
      stencil: full/bin/3d
      bin: standard
Per MPI rank memory allocation (min/avg/max) = 4.454 | 4.454 | 4.454 Mbytes
Step Temp Press Volume TotEng KinEng PotEng c_1[4] 
       0          270    27657.516    23884.732   -6216.7097    643.05015   -6859.7599            0 
      50      216.367   -2123.4026    26305.287   -6666.8179    515.31419   -7182.1321    1.4682221 
     100    246.54347   -2123.2077    24937.084   -6669.6074    587.18449   -7256.7919    2.5835667 
     150    271.61436   -979.12714    24001.465   -6723.1042    646.89503   -7369.9992    4.0170588 
     200    270.57184   -758.69548    23611.017    -6776.002    644.41207    -7420.414    5.6915591 
     250    276.72288   -645.08893    23374.229   -6780.2231    659.06181   -7439.2849    7.0334786 
     300    275.07609   -310.24789     23240.27   -6796.8599    655.13971   -7451.9996    8.3895221 
     350    271.26431    447.82152    23130.493      -6832.3    646.06131   -7478.3613     9.533645 
     400    268.77562    225.58317    23178.448   -6846.2752    640.13408   -7486.4092    11.040598 
     450    280.99933   -411.41816     23157.62   -6839.2616    669.24691   -7508.5085    12.740188 
     500    271.66337   -998.52943     23106.63   -6859.0718    647.01175   -7506.0835    13.688877 
     550    267.62865    269.68787    23073.633   -6819.6568    637.40239   -7457.0592    14.989432 
     600    279.45467    16.028254    23071.482   -6797.2383    665.56804   -7462.8063    16.349723 
     650    278.30983   -261.80893    22948.822   -6796.7112    662.84141   -7459.5526    17.760705 
     700    278.67836   -84.002659    22991.033   -6819.1665    663.71913   -7482.8856    19.124327 
     750    278.03077    390.64947    22946.216   -6830.9044    662.17676   -7493.0812    20.223352 
     800    280.77096   -72.793842    22982.562   -6815.8753      668.703   -7484.5783    21.681122 
     850    271.74217   -1473.0914    23042.837   -6835.5639    647.19942   -7482.7633    23.200301 
     900    276.11083    -336.1043    23030.513   -6839.9576    657.60413   -7497.5617    24.668553 
     950    269.12395   -3.4805166    23129.187   -6863.5075    640.96369   -7504.4712    26.242451 
    1000    270.52041    330.07886    23059.139   -6887.5111     644.2896   -7531.8007    27.416148 
    1050    262.99684   -133.81195    22981.521   -6889.7409    626.37095   -7516.1119    28.389536 
    1100    272.90511   -212.30353    23221.545   -6853.1009    649.96917     -7503.07    30.290894 
    1150    268.54261    315.78887    23230.048   -6874.2674    639.57913   -7513.8465    32.070715 
    1200    269.40856    466.10382    23300.122   -6830.4821    641.64154   -7472.1236    33.743327 
    1250    271.90016    462.59644    23364.188   -6821.9153     647.5757    -7469.491    34.897466 
    1300      274.513    236.54769    23301.928   -6791.2059    653.79861   -7445.0045    36.222442 
    1350    262.40748   -193.17601    23297.378   -6838.2814     624.9673   -7463.2487    37.416582 
    1400    266.95141    69.402609    23252.742   -6819.8271    635.78942   -7455.6165    38.721023 
    1450    262.31663   -446.87684    23139.668   -6868.3252    624.75093   -7493.0761     40.46619 
    1500    272.04831      411.427    23068.187   -6859.7276    647.92855   -7507.6561    41.599509 
    1550     266.4798    626.48214    23194.134   -6854.0568     634.6662    -7488.723    42.874797 
    1600    272.42802    26.482374    23222.673   -6838.7914    648.83288   -7487.6242    44.123063 
    1650    275.54258   -409.68151    23200.708   -6825.7752    656.25073   -7482.0259    45.473579 
    1700    272.01156   -654.03542    23111.188   -6849.1415    647.84101   -7496.9826    46.359456 
    1750    282.35459    167.96714     22938.19   -6837.6743    672.47468    -7510.149    47.396154 
    1800    286.72363   -1108.7871    22910.001   -6819.4363    682.88027   -7502.3166    48.087113 
    1850    275.60661   -408.34711    23030.152   -6834.5865    656.40323   -7490.9897    49.168522 
    1900    265.19924    144.22654     23122.29   -6799.3743    631.61633   -7430.9906    50.137942 
    1950    270.03419   -61.828216    23158.011    -6788.915    643.13158   -7432.0466    51.554657 
    2000    281.45197    536.72049    23179.239   -6787.9774    670.32493   -7458.3023    52.580545 
    2050     278.4098   -317.23166    23126.817   -6834.7713    663.07949   -7497.8508    53.695465 
    2100    261.03218   -331.31892    22986.504   -6868.7044    621.69178   -7490.3962    54.840153 
    2150    274.04574    52.728316    23078.403   -6847.6876    652.68575   -7500.3733    56.310949 
    2200    264.96394   -70.161376    23110.336   -6847.2755    631.05593   -7478.3315    57.812541 
    2250    274.90789    237.27286    23022.976   -6824.8151    654.73911   -7479.5543    58.784666 
    2300    286.16624    177.10076    23045.278   -6814.9125    681.55276   -7496.4653    60.181414 
    2350    279.98617    639.51341    23132.673   -6808.3732    666.83389   -7475.2071    62.286361 
    2400    277.79025   -365.01569    23219.493   -6822.0746    661.60392   -7483.6786    63.724836 
    2450    267.48908   -383.05764    23264.305   -6841.9903    637.06997   -7479.0603    65.456968 
    2500    261.30185    756.32542    23259.043    -6855.025    622.33404    -7477.359    66.503044 
    2550    268.19436   -4.1780071     23162.29   -6832.3952    638.74972   -7471.1449    67.550353 
    2600    271.60199     75.46827    23288.763    -6825.469    646.86557   -7472.3346    68.734311 
    2650    273.69159    84.767799    23316.583   -6819.9295    651.84229   -7471.7718    70.179854 
    2700    260.20164    553.67926    23302.514   -6852.8295    619.71372   -7472.5433    71.150955 
    2750    278.72497    843.76499    23284.989   -6815.4289    663.83013   -7479.2591    71.959756 
    2800    290.89311    -368.7292    23341.402   -6804.1427    692.81058   -7496.9533    73.487281 
    2850    283.19681   -197.10291    23166.125   -6808.1459    674.48056   -7482.6265    74.390992 
    2900     274.8311   -635.35708    23148.566   -6825.6967    654.55623   -7480.2529    76.842946 
    2950    266.28636     775.3201    23047.958   -6851.0864    634.20549   -7485.2919      79.5458 
    3000    271.22468    -1035.743    23124.233   -6837.9815    645.96694   -7483.9484    80.827036 
    3050    268.02089    214.34716    23213.135   -6820.0334    638.33657     -7458.37    81.281837 
    3100    266.68661   -597.81375     23171.48   -6827.6491    635.15875   -7462.8078    82.597858 
    3150    272.80982   -1046.3242    23151.227   -6837.7312     649.7422   -7487.4734    84.244324 
    3200    260.37505   -792.71478    22951.355   -6886.1591    620.12671   -7506.2858    86.227399 
    3250    272.01854     546.1402    22966.877   -6881.8506    647.85764   -7529.7083     87.68372 
    3300    263.68676    416.55971    22990.537   -6905.6363    628.01411   -7533.6504    89.042192 
    3350     262.8976   -149.79284    23095.228   -6870.5461    626.13461   -7496.6807    90.265081 
    3400    264.67124    343.94746    23177.564   -6849.0474    630.35883   -7479.4063    91.393437 
    3450    264.99396    366.50869    23231.103   -6861.3767    631.12743   -7492.5042    94.005586 
    3500    265.25565    449.37826    23187.856   -6888.2007    631.75068   -7519.9514    95.476163 
    3550    263.77675   -416.02481    23329.259   -6875.9729    628.22843   -7504.2014    97.120155 
    3600    261.69716    223.19594    23247.527   -6835.7796    623.27555   -7459.0552    97.485325 
    3650    284.92055    309.20961    23324.783   -6773.7233    678.58593   -7452.3092    98.602645 
    3700     274.8592   -154.57155    23143.036   -6829.2257    654.62314   -7483.8489    99.337342 
    3750    267.53033    586.67467    23171.291   -6799.5326    637.16823   -7436.7008    101.28082 
    3800    276.72064    612.29439    23270.048     -6797.96    659.05647   -7457.0165    103.06361 
    3850    290.21113    18.312444    23172.461   -6797.3917    691.18634    -7488.578    102.67913 
    3900     281.9474   -898.38889    23196.194   -6807.0718    671.50488   -7478.5767    103.49114 
    3950    273.44026   -148.14843    23167.354   -6840.9643     651.2437    -7492.208    103.96077 
    4000    261.89386    -250.2255    23151.183   -6858.3307    623.74402   -7482.0747    105.28199 
    4050     270.4904   -127.82832    23128.206   -6867.7577    644.21813   -7511.9758    106.64013 
    4100    274.25776    -339.0016    23067.856   -6862.8556    653.19073   -7516.0464    107.98912 
    4150    266.07387   -89.325418    23308.093    -6841.614    633.69942   -7475.3134    110.25515 
    4200    268.49546    55.261873    23313.365    -6812.249    639.46684   -7451.7158    111.33554 
    4250    277.31674   -36.360352     23271.93   -6831.4792    660.47619   -7491.9554     112.2597 
    4300    260.86785   -384.04495    23256.804   -6876.4886    621.30041    -7497.789    113.49616 
    4350    268.41349    303.96792    23189.503   -6864.1431    639.27161   -7503.4147    113.41922 
    4400    263.49629   -566.46057    23204.502    -6820.168    627.56048   -7447.7285    114.15003 
    4450    265.14649   -1141.9365    23131.375   -6853.4404    631.49071   -7484.9311    114.29502 
    4500    279.75759   -564.46017     23086.38   -6847.6484    666.28949   -7513.9379    115.39514 
    4550    272.15773    -233.1197    23074.101   -6844.5917    648.18916   -7492.7809    117.16507 
    4600    262.47478   -273.91495    23075.157   -6892.6367    625.12758   -7517.7643    118.20683 
    4650    282.38081    1.2178388    23105.993   -6831.6924    672.53712   -7504.2295    120.14161 
    4700    282.63319    105.30915     23208.32   -6831.0905    673.13821   -7504.2287    121.79712 
    4750    271.78934    787.86311    23225.526   -6802.0455    647.31176   -7449.3572    122.02657 
    4800    283.02901    296.64841    23297.377    -6806.377    674.08093    -7480.458    123.73136 
    4850    269.41679   -462.21667    23256.603    -6806.529    641.66115   -7448.1902    124.05665 
    4900    272.90124    426.06647    23222.736   -6796.4224    649.95995   -7446.3824    125.55288 
    4950    281.10621   -131.04378    23154.156   -6800.8007    669.50146   -7470.3021    126.39368 
    5000    277.97367   -205.30167    23062.317   -6850.3479    662.04077   -7512.3886    127.30847 
    5050    271.51593    448.77894     22876.07   -6838.8961    646.66059   -7485.5567    127.68611 
    5100    275.61929   -690.02896    23065.462   -6828.3017    656.43344   -7484.7351    129.17305 
    5150    272.77873   -307.09918    23071.998   -6815.3302    649.66817   -7464.9984    129.20135 
    5200    270.50365    197.73536    23143.676   -6835.0356    644.24969   -7479.2853    131.70357 
    5250    252.63634    99.301057    23056.656   -6893.8013     601.6957    -7495.497    132.81591 
    5300    263.08811    173.83455    23075.987   -6871.7708    626.58832   -7498.3591    133.77707 
    5350    259.49036   -19.470076    23093.547   -6871.8257    618.01969   -7489.8454    134.96484 
    5400    259.03663   -503.46546    22945.585   -6871.7209    616.93906   -7488.6599    135.70056 
    5450    271.29517    134.11736    22949.693   -6864.6464    646.13482   -7510.7812    137.64824 
    5500    266.99817    318.60443    23102.786   -6866.5224    635.90079   -7502.4232    140.00686 
    5550    271.35422   -414.49453    23207.654   -6861.7681    646.27546   -7508.0436    140.70235 
    5600    267.75559    88.736724    23191.308   -6888.2496     637.7047   -7525.9543    141.99843 
    5650     273.9485   -115.29263      23276.5   -6852.5458    652.45417        -7505    142.66064 
    5700    276.60764   -145.74422    23266.881   -6859.5832    658.78735   -7518.3705    143.59256 
    5750    259.35234    842.09471    23214.132   -6869.7372    617.69098   -7487.4281    144.31998 
    5800    271.09587   -522.97676    23195.904    -6857.543    645.66015   -7503.2031    145.65375 
    5850    275.69418    302.23872     23318.37   -6835.5593     656.6118   -7492.1711    147.22482 
    5900    262.92269   -413.50897    23180.589   -6896.4352    626.19435   -7522.6295     147.3942 
    5950    263.33889   -481.47407    23071.867   -6877.5533     627.1856   -7504.7389     148.4612 
    6000    248.12447   -360.18829    23108.175   -6902.5926    590.94992   -7493.5426    148.93607 
    6050    265.13234    623.41031    22996.899   -6872.0054    631.45701   -7503.4624    149.21686 
    6100    269.58045   -258.21467    23089.396   -6872.8367    642.05092   -7514.8876    151.87771 
    6150    267.64098    584.21381    23108.799   -6895.3688    637.43174   -7532.8005    153.43356 
    6200     253.9241    67.085638    23115.751   -6880.9875    604.76271   -7485.7502    154.61692 
    6250    274.95092    352.35581    23055.824   -6865.9206     654.8416   -7520.7622    154.20648 
    6300    273.10868     95.55047    23283.187   -6839.6712    650.45398   -7490.1252    155.54377 
    6350    278.34645      -12.902    23287.848    -6803.564    662.92862   -7466.4926    156.44214 
    6400    256.76692    558.57684    23323.095    -6843.271    611.53337   -7454.8043    158.68211 
    6450    266.53926   -54.140258    23165.442   -6869.0848    634.80782   -7503.8926    159.94298 
    6500     268.3435    123.85057    23002.936   -6884.0767    639.10493   -7523.1816    160.15015 
    6550    264.01193   -416.79964    22740.598   -6891.8161    628.78855   -7520.6047    160.77511 
    6600    270.52565   -115.76486    22709.159   -6909.1677    644.30208   -7553.4698    161.85107 
    6650    265.61977    100.27926     22725.98   -6910.5909     632.6179   -7543.2088    163.65957 
    6700    264.66276    299.72367    22838.143   -6904.6867    630.33861   -7535.0253    165.93743 
    6750     265.8008   -400.86772    22781.224   -6926.4235    633.04905   -7559.4725    166.78773 
    6800    261.99845    35.414262    22831.562   -6918.9147    623.99313   -7542.9079    168.49954 
    6850    251.92746    188.28381    22794.757   -6898.3226    600.00738   -7498.3299    168.68337 
    6900    271.55636   -16.524208    22928.349   -6879.2104    646.75689   -7525.9673    170.40197 
    6950    271.93843    619.70226    22949.387    -6845.909    647.66684   -7493.5758    171.82527 
    7000    267.68136    663.37017    22922.304   -6867.8665    637.52792   -7505.3944    172.58343 
    7050    273.20779   -60.737696    22879.277   -6838.3107    650.69005   -7489.0008    174.27374 
    7100    269.58955    179.33639    22850.484   -6875.2093     642.0726   -7517.2819    176.12733 
    7150    276.93929    119.91987    22916.619    -6858.108    659.57722   -7517.6853    177.89647 
    7200    265.96697   -478.70277    22794.945   -6900.1674    633.44483   -7533.6123    178.50371 
    7250    261.93213    383.32034     22803.07    -6922.854    623.83517   -7546.6892    179.46737 
    7300    247.24133    397.24092     22898.94   -6939.5066    588.84658   -7528.3531    180.62698 
    7350    266.49113    578.24961    22978.762   -6911.9622     634.6932   -7546.6554    181.39269 
    7400     260.7948    128.06361    22926.306   -6900.2935    621.12642   -7521.4199    182.69504 
    7450    261.44509   -321.86271    22933.481   -6876.5631    622.67519   -7499.2383    184.98916 
    7500    268.65795    12.453918    22974.089   -6864.2051    639.85384   -7504.0589    187.11608 
    7550    264.53578     222.8715    22922.881   -6873.6264    630.03619   -7503.6626    187.05954 
    7600    277.54129    194.39157    22944.809    -6880.916      661.011    -7541.927    188.74517 
    7650    272.93932    341.90869    23147.031   -6860.5525    650.05064   -7510.6032    191.16791 
    7700    262.50524     566.7752    23060.351   -6848.6736    625.20012   -7473.8737    192.43703 
    7750    266.84589   -259.71286    22915.491   -6881.0521    635.53811   -7516.5902    193.13112 
    7800    271.70243   -202.42492    22983.405   -6874.3953    647.10478      -7521.5    196.05192 
    7850    258.07784    641.22396    23020.197   -6907.0094    614.65554    -7521.665    198.34084 
    7900    250.02496   -651.36442    23083.769   -6899.2216    595.47626   -7494.6979    200.09851 
    7950    271.30457    237.60382    23081.673   -6843.5141    646.15721   -7489.6713     201.2892 
    8000    264.07286    479.11865    23083.258   -6850.2168    628.93368   -7479.1504    202.67425 
    8050    267.81455    603.28476    23108.788   -6842.0515    637.84513   -7479.8966    205.25052 
    8100    291.07032   -183.54385    23040.514   -6846.1515    693.23264   -7539.3842    206.96508 
    8150    284.02109    782.85231    23108.032   -6806.7027    676.44371   -7483.1464    209.87376 
    8200    278.05411   -686.85869    23113.387   -6832.2407    662.23236    -7494.473    212.88482 
    8250    280.58043   -154.32265    23269.619   -6823.1273    668.24921   -7491.3765    217.26752 
    8300    272.31016   -293.46126    23205.009   -6824.1814    648.55218   -7472.7335    219.41509 
    8350    284.09695     270.8111    23269.927   -6815.7605    676.62439   -7492.3849    223.36505 
    8400    270.80923    646.88871    23329.145   -6792.5697    644.97746   -7437.5472    226.61728 
    8450    264.62386   -512.93793    23316.766   -6812.2964    630.24598   -7442.5424     229.1055 
    8500    259.91348    309.00705    23226.727   -6830.1946    619.02741    -7449.222    230.23605 
    8550    270.54399    39.365437    23158.115   -6859.6494    644.34576   -7503.9952    231.36345 
    8600    276.17107     -283.635    23083.723   -6859.6313    657.74759   -7517.3789    232.31796 
    8650    267.11175   -448.55844    22977.998   -6872.1659     636.1713   -7508.3372    233.05394 
    8700    279.06042   -1124.0015      23045.5   -6837.7306    664.62907   -7502.3597    235.04111 
    8750    265.36165    392.54211    23020.101    -6861.073    632.00316   -7493.0761    235.50196 
    8800    259.53815   -605.06933    22951.766   -6884.8104    618.13352   -7502.9439    237.22603 
    8850    273.05122    -671.6268    23051.561   -6875.9246    650.31714   -7526.2418    238.74567 
    8900    263.65784   -84.029462    23000.915   -6892.1239    627.94523   -7520.0691    238.56015 
    8950    270.71736     54.39681    23148.451   -6894.0999    644.75867   -7538.8586    240.54549 
    9000    262.91946   -354.30093    23164.969   -6887.2487    626.18666   -7513.4353    242.00519 
    9050    264.93761    156.19129    23121.811    -6853.514    630.99323   -7484.5072    241.15806 
    9100    261.01999    623.45158    23142.317   -6852.5743    621.66275   -7474.2371    241.91955 
    9150    270.64413    -722.2196     23063.14   -6866.7926    644.58424   -7511.3768    241.48116 
    9200    278.18105    242.85901    22989.954   -6826.8366    662.53469   -7489.3713       242.26 
    9250    265.24843    368.18086    23080.271   -6822.7899     631.7335   -7454.5234    243.54235 
    9300    272.93633   -1000.4058    23086.091    -6857.368    650.04352   -7507.4115    244.39229 
    9350    264.47327   -356.40719    23011.164   -6903.6289    629.88731   -7533.5162    245.85456 
    9400    249.11327   -172.73043    23106.091   -6891.0567    593.30492   -7484.3616    246.04776 
    9450    272.83662   -461.20956    23009.966   -6882.6867    649.80603   -7532.4928    246.45414 
    9500    268.66562   -117.74344    23116.274   -6886.1985     639.8721   -7526.0706    247.26033 
    9550    268.78321   -482.67211    22967.068   -6900.8785    640.15216   -7541.0307    247.06465 
    9600     260.7868   -44.448122    22920.837   -6899.2171    621.10737   -7520.3244     247.4041 
    9650    268.42903     585.0017    22861.019   -6892.4908    639.30861   -7531.7994    247.01515 
    9700    268.19432    239.09168    22952.712   -6873.8163    638.74963   -7512.5659    248.16964 
    9750    275.84963    635.44457     23041.57   -6849.2193    656.98201   -7506.2013     249.5411 
    9800    261.38558    530.50234    23260.292   -6850.3372    622.53348   -7472.8707    253.75472 
    9850     268.0239   -28.429353    23262.723   -6843.9019    638.34373   -7482.2456    255.62233 
    9900    282.84917    137.39485    23173.579   -6843.3771    673.65259   -7517.0297    255.74314 
    9950    281.25463   -217.74209    23262.306   -6837.1778    669.85494   -7507.0327     257.0517 
   10000    261.80848    264.26472     23379.67   -6815.5895    623.54067   -7439.1302    258.65866 
   10050    268.12232   -153.50507      23487.5   -6846.9556    638.57814   -7485.5338    261.18459 
   10100    273.12264    400.63672     23363.61   -6814.4693    650.48725   -7464.9565    261.35418 
   10150    268.38452    787.48649    23399.159   -6805.7957    639.20262   -7444.9984    262.26059 
   10200    272.36634    505.96116    23421.826   -6782.3611    648.68598   -7431.0471    263.42662 
   10250    284.06393   -715.75109    23237.596   -6771.0257    676.54576   -7447.5714    264.53245 
   10300    279.68433   -11.617121    23216.149   -6788.5485    666.11499   -7454.6635    265.69872 
   10350    277.01032   -91.519203    23309.644   -6791.4407    659.74641   -7451.1871    265.28977 
   10400    283.18475    19.913075    23327.155   -6799.5691    674.45183   -7474.0209    266.53486 
   10450    279.91409   -447.51884    23270.502   -6811.6895    666.66221   -7478.3517    267.04906 
   10500    273.19276     1092.063    23238.953   -6831.2935    650.65425   -7481.9477     267.7193 
   10550    266.89731    538.13631    23279.695    -6850.428    635.66058   -7486.0886      270.738 
   10600    261.58505   -132.95113    23218.424   -6881.3916    623.00853   -7504.4001    271.64097 
   10650    268.21192   -773.82544    23139.504   -6884.1149    638.79153   -7522.9065    273.07753 
   10700     268.6011    427.13219     22975.51     -6896.11    639.71844   -7535.8285    272.29253 
   10750    272.07321    468.42512    23150.541   -6891.1815    647.98785   -7539.1694    275.47212 
   10800    264.60844   -316.23825    23104.774    -6894.636    630.20924   -7524.8452    277.81953 
   10850    268.85506   -1049.2315    22911.313   -6930.8575    640.32328   -7571.1808    276.90278 
   10900    252.14696    -297.0467    22960.751   -6930.1477    600.53016   -7530.6778    278.48726 
   10950    256.52051    205.25058     22876.81   -6933.0848    610.94648   -7544.0313    278.12606 
   11000    249.42683    715.07827    22892.877   -6946.9865     594.0517   -7541.0381    278.80863 
   11050     265.9103    919.76524    22977.877    -6897.714    633.30985   -7531.0239    279.95453 
   11100     276.7103    469.99561    22911.407   -6849.5958    659.03185   -7508.6277     280.4932 
   11150    263.13175    651.67314     23025.79   -6849.9859    626.69227   -7476.6782    282.65768 
   11200    265.49727    436.92133    23028.678    -6856.089    632.32614   -7488.4151    285.23342 
   11250    261.93117    492.77095    22969.905   -6900.9887    623.83289   -7524.8215    287.47279 
   11300    262.73824   -577.88547    22884.212   -6895.1409    625.75505    -7520.896    286.53667 
   11350    265.09494    86.435373    22923.912   -6884.5452    631.36793   -7515.9132    286.05392 
   11400    254.33776   -299.49227    22913.621   -6901.2352    605.74792   -7506.9831    287.56267 
   11450    271.39355    451.06331    22790.233   -6877.7633    646.36913   -7524.1324    286.81801 
   11500    264.71599    597.01509    22997.946   -6870.1101     630.4654   -7500.5755    289.06807 
   11550    282.99428    41.073633    23093.925   -6826.8787    673.99821   -7500.8769    291.79127 
   11600     287.5667   -693.96377    23116.378   -6811.1864    684.88819   -7496.0746    292.39556 
   11650     278.0048    332.06971     23253.46   -6812.4433    662.11492   -7474.5582    294.91447 
   11700    276.98356   -76.818756    23284.795   -6806.3832    659.68266   -7466.0659    296.42311 
   11750    275.98347     48.70704    23360.614   -6775.7919     657.3008   -7433.0927    299.08403 
   11800    280.58955    47.929918    23354.718   -6790.8147    668.27094   -7459.0857    298.92255 
   11850    279.00813    1010.4291    23260.768   -6807.6114    664.50452    -7472.116    300.67038 
   11900    270.28013    81.962019    23256.493   -6819.2496    643.71733   -7462.9669    301.01296 
   11950    279.58998    70.554154    23114.984   -6829.1269     665.8903   -7495.0172    299.97311 
   12000    262.95868    519.13417    23152.312   -6844.5753    626.28007   -7470.8553    302.53422 
   12050    281.38769   -360.93739    23241.684   -6823.4663    670.17184   -7493.6381    304.11991 
   12100    276.50593   -315.94812    23178.857   -6828.2729    658.54511    -7486.818     305.0461 
   12150    263.11882   -175.42784    23157.291    -6857.182    626.66148   -7483.8435    305.29731 
   12200    259.51816    236.28832      23112.5   -6844.3009     618.0859   -7462.3868    304.37294 
   12250    271.08627    87.564286    23164.137   -6835.4702    645.63729   -7481.1075    305.48297 
   12300    257.37075   -1622.8314    23110.858     -6859.46    612.97148   -7472.4315    307.06802 
   12350    266.94447    327.68866    23056.326   -6891.8156    635.77291   -7527.5885    307.77915 
   12400    261.66165    560.67579    23000.556   -6871.7123    623.19097   -7494.9033    308.56281 
   12450    269.16838    772.56034    22956.586   -6846.1485     641.0695    -7487.218    310.01117 
   12500    278.50257   -969.95172     23085.73   -6851.2176    663.30045   -7514.5181    313.17705 
   12550    279.50034   -944.18023     23097.57   -6840.0433    665.67681   -7505.7201    315.88965 
   12600     263.7006    167.44531    23144.076   -6836.8279    628.04709    -7464.875    316.93732 
   12650    271.65505    20.556395    23039.649   -6836.3183    646.99193   -7483.3103     317.6811 
   12700    277.31176   -368.51006    23070.489   -6834.3549    660.46434   -7494.8192    319.45628 
   12750    273.76039    506.07443    22991.315   -6838.4865    652.00616   -7490.4927     320.1069 
   12800    267.66997    671.94848    22936.842   -6874.2488     637.5008   -7511.7496    321.40733 
   12850    275.81552    43.800644    23051.709   -6850.3885    656.90078   -7507.2893      323.909 
   12900    267.67118   -386.93533    22968.571   -6875.3922    637.50369   -7512.8959    324.53437 
   12950    276.62807    273.38634    23004.885   -6852.1414    658.83601   -7510.9774     326.8467 
   13000    285.19082    280.15426    23070.185   -6833.3205    679.22964   -7512.5502    328.27175 
   13050    263.29574   -112.26655    22940.159   -6853.2866    627.08284   -7480.3694    328.33367 
   13100    277.04588   -397.55857    22869.598   -6875.4616    659.83109   -7535.2927    327.33504 
   13150    268.39775   -166.84621    22824.947   -6897.5621    639.23413   -7536.7963    328.36343 
   13200    256.84885    -216.6065    22753.214   -6909.1462     611.7285   -7520.8747    328.13189 
   13250    263.45272   -317.11728    22754.196   -6900.7765    627.45671   -7528.2332    328.85261 
   13300    264.19176   -625.97646    22875.832   -6904.6563    629.21686   -7533.8731    330.95839 
   13350    261.02003   -174.18963    22874.225   -6922.5789    621.66286   -7544.2418    332.49128 
   13400     262.3301    721.55954    22977.552    -6903.587      624.783     -7528.37    334.69877 
   13450    256.75917   -282.76527    23121.705   -6901.4576    611.51491   -7512.9726    336.08542 
   13500    266.13902    350.80713    23026.095   -6873.4249    633.85458   -7507.2794    335.87449 
   13550    269.88143    135.74119    23074.215   -6852.0679    642.76775   -7494.8356    337.97277 
   13600    268.86965    165.27493    23087.286   -6870.8706    640.35804   -7511.2287    338.38751 
   13650     275.5814    54.504298     23226.38   -6863.8282    656.34319   -7520.1713    340.37605 
   13700    264.54613   -811.95462    23282.925   -6873.3558    630.06086   -7503.4167    343.10457 
   13750    255.75721    453.39344    23135.031   -6873.5641    609.12857   -7482.6926    342.15696 
   13800    267.89771   -63.721364    23161.121   -6855.6758    638.04319    -7493.719    344.02652 
   13850    270.49844    137.09763    23137.132   -6852.6026    644.23727   -7496.8399    344.51411 
   13900    268.99079    502.39647    23034.969   -6867.9781    640.64655   -7508.6246     344.6913 
   13950    280.92607    -321.8516    23137.186   -6839.8276    669.07241      -7508.9     346.8391 
   14000      265.555     268.7304    23027.949   -6834.3606    632.46365   -7466.8243    345.45108 
   14050    288.49116    146.72436    23083.139    -6803.076    687.08995    -7490.166    346.33018 
   14100    282.21399   -860.48755    23159.484   -6824.5213    672.13981   -7496.6611    349.23302 
   14150    263.24937    650.18057    23106.718   -6861.8576     626.9724     -7488.83    351.04929 
   14200    263.32456   -539.68692    23053.624   -6880.3381    627.15147   -7507.4896     352.2733 
   14250    276.68585    -366.0055    23066.379   -6846.9862    658.97361   -7505.9598    354.18035 
   14300    270.44797   -143.64702     22953.13   -6874.2997    644.11707   -7518.4168      355.928 
   14350    252.56572    4.6728957    22893.684   -6917.7495    601.52751    -7519.277     356.0983 
   14400    273.35729    187.84086    22883.153    -6904.946    651.04609    -7555.992    357.64402 
   14450    263.92299   -324.32504    22886.862   -6899.3769    628.57674   -7527.9536    358.29962 
   14500    273.15349   -463.23486     22964.57   -6876.5015    650.56071   -7527.0622    359.30096 
   14550    254.76463   -519.29183    22893.212   -6911.1377    606.76456   -7517.9023    360.61826 
   14600     263.9602   -25.336411    22925.546   -6881.1349    628.66536   -7509.8003    361.69515 
   14650    266.04443    355.68618    22871.673   -6855.9835    633.62931   -7489.6128    362.51235 
   14700    273.57644     322.3165    22815.787   -6852.8627    651.56805   -7504.4308    363.44675 
   14750    262.01654   -130.78438    22997.565   -6856.9448     624.0362    -7480.981    367.06582 
   14800    285.80942    821.40179    23042.645   -6805.4469    680.70293   -7486.1499    370.23508 
   14850    277.41074    341.49523    23152.993   -6846.5332    660.70008   -7507.2333    372.76386 
   14900    279.93634    31.105323     23148.94   -6847.7016    666.71521   -7514.4168    372.88193 
   14950    278.64932   -176.37404    23239.218   -6843.7103    663.64996   -7507.3602    375.07098 
   15000    264.42952   -233.20138     23130.83     -6852.39    629.78312   -7482.1731    374.80872 
   15050     264.2788    211.22796    23015.576   -6857.5818    629.42416   -7487.0059    374.25575 
   15100    266.70638   -514.74533    23076.936   -6865.8686    635.20585   -7501.0745    376.44171 
   15150    266.67253    227.36085    23061.157   -6864.7915    635.12523   -7499.9167     377.4134 
   15200    270.06983   -161.57591    22906.581   -6879.6497    643.21647   -7522.8662    377.51343 
   15250    275.25736    250.67039    22946.642   -6842.9285    655.57144   -7498.4999    379.04893 
   15300    261.16458   -268.06801     22859.97   -6858.5615    622.00713   -7480.5687     379.1583 
   15350    259.45751    169.84355    23035.995   -6882.1281    617.94144   -7500.0695    381.40856 
   15400     266.6361   -193.94828    23091.597   -6880.3362    635.03846   -7515.3746    383.71924 
   15450    261.23485    378.52544    23200.444   -6869.9072    622.17448   -7492.0816    385.83858 
   15500    273.18314   -213.42186    23237.567   -6873.6734    650.63132   -7524.3047    388.13255 
   15550    278.33214    212.37149      23300.2   -6828.1148    662.89453   -7491.0093     389.5113 
   15600    276.32532   -68.216706    23193.423   -6804.2483    658.11495   -7462.3632    390.54452 
   15650    274.81814   -1261.6721    23270.643    -6778.992    654.52536   -7433.5173    393.96938 
   15700      281.699   -104.69772    23220.704   -6809.5195    670.91328   -7480.4328    394.03359 
   15750    277.71815    115.57106    23261.628   -6791.5114    661.43221   -7452.9436    395.87132 
   15800    278.22494   -154.66735    23309.928   -6798.4498    662.63923   -7461.0891    397.25896 
   15850    279.35149   -148.48753    23481.407     -6811.91    665.32229   -7477.2323    400.34891 
   15900    274.35867    552.38149    23427.651   -6807.8919    653.43105    -7461.323    400.46119 
   15950    266.66886    281.91948     23431.56   -6800.3017    635.11648   -7435.4182    401.61526 
   16000    272.64548   -255.94214     23487.49   -6817.1677    649.35082   -7466.5186    403.44766 
   16050    257.30693   -29.102897    23523.854   -6823.0805    612.81949      -7435.9    406.04275 
   16100    267.21414   -3.5238481    23423.145   -6846.4211    636.41517   -7482.8362    405.76918 
   16150    257.76043    561.72542    23217.851   -6849.2674    613.89957    -7463.167    405.43984 
   16200    281.48438   -71.325653     23211.13   -6799.0627    670.40213   -7469.4648    408.40171 
   16250    266.67364   -1204.3355     23246.93   -6823.4962    635.12787    -7458.624    411.65132 
   16300    276.58507    -313.7749    23303.641   -6808.9806     658.7336   -7467.7142    413.75829 
   16350    264.65689   -662.04323    23243.621   -6835.6573    630.32465    -7465.982    414.95172 
   16400    270.19652    292.47928    23117.374   -6835.1744    643.51819   -7478.6926    414.10804 
   16450    266.73206    83.919954    23237.609   -6841.9861      635.267   -7477.2531    416.48007 
   16500    273.78594    526.81014    23091.566   -6852.2426    652.06699   -7504.3096    417.59403 
   16550    272.31577   -482.02341    23043.034   -6824.0234    648.56555    -7472.589      419.071 
   16600    281.25347    529.13807    23105.458   -6823.7639    669.85218   -7493.6161    422.58222 
   16650    278.75291    558.38716    23043.251   -6808.5884    663.89668    -7472.485    423.13462 
   16700    268.05903    381.33944    23051.259   -6838.1043     638.4274   -7476.5317    423.20758 
   16750    274.24574    101.02527    23191.139   -6827.4873     653.1621   -7480.6494    426.72448 
   16800    279.13347   -281.47102    23060.064   -6848.2697    664.80304   -7513.0728    426.03065 
   16850    270.65114   -323.74191    23016.712   -6856.8106    644.60095   -7501.4115    427.43423 
   16900    273.53794    678.02816    22844.278   -6846.6803    651.47636   -7498.1566    425.90216 
   16950    260.26879    -413.7659    22987.791   -6876.8558    619.87365   -7496.7294      429.209 
   17000    269.51567    387.31991    22980.391   -6876.3525    641.89664   -7518.2492    429.86008 
   17050    268.69965    579.11197    22911.908   -6882.6567    639.95315   -7522.6099    429.41866 
   17100    280.72665    33.708499    22955.468   -6864.6836    668.59745   -7533.2811    430.82109 
   17150    270.65684    718.40661    22933.254   -6856.1315    644.61452    -7500.746    430.31139 
   17200    272.11127    -598.1577    22959.991   -6894.5428    648.07849   -7542.6213    431.79802 
   17250    264.46993    342.22828      22778.5   -6923.3638    629.87937   -7553.2431    429.79731 
   17300    255.40605   -392.41282    22851.618   -6911.7363    608.29223   -7520.0285    430.84546 
   17350    262.03387   -170.26988    22681.701   -6926.8937    624.07747   -7550.9712    428.80066 
   17400    263.13459   -533.81889    22709.612   -6916.5221    626.69904   -7543.2211    431.34357 
   17450    258.87076    112.25517    22788.524   -6947.8998    616.54401   -7564.4438    433.35522 
   17500    265.75392    738.28798    22830.503   -6885.1996    632.93739    -7518.137    434.76629 
   17550     265.2503    828.75947    22751.817    -6896.572    631.73796     -7528.31    433.72002 
   17600     266.6653   -688.74462    22791.352   -6867.6156    635.10801   -7502.7236    437.46795 
   17650    275.33304   -347.11603     22851.26   -6898.9439    655.75168   -7554.6956     440.3084 
   17700    264.39205   -5.4254757    22840.575    -6894.469    629.69387   -7524.1628     442.7828 
   17750    269.46441   -987.83512    22912.086   -6894.6171    641.77455   -7536.3917    445.43492 
   17800    261.90219    878.40324    22906.144   -6915.5299    623.76387   -7539.2938     445.7884 
   17850    258.61837   -90.792545    22915.972   -6890.3361    615.94289    -7506.279    446.62245 
   17900    266.17498    -99.12089    22933.688   -6847.6572    633.94022   -7481.5974    447.27816 
   17950    272.95449    895.48051    22937.529   -6852.2912    650.08676    -7502.378    448.92341 
   18000    259.38739   -544.72113    22988.715   -6863.0322    617.77444   -7480.8067    451.62177 
   18050    268.03453   -230.99486    23018.878   -6872.7243    638.36906   -7511.0933    453.53538 
   18100    283.22062   -618.83107    23139.039   -6839.2783    674.53728   -7513.8156    457.55955 
   18150    279.60556   -74.169776    23142.129   -6848.4917     665.9274   -7514.4191    459.25621 
   18200    269.59838   -659.58625    23104.166   -6853.1474    642.09363   -7495.2411    460.36772 
   18250    265.95716    -839.8425    22992.559     -6854.79    633.42146   -7488.2115    460.65719 
   18300    276.10656    128.64625    23002.875   -6851.3675    657.59395   -7508.9614    462.99426 
   18350     274.5158    577.32491    23082.069   -6808.9211     653.8053   -7462.7264     464.8638 
   18400    265.18506     -220.621    23116.786   -6841.4019    631.58256   -7472.9845    468.06584 
   18450    267.65353    579.55468    23093.838   -6858.4479    637.46163   -7495.9095    469.53673 
   18500    264.08123    319.60433    23089.182   -6861.9737    628.95361   -7490.9273    471.50004 
   18550    266.90687    -260.7216    23144.047   -6837.3531    635.68334   -7473.0364    475.28262 
   18600    272.10555    442.57079    23148.197   -6816.1122    648.06487   -7464.1771    478.66694 
   18650    272.93667    541.35017    23257.237   -6813.2322    650.04433   -7463.2766    480.17985 
   18700    269.87216   -1455.1885    23310.908   -6832.2129    642.74569   -7474.9586    481.17545 
   18750    270.32378    -85.16853    23220.792   -6823.2384    643.82129   -7467.0597    478.63629 
   18800    253.73258    265.39088    23300.903   -6858.9262    604.30657   -7463.2327    482.38879 
   18850    272.16103   -262.77132    23109.876   -6858.7596    648.19701   -7506.9566    482.24535 
   18900    274.98362    306.13636    23159.032   -6829.8942    654.91947   -7484.8137     485.0806 
   18950     265.0447   -139.95581    23167.975     -6847.48    631.24827   -7478.7283    486.64522 
   19000    277.58208    34.125222     23111.76   -6828.0189    661.10815   -7489.1271    487.01317 
   19050    271.57849    806.40479    23075.976   -6819.2145    646.80959   -7466.0241    487.40823 
   19100    278.82759   -418.64587    23087.229   -6861.9114    664.07452   -7525.9859    489.25584 
   19150    273.70869   -63.399637    23115.837   -6815.8347    651.88303   -7467.7177    491.32512 
   19200    272.54493   -726.38934    23152.052   -6845.0579    649.11134   -7494.1692    490.87243 
   19250    265.78787    533.92779    23067.022    -6857.186    633.01826   -7490.2042    489.42251 
   19300    277.25804    721.17941    23068.597   -6830.2937    660.33638     -7490.63    490.16294 
   19350    285.30762    512.32114    23119.791   -6802.8981    679.50781   -7482.4059    491.27769 
   19400    268.58145   -208.73841    23274.719   -6804.6197    639.67165   -7444.2913    494.49196 
   19450    273.32144    651.06891    23233.563   -6825.9999    650.96071   -7476.9606    495.26284 
   19500    278.68942   -429.89319    23164.058   -6841.7331    663.74547   -7505.4785    495.72564 
   19550    277.24578    505.69056    23157.037   -6823.3089     660.3072    -7483.616    496.91488 
   19600    275.72686   -406.60565    23178.143   -6824.2316    656.68962   -7480.9212    498.70826 
   19650    272.09952   -6.4612369    23266.465   -6825.9312     648.0505   -7473.9817    502.40297 
   19700    275.77234   -636.84424    23213.529   -6834.5349    656.79794   -7491.3329    503.58016 
   19750    272.51407    488.59576     23233.56   -6828.4724    649.03783   -7477.5102    505.77713 
   19800    275.99667    29.052732    23226.168   -6824.7709    657.33223   -7482.1032    507.27528 
   19850    274.63598    355.17757    23257.364   -6830.6544    654.09152   -7484.7459    507.13156 
   19900    283.69858   -912.97101    23140.721   -6795.1802    675.67562   -7470.8558     506.8384 
   19950    267.15445   -213.40388    23149.655   -6828.6382    636.27299   -7464.9112    507.84445 
   20000    270.83351    164.36004    23096.378   -6844.4793     645.0353   -7489.5146    507.17787 
   20050    265.74581    66.607712    23076.558   -6852.5663    632.91809   -7485.4844    507.00467 
   20100    274.96261   -122.80797    23030.095   -6841.0731    654.86944   -7495.9426    505.68925 
   20150    264.49138    555.16072    23065.978   -6860.8434    629.93044   -7490.7738    507.09972 
   20200     276.1435    390.33548    23090.009   -6841.1535    657.68191   -7498.8354    510.51297 
   20250    268.49103     368.0514    23063.198   -6857.5973    639.45628   -7497.0536    511.07181 
   20300    267.43901    140.06779    23145.849   -6845.9725    636.95073   -7482.9232    514.03547 
   20350    277.31801     282.6297    23084.185   -6819.4908    660.47922   -7479.9701    512.49935 
   20400    277.78685    142.46131    23086.413   -6812.3121    661.59584   -7473.9079     511.5839 
   20450     269.9224   -395.66976    23172.491   -6818.9089    642.86533   -7461.7742     514.0827 
   20500    277.46652    296.42241    23128.169   -6845.4506    660.83292   -7506.2836    513.09469 
   20550    272.31369   -334.57074    23262.239   -6868.1227    648.56059   -7516.6833    515.75678 
   20600    258.80265    397.65927    23289.344   -6898.5141    616.38179   -7514.8959    517.89285 
   20650    272.18726   -339.49867    23150.058   -6878.5962    648.25948   -7526.8556     516.2494 
   20700    259.80631    446.82351    22986.929   -6926.7994    618.77218   -7545.5716    515.24057 
   20750    264.86421   -65.040604    23152.852   -6872.6075     630.8184   -7503.4259    516.90533 
   20800    266.88828   -718.83256    23033.554   -6884.6838    635.63907   -7520.3228     515.8092 
   20850    272.71046    952.94362    23196.584    -6833.669    649.50558   -7483.1746     520.0143 
   20900    278.41774   -300.49704    23177.447   -6824.7083    663.09842   -7487.8067    521.98293 
   20950    269.35502   -611.89418    23101.571   -6844.6207    641.51404   -7486.1347    523.28401 
   21000    275.57548    48.500391    23041.473   -6869.6318    656.32909   -7525.9609    524.68928 
   21050    266.82477    950.47948     23209.65   -6877.1432    635.48781    -7512.631    529.47052 
   21100     271.4867    263.98371    23172.341   -6846.0549    646.59097   -7492.6459    529.07021 
   21150     273.5348    216.24591    23061.728    -6852.889    651.46886   -7504.3578    527.14293 
   21200    277.91088   -225.79346    23077.275   -6859.9406    661.89123   -7521.8318    528.74361 
   21250    268.69664   -248.31713    23202.722   -6843.0018    639.94599   -7482.9478    531.41888 
   21300    286.28391   -179.94033      23160.9   -6813.9996    681.83301   -7495.8326     530.3976 
   21350    278.42321   -490.59948    23222.232   -6820.2725    663.11144    -7483.384    532.06245 
   21400     272.1499   -536.31069    23199.561   -6842.2503     648.1705   -7490.4208    531.86419 
   21450    260.75349   -1142.7722    23301.031   -6841.2089    621.02804    -7462.237    532.44548 
   21500    276.67269   -560.90613    23237.826   -6798.6185    658.94229   -7457.5608    531.23561 
   21550     277.8386    35.545447    23346.115   -6793.6566    661.71909   -7455.3757    534.49702 
   21600    275.08633    849.89334    23295.708   -6812.9742    655.16409   -7468.1383    534.62031 
   21650    278.97507    503.99986    23274.028   -6790.3445    664.42577   -7454.7703    535.88062 
   21700    279.59695   -917.68601    23208.807   -6828.3648     665.9069   -7494.2717    538.79544 
   21750    263.76419    88.953027    23106.411   -6859.0812    628.19853   -7487.2797    538.60533 
   21800    268.84442   -58.635375    23095.345   -6871.5046    640.29795   -7511.8026    540.32171 
   21850    274.58035   -406.20568     22998.35   -6865.5059    653.95902   -7519.4649     538.7427 
   21900    274.82004    94.211691    23076.668   -6866.6716    654.52989   -7521.2015    542.77051 
   21950    279.12727    6.0211643    23018.621   -6874.1998    664.78827   -7538.9881    545.49076 
   22000    262.26552   -95.535491    23039.951   -6865.9232    624.62919   -7490.5524    547.81855 
   22050    266.30641   -693.15907    22961.974   -6901.4547    634.25326    -7535.708    547.75111 
   22100    268.10952    44.519749    22906.975   -6871.4625    638.54766   -7510.0102    548.18203 
   22150    267.91589    142.73467    22881.287   -6882.0225    638.08649    -7520.109     548.5424 
   22200    267.82942   -124.80506    23051.996   -6916.7909    637.88056   -7554.6715    553.30466 
   22250    266.49789    521.08717    22991.479   -6928.7333    634.70929   -7563.4426    552.29276 
   22300    262.02708    263.07432    23022.775   -6911.5796    624.06132   -7535.6409    554.55869 
   22350    259.71055   -36.076266    23105.204   -6874.2245    618.54412   -7492.7686    556.59262 
   22400    269.71435    589.79873    23089.017   -6822.2155    642.36984   -7464.5853    555.17833 
   22450    273.05947   -159.56263    23019.899   -6836.2464     650.3368   -7486.5832    555.15917 
   22500    273.50969    117.02764    23002.724   -6843.9461    651.40905   -7495.3551    555.69194 
   22550    267.32933   -747.84495     23014.11   -6848.2322     636.6895   -7484.9217    557.22106 
   22600    266.31675   -225.94187    23076.606    -6867.466    634.27788   -7501.7439     559.1762 
   22650    277.16696   -44.151743    23061.971    -6857.914    660.11947   -7518.0334    560.64862 
   22700    270.95743   -638.19766    22915.358   -6878.3777    645.33043   -7523.7081    558.68255 
   22750    269.34842    250.79448    22959.945   -6875.8326     641.4983   -7517.3309     559.5465 
   22800    266.04502    627.34494    22818.326   -6891.1445    633.63071   -7524.7752    555.75485 
   22850    273.81738   -164.49014    22923.715    -6856.765    652.14188   -7508.9069     559.4018 
   22900    268.11174   -152.40509    23031.572     -6864.82    638.55293    -7503.373    561.01475 
   22950    264.30902    900.83005    23129.937     -6871.87    629.49613   -7501.3661    564.23026 
   23000    255.99232   -659.70712    23101.464   -6867.9385    609.68853    -7477.627     565.7341 
   23050    269.24537   -144.60209    23116.828   -6881.7427    641.25288   -7522.9956    567.82717 
   23100    266.26203    334.10661    23164.092   -6874.3121    634.14756   -7508.4597    570.88165 
   23150    265.84015   -228.59824    23150.531   -6858.1703    633.14278    -7491.313    574.11802 
   23200    262.03095    458.10756    23246.733   -6863.1997    624.07052   -7487.2703    576.40043 
   23250    272.47316   -238.68773    23339.079   -6825.1817    648.94041   -7474.1222     576.6033 
   23300    268.86068   -110.29485    23335.458   -6819.3371    640.33668   -7459.6738    576.18047 
   23350    279.64197   -142.94399    23302.328   -6825.3685    666.01412   -7491.3826     576.0134 
   23400    278.23679    120.93847    23297.737    -6800.973    662.66745   -7463.6405    574.92024 
   23450    268.51709    45.240181    23238.562   -6828.4347    639.51835   -7467.9531    575.32422 
   23500    275.82312    941.76425    23299.975   -6815.9754    656.91889   -7472.8943    576.15974 
   23550    275.03824   -64.495928    23265.207   -6828.9265    655.04957   -7483.9761    577.61466 
   23600     284.5299    879.89309    23345.121   -6776.8228    677.65555   -7454.4784    580.20366 
   23650    272.86085    356.73413    23421.812   -6790.4883    649.86374   -7440.3521    582.83867 
   23700    270.36029   -303.43212    23328.693   -6803.4904    643.90824   -7447.3987    583.60663 
   23750    272.51496    -167.4616    23299.995   -6811.1037    649.03994   -7460.1437    585.45587 
   23800    277.32312    4.4203249     23369.08   -6804.7112    660.49138   -7465.2026    590.79206 
   23850    264.68233    229.40041    23269.433   -6813.5434    630.38524   -7443.9286     591.7655 
   23900    260.91657   -197.16642    23185.059   -6857.0508    621.41644   -7478.4673    591.54382 
   23950    263.48073   -444.41324    23215.356   -6844.6194    627.52342   -7472.1429    592.96155 
   24000    274.33571   -299.76736    23155.338   -6832.1362    653.37638   -7485.5126    593.24829 
   24050     275.5698    80.256309    23144.854   -6820.0258    656.31556   -7476.3414     590.6631 
   24100    276.31391   -576.53324    23138.442   -6811.5213    658.08779   -7469.6091    591.72063 
   24150    280.09321   -176.39888    23053.641   -6821.0692    667.08883    -7488.158    590.87025 
   24200    277.36986   -147.65172    23135.462   -6799.7492    660.60271   -7460.3519    593.55227 
   24250    261.99632     363.3968    23108.056   -6838.4604    623.98804   -7462.4484    596.25881 
   24300    250.60878    -172.0801    23177.786   -6872.4315    596.86671   -7469.2982    598.94167 
   24350    263.84916   -143.60189    23002.191   -6861.5322    628.40091   -7489.9331    596.52297 
   24400    265.42985   -547.38282    22913.692   -6868.8755    632.16559   -7501.0411    595.21947 
   24450    269.99108   -829.05237    22858.771   -6862.7581    643.02891    -7505.787    597.22971 
   24500    273.28314     143.7978    22793.156   -6859.9917    650.86949   -7510.8612    596.69465 
   24550    269.76016   -150.30784    22798.934   -6887.2557    642.47893   -7529.7346    598.61917 
   24600    260.72653   -646.50159    22854.907   -6910.1539    620.96384   -7531.1178    599.89876 
   24650    264.04137    384.03336    22806.439   -6935.0111    628.85867   -7563.8697    600.65431 
   24700    259.64842    46.778692    22738.485   -6926.8556    618.39613   -7545.2517    598.75651 
   24750    264.46257    258.60797    22874.144   -6924.0304    629.86185   -7553.8923    600.83707 
   24800    266.96742    638.57166    22936.774   -6897.3786    635.82755   -7533.2062    604.55679 
   24850    258.13317   -805.46441    22995.165   -6898.7741    614.78731   -7513.5614    606.76312 
   24900    270.76707    -165.4591    22881.422   -6884.9354    644.87705   -7529.8125    607.18216 
   24950     268.1573    77.518889    22914.443   -6900.8711    638.66145   -7539.5326    608.42265 
   25000    263.49718    531.57295    22842.656   -6909.8489    627.56259   -7537.4115    608.25563 
   25050    259.82714    293.08487    22917.955   -6877.6364    618.82179   -7496.4581    612.93158 
   25100    256.06732   -477.45985    22936.265    -6908.525    609.86714   -7518.3922     615.8147 
   25150    271.62684   -789.05905     22896.83   -6909.2744    646.92474   -7556.1992    616.96974 
   25200    248.94455   -238.20738    22966.856    -6924.743    592.90309   -7517.6461    618.95227 
   25250    251.38565    412.85099    23004.142   -6933.5695    598.71696   -7532.2864    619.55447 
   25300    260.24232    476.74472    22966.204    -6906.809    619.81061   -7526.6196     620.4926 
   25350    261.55353   -333.68995    22903.373   -6899.1726    622.93348    -7522.106    623.41119 
   25400    266.20151    408.83389    23007.884   -6858.9904     634.0034   -7492.9938    626.30384 
   25450    265.21193   -148.59566    22943.222   -6869.5606    631.64657   -7501.2072     625.8444 
   25500    278.68593    115.71805    22717.213   -6864.1395    663.73715   -7527.8767     622.6008 
   25550    272.95476   -111.84872    22781.261   -6845.1241    650.08741   -7495.2115    628.28316 
   25600    265.76841   -427.37179    22813.041   -6883.3959    632.97191   -7516.3678    630.91907 
   25650    277.36639   -297.40916    22874.673   -6826.8257    660.59445   -7487.4201    633.15626 
   25700    273.16963    135.69518    22926.476   -6846.9248    650.59917   -7497.5239    636.93363 
   25750    276.58893    70.069013     22878.76   -6864.4023    658.74279    -7523.145    641.57156 
   25800    266.13909    13.259477    23053.716   -6879.3587    633.85476   -7513.2134    646.01235 
   25850    271.96197    402.77661    22915.027   -6832.6846    647.72292   -7480.4076    644.76568 
   25900    283.70089   -977.72881    23075.622   -6808.5976    675.68112   -7484.2787    650.36906 
   25950    274.40614   -84.915961    23216.396   -6810.3409    653.54411    -7463.885    654.74371 
   26000    271.22029   -1019.6201    23033.863   -6839.8189    645.95648   -7485.7754    652.77014 
   26050     269.9607    694.07167    23090.255   -6861.7808    642.95656   -7504.7374    656.49503 
   26100    265.89459    695.51867    23096.337   -6843.1141    633.27244   -7476.3865    657.84381 
   26150    279.91575   -228.33281    23030.638   -6849.1236    666.66617   -7515.7898    655.25527 
   26200    267.90062   -542.06376    23027.799    -6846.211    638.05014   -7484.2611    655.81935 
   26250    272.71558   -235.06884     23162.74   -6864.9402    649.51775    -7514.458     658.7564 
   26300    255.53654   -355.90926    23175.061   -6864.8704    608.60301   -7473.4734    659.48225 
   26350    257.55114   -260.06127    23122.916   -6899.9776    613.40111   -7513.3787    660.14699 
   26400     260.2943    369.79526    23159.533   -6878.3674     619.9344   -7498.3018    660.98929 
   26450    269.16089     295.3817    23181.552   -6875.1738    641.05168   -7516.2255     660.5603 
   26500    277.12266    54.440281    23055.343   -6844.3915    660.01396   -7504.4054    659.40756 
   26550    264.55746    -149.4662    23108.678   -6842.6491    630.08783    -7472.737    660.36832 
   26600    249.83869    561.03958    23235.452   -6836.4525    595.03261   -7431.4851    663.13219 
   26650    283.88631    153.94154    23475.253   -6808.3939    676.12273   -7484.5166    670.80208 
   26700     275.6334    6.3306773      23325.4   -6823.7571    656.46703   -7480.2241    669.68088 
   26750    278.57848   -1112.3042     23361.65   -6784.0762    663.48124   -7447.5574    673.00219 
   26800    268.07567    381.85609    23263.047    -6808.731    638.46704   -7447.1981    672.67625 
   26850    271.04892    449.71553    23267.545   -6827.4415    645.54832   -7472.9898    672.67966 
   26900    264.31378    227.68292    23183.462   -6836.1509    629.50746   -7465.6584    670.14365 
   26950    275.51437    560.26979    23355.897   -6762.6123    656.18356   -7418.7958    675.70966 
   27000    264.19181    69.570425    23312.181   -6793.8008    629.21698   -7423.0178      674.756 
   27050    270.79835    454.50145    23201.405     -6811.54    644.95155   -7456.4916    675.50234 
   27100    274.75871   -850.71828     23161.53   -6823.2271     654.3838   -7477.6109    676.72163 
   27150    269.82963     137.0779    23207.907   -6814.4629    642.64439   -7457.1073     678.8152 
   27200    270.40183   -454.22945    23114.622   -6821.9872    644.00717   -7465.9944    678.44899 
   27250    269.43899    226.19658    23057.958   -6842.8717      641.714   -7484.5857    678.37427 
   27300    282.67207    500.89835    23037.563   -6830.3751     673.2308   -7503.6059    678.90568 
   27350    288.19343    95.355342    23274.921   -6798.2463    686.38084   -7484.6272    685.22816 
   27400    271.79338   -403.45368    23297.711   -6815.1981    647.32139   -7462.5195    688.80029 
   27450    269.11403   -106.30195    23270.291   -6841.0204    640.94007   -7481.9605    690.40457 
   27500    262.42913   -197.60706    23295.971   -6845.9908    625.01885   -7471.0097    692.26679 
   27550    268.36866     167.7502    23316.332   -6864.8274    639.16485   -7503.9922    694.61479 
   27600    257.39205    110.84668    23231.536   -6873.4313    613.02221   -7486.4536    692.69133 
   27650    261.72121   -126.77344    23306.033    -6874.071    623.33283   -7497.4038    695.65727 
   27700    273.12565    764.03328    23126.882   -6846.2693     650.4944   -7496.7637    694.68808 
   27750    267.53982    599.89156    23114.054    -6838.025    637.19082   -7475.2158    695.63638 
   27800    267.56032    194.61896    23218.707    -6812.088    637.23965   -7449.3277    698.30118 
   27850    265.54654    812.36714    23238.141   -6834.6421    632.44348   -7467.0856     698.6182 
   27900    269.32478    523.12495     23270.95   -6846.8176      641.442   -7488.2596    702.17856 
   27950    265.77393    222.01837    23152.803   -6874.5292    632.98505   -7507.5143    699.35767 
   28000    273.37406   -303.16158    23252.347   -6839.2861    651.08605   -7490.3721    703.49036 
   28050     269.3973    26.241849    23165.377   -6862.4148    641.61472   -7504.0295    702.46584 
   28100    248.86402    895.47158    23173.294   -6866.9798    592.71128   -7459.6911    703.00677 
   28150      261.631   -544.56434    23172.871   -6849.6291    623.11797   -7472.7471    703.53611 
   28200    262.57628    41.367049      23230.5   -6834.1758    625.36932   -7459.5451    708.88939 
   28250    270.47246   -618.08255    23147.882   -6854.4301     644.1754   -7498.6055    709.07928 
   28300    272.66684    105.46228    23296.151   -6846.5093    649.40167    -7495.911    713.14797 
   28350     275.2712   -645.92653    23185.907   -6849.4472    655.60439   -7505.0516    709.74126 
   28400    269.67792    -190.3187    23213.668   -6842.3095    642.28306   -7484.5926     709.3083 
   28450    263.32963    211.27762    23178.721   -6864.1913    627.16354   -7491.3548    708.88204 
   28500    266.64839     -284.297    23081.134   -6853.9046    635.06774   -7488.9723    705.98885 
   28550    267.03884   -814.64752    23182.031   -6873.4496    635.99765   -7509.4473    709.45046 
   28600    269.58113    194.82455    23069.537   -6876.0662    642.05254   -7518.1188    707.87962 
   28650    256.54677     107.4929     22954.28   -6886.7223    611.00904   -7497.7313    708.17735 
   28700    270.30376    13.878702    22859.231   -6880.6982    643.77361   -7524.4718    708.70879 
   28750    272.52538    522.62327    22959.434   -6876.7112    649.06476    -7525.776    712.48417 
   28800    266.97311   -828.75836    22984.679   -6894.2317    635.84112   -7530.0728     713.8575 
   28850    274.57419    506.80539     22868.83   -6905.5915    653.94434   -7559.5358    712.89864 
   28900    257.45267   -76.956627    22947.361   -6897.5103    613.16658   -7510.6768    715.67228 
   28950    265.82239    163.63877    23136.645   -6893.0344    633.10048   -7526.1349    722.09945 
   29000    256.97935   -97.810419    23099.594    -6878.258    612.03929   -7490.2973    721.77665 
   29050    268.72194     824.9801    23117.763   -6850.9512    640.00624   -7490.9574    723.08737 
   29100    278.17531   -421.27827    23109.556   -6848.7261    662.52103   -7511.2472    724.94418 
   29150     273.4403   -108.45459     22962.58   -6847.7776    651.24381   -7499.0215    723.76334 
   29200    266.62682   -335.87014    23056.747    -6853.009    635.01636   -7488.0253    725.62436 
   29250    277.51327    -691.1329    23114.892   -6819.2482    660.94427   -7480.1924    726.30369 
   29300    276.18509    -745.3541     23079.06   -6856.3841    657.78097   -7514.1651    725.87706 
   29350    271.27008    848.47427    23052.869   -6863.1197    646.07505   -7509.1947      724.782 
   29400    270.77292   -923.27751    23074.957   -6849.4924    644.89099   -7494.3834    728.61786 
   29450    270.76984     25.28154    23030.844   -6856.2268    644.88365   -7501.1104    728.68017 
   29500    273.96122    282.18087    23124.311   -6838.0304    652.48447   -7490.5148    731.92386 
   29550    265.44669     205.1646    23039.886    -6855.504    632.20569   -7487.7097    731.99448 
   29600    261.28479    147.44491    23085.917   -6874.4406    622.29342    -7496.734     734.5615 
   29650    271.72802    250.02576    23046.539   -6847.9228    647.16573   -7495.0885    734.24413 
   29700    275.37615   -518.85658    23077.152   -6825.4702    655.85436   -7481.3246    734.78416 
   29750    262.24836   -733.66339    23055.219   -6862.3411    624.58834   -7486.9294    735.86836 
   29800    266.23583   -185.55265    22914.784   -6883.5525    634.08514   -7517.6376    733.57448 
   29850    263.01665   -946.06932    22827.034   -6912.4161    626.41814   -7538.8342    733.13824 
   29900    264.07998    867.81685    22911.936   -6882.7886    628.95063   -7511.7393    737.34341 
   29950    259.16448   -219.45643    22920.885   -6888.7761    617.24354   -7506.0197    739.91329 
   30000    255.91623      204.542    22971.273   -6894.8825     609.5073   -7504.3898    743.92707 
   30050    262.83905    598.98889    22992.399   -6935.1128    625.99515   -7561.1079    746.36814 
   30100    249.85549    378.00735    22927.481   -6920.9339    595.07262   -7516.0065     746.2484 
   30150    256.19624    424.71462    22944.987   -6893.3001    610.17418   -7503.4742    748.66854 
   30200    257.02201    326.78339    22972.679   -6892.2837     612.1409   -7504.4246    750.92617 
   30250    264.94674    229.72435    22974.107   -6907.1456    631.01496   -7538.1605    753.22331 
   30300    272.86424   -303.27354    23004.837    -6882.946    649.87183   -7532.8178    754.04762 
   30350    263.66692   -354.40354    22860.285   -6920.0792    627.96685    -7548.046     751.8948 
   30400    274.17161    364.35604    22990.205   -6858.4535    652.98554   -7511.4391     755.2082 
   30450     254.5204    266.04499    23132.381   -6908.8399    606.18289   -7515.0228    757.21745 
   30500    248.93218   -76.310688    23072.995   -6939.5988    592.87361   -7532.4724    756.56597 
   30550    246.31725    206.32382    23017.426   -6948.9747    586.64572   -7535.6204    755.27908 
   30600    269.17556   -173.61009    23055.177   -6914.1665    641.08662   -7555.2531    757.68135 
   30650    267.48449    677.59183    22856.064   -6911.3091    637.05905   -7548.3681    756.91545 
   30700    270.16106    -183.3338      23018.1   -6869.7569    643.43375   -7513.1907    761.55762 
   30750     256.6961    1131.8922    23026.453   -6910.3992    611.36468   -7521.7639    764.64349 
   30800     279.9688   -271.99569    22994.097   -6880.5012    666.79252   -7547.2938    763.84576 
   30850    272.96633    602.42204    23028.034   -6868.9419    650.11496   -7519.0569    764.55489 
   30900    271.89939     15.84535     23134.56   -6851.8105    647.57387   -7499.3844    769.66003 
   30950    263.22456    221.96613    23094.201   -6837.1329    626.91331   -7464.0462    769.75429 
   31000    271.12008    44.143726    23080.099   -6833.6089    645.71781   -7479.3267    768.99221 
   31050    269.08934    -483.2063    23111.915   -6840.5254    640.88126   -7481.4067    773.01103 
   31100    275.67115   -105.79573    22970.655   -6835.8959    656.55694   -7492.4528    770.76299 
   31150    270.46356     657.0789    23050.152   -6860.6182     644.1542   -7504.7724    774.75192 
   31200    272.83804   -590.71965    23019.961   -6847.3291    649.80943   -7497.1385    775.43935 
   31250    262.23037    36.211918    23041.456   -6857.4592    624.54547   -7482.0046    777.56516 
   31300    274.88538   -442.60559     22950.02   -6827.5713     654.6855   -7482.2568    778.17899 
   31350     279.3991    139.98952    22994.941   -6822.0903    665.43568    -7487.526    779.69694 
   31400    282.80875    -465.7571    23049.172   -6825.2011    673.55634   -7498.7575    780.93419 
   31450    274.29249   -314.05387    23025.044   -6868.7597    653.27343   -7522.0331    782.82375 
   31500    265.68285   -349.16767    23071.755   -6867.0043    632.76813   -7499.7725    784.06292 
   31550    269.72104    91.235574    23103.431   -6835.8205    642.38576   -7478.2062    787.77774 
   31600    272.44028   -34.178414    23228.196   -6818.3232    648.86209   -7467.1853    790.53828 
   31650    276.47589   -226.90754    23103.881   -6838.4414    658.47358    -7496.915    788.58468 
   31700    270.20559    68.936971    23049.029   -6840.7365     643.5398   -7484.2763    789.95506 
   31750    273.06098   -88.806956    23068.968   -6826.9861    650.34039   -7477.3265    790.60702 
   31800    270.80538   -387.79283    23174.644    -6828.964     644.9683   -7473.9322    794.78818 
   31850    274.94129   -686.16019    23200.451   -6819.7967    654.81867   -7474.6153    795.01779 
   31900    267.40257   -139.46253    23134.179   -6843.9535    636.86393   -7480.8174    793.76175 
   31950    269.12668    675.46953    23340.269   -6853.7904    640.97019   -7494.7606    799.71841 
   32000    266.80598    44.198004    23330.444   -6865.7681    635.44306   -7501.2112    801.05452 
   32050    255.59586    368.92613    23213.336   -6888.7433    608.74429   -7497.4876    800.78473 
   32100    260.16223   -231.95874    23014.882   -6860.4434    619.61986   -7480.0632    796.11411 
   32150    275.48136    15.268006    22905.596   -6889.1423    656.10492   -7545.2472    794.56225 
   32200    262.01314   -13.446321     23108.44   -6880.9923    624.02812   -7505.0204    800.49887 
   32250    265.90837   -312.58251     22986.02   -6883.2776    633.30526   -7516.5828    797.86303 
   32300    268.34283    490.75021     23015.38   -6888.6343    639.10331   -7527.7376    800.28788 
   32350    261.96817   -16.840521    22978.181   -6895.2495    623.92101   -7519.1705    799.84728 
   32400    269.14262    1365.9256    23138.656   -6848.9559    641.00815    -7489.964     804.7294 
   32450    265.36047    125.52115    23173.243   -6880.6852    632.00033   -7512.6855    806.07605 
   32500    259.99125    964.45953    23208.211   -6904.2323    619.21264   -7523.4449    809.14929 
   32550    268.73291   -581.31013    23298.337   -6846.9965    640.03236   -7487.0289    811.89003 
   32600    262.97226   -38.752049    23173.811   -6835.4762    626.31241   -7461.7886    808.85711 
   32650    272.10091   -630.60077    22991.812   -6835.6665    648.05382   -7483.7203    806.25861 
   32700    266.57132   -1056.3514    23021.627   -6834.8245    634.88419   -7469.7087    807.37906 
   32750    267.69677   -33.822086    23043.011   -6862.8822    637.56463   -7500.4468    808.35834 
   32800     267.7881    874.50909    23214.285   -6857.6069    637.78215    -7495.389    814.36995 
   32850    277.90458    330.11935     23121.12   -6818.4857    661.87623    -7480.362    812.80823 
   32900    267.34318    -973.5829     23039.89   -6832.5291    636.72248   -7469.2516    813.46403 
   32950    273.84637   -3.3778215     22978.38   -6848.4425    652.21091   -7500.6535    813.27884 
   33000     263.1022    522.34979    22878.407   -6861.5484     626.6219   -7488.1703    811.78116 
   33050    262.25877    1349.6533    22945.162   -6863.9523    624.61311   -7488.5654    814.92775 
   33100    259.29495    267.00153    22990.788   -6883.8831    617.55429   -7501.4374    817.03999 
   33150    272.87882   -325.51116      23062.3   -6872.2608    649.90654   -7522.1674    818.31533 
   33200    273.25724   -234.76413    23080.638    -6861.068    650.80782   -7511.8758    818.63537 
   33250    264.94569    307.95229    23129.223   -6876.9567    631.01246   -7507.9692    819.94239 
   33300    265.67402    119.57724    23207.719   -6869.2145    632.74712   -7501.9616    824.99969 
   33350    278.58141    6.0140081    23354.501   -6831.0055     663.4882   -7494.4937    833.02319 
   33400    273.32299    202.63105     23398.01   -6846.1742    650.96442   -7497.1386    838.30052 
   33450    265.45237    16.546321    23333.537   -6867.7905    632.21921   -7500.0097    836.84916 
   33500    263.52242    165.96874    23311.904   -6876.3286    627.62272   -7503.9513    835.87995 
   33550    264.76783    32.760629    23041.296   -6892.0322    630.58887    -7522.621    828.98449 
   33600    277.70162   -493.63521     23046.26   -6855.3906    661.39284   -7516.7834    830.81502 
   33650    261.02051    882.43577    23107.375    -6888.384    621.66399    -7510.048    832.73422 
   33700    286.41622   -444.23205    23008.428   -6869.9955    682.14814   -7552.1436    832.19722 
   33750    262.36031   -288.34688    23030.677    -6876.185    624.85495     -7501.04    834.75968 
   33800    266.54725    677.28375    23117.708    -6853.605    634.82685   -7488.4319    836.44688 
   33850    276.60272    -103.0877     23139.19   -6816.2039    658.77563   -7474.9795    838.61745 
   33900    275.45619    641.49917    23218.768   -6823.3734    656.04498   -7479.4184    841.29953 
   33950    272.55374   -613.67905    23309.583   -6824.5384    649.13231   -7473.6707    845.70561 
   34000    274.57261   -3.3291325     23194.26   -6847.9076    653.94059   -7501.8482    843.57749 
   34050    267.54512   -724.22017    23055.649    -6891.588    637.20343   -7528.7914    841.18502 
   34100    265.85415    151.21212    23025.279   -6886.7326    633.17613   -7519.9088    840.00772 
   34150     260.1573    415.88627    22926.622   -6876.3675    619.60811   -7495.9756    838.50148 
   34200    270.75545   -48.995124    22984.587   -6879.4574    644.84938   -7524.3068    841.65267 
   34250    257.27536    645.85392    22926.656   -6869.9797    612.74429    -7482.724    842.69347 
   34300    268.21243    291.24371    23026.719   -6868.3248    638.79276   -7507.1175    847.47605 
   34350    265.00877   -358.16969    23143.938   -6886.9293    631.16271   -7518.0921    852.22651 
   34400    258.23268    481.10885     22965.69   -6889.2117    615.02431    -7504.236    850.37117 
   34450    267.91702   -965.01588    22802.101   -6878.4787     638.0892   -7516.5679    849.16368 
   34500    278.92808    483.94523    22854.794   -6887.5043    664.31387   -7551.8182    852.03061 
   34550      272.703    286.43316    22957.475   -6851.0226    649.48779   -7500.5104    854.75942 
   34600    277.12498   -91.742611    23038.718   -6795.8963    660.01949   -7455.9158    857.85448 
   34650    283.72446    87.252992    23138.784   -6808.1616    675.73725   -7483.8989    860.92657 
   34700    271.91376   -859.95628    23054.516   -6846.0403    647.60808   -7493.6484     861.5606 
   34750    266.94968    228.89439    23030.373   -6862.6754    635.78531   -7498.4607    859.87149 
   34800    266.45752     214.8092    23049.377   -6866.2272    634.61314   -7500.8403     859.3396 
   34850    272.53553    488.35341    23060.941   -6859.5865    649.08893   -7508.6754    859.95171 
   34900    270.27579   -393.93319     23003.45   -6855.1199    643.70698   -7498.8269     858.5623 
   34950    271.83546    535.00732    22962.172   -6874.6553     647.4216   -7522.0769    859.13094 
   35000      271.906   -278.68062    22867.267   -6861.2718    647.58961   -7508.8614    860.81167 
   35050    254.45553   -351.19036    22921.872   -6884.9172    606.02839   -7490.9456    861.31347 
   35100    275.04922    51.957622    22870.198    -6843.567    655.07571   -7498.6427    860.43092 
   35150    264.71894    875.74959    23021.746   -6847.4175    630.47243   -7477.8899    865.05617 
   35200    264.80894     95.80985    23145.819   -6866.1315    630.68677   -7496.8183    867.92318 
   35250    269.24633   -34.291329    23115.964   -6852.4832    641.25517   -7493.7384    868.31636 
   35300    272.45349   -190.99117     22991.98    -6866.867    648.89355   -7515.7605    865.98905 
   35350    270.73207   -518.68583    23109.551   -6862.9825     644.7937   -7507.7762    873.58913 
   35400    264.02099    515.20186    23148.022   -6870.8972    628.81014   -7499.7073    876.18419 
   35450    262.72804    704.86633    23205.297   -6854.6049    625.73077   -7480.3356    880.61191 
   35500     274.2867   -1398.4009    22893.175    -6864.865    653.25964   -7518.1247    873.78241 
   35550    264.86609    4.4744329    23166.255   -6868.4804    630.82289   -7499.3033    881.71235 
   35600     279.5307   -199.08973    23177.076   -6838.8612     665.7491   -7504.6103    883.17732 
   35650    274.24983   -522.73758    23096.769   -6842.7226    653.17183   -7495.8945    881.85482 
   35700    272.83486   -401.32647    22987.694   -6849.8511    649.80185   -7499.6529     880.3784 
   35750    266.29693    814.91841    22993.124   -6829.3655    634.23066   -7463.5962    882.71677 
   35800    280.37621   -257.65694    22936.186   -6814.0543    667.76283   -7481.8172    880.54536 
   35850    277.05095   -76.187529    23138.127   -6806.9224    659.84317   -7466.7656    886.03653 
   35900    278.41879    541.74659    23171.578   -6802.0238    663.10091   -7465.1247    887.65001 
   35950    278.48301    509.57945    23072.764   -6823.6512    663.25386   -7486.9051    884.19274 
   36000    266.65295   -179.72284     23173.62   -6857.0633    635.07859   -7492.1419    887.47925 
   36050    263.61584   -224.23405     23090.76   -6849.3681    627.84521   -7477.2133    885.76723 
   36100    269.93571   -287.36608    23005.199   -6857.7437    642.89702   -7500.6407    884.91694 
   36150    274.93967   -303.81586    23022.581   -6858.3193    654.81479   -7513.1341    884.72968 
   36200    267.59422     675.6199    23033.262   -6865.7095    637.32039   -7503.0299    885.90998 
   36250    275.95594   -312.38757    23186.505   -6869.8881    657.23523   -7527.1233    891.63476 
   36300    251.56883    690.36911    23059.026   -6914.3449    599.15323   -7513.4981    887.90482 
   36350    274.62071    180.52231    22974.755     -6868.95    654.05514   -7523.0051    885.26423 
   36400    260.53915    -524.3518    23121.242   -6891.0417    620.51756   -7511.5592    890.22537 
   36450    267.42538   -333.52106     23120.21    -6855.392    636.91826   -7492.3102    893.29746 
   36500    267.62857    673.40639    23086.193   -6849.6757    637.40221   -7487.0779    893.04245 
   36550    274.02322    129.89485    23080.536   -6837.8511    652.63212   -7490.4832    892.20503 
   36600    274.22032   -434.76615     23102.65   -6847.0896    653.10156   -7500.1912    895.52259 
   36650    270.23904    432.01091    23074.758   -6828.9211    643.61947   -7472.5406    896.02684 
   36700    275.01361    207.02878    22929.695   -6836.8842    654.99091   -7491.8751    894.24693 
   36750    273.32687   -134.70816    22828.358   -6868.9916    650.97365   -7519.9653    893.32716 
   36800    268.45454   -790.52892    22788.458   -6892.7143    639.36938   -7532.0836    895.20246 
   36850    261.91318   -9.0890303     22870.28    -6910.408    623.79004    -7534.198    898.59367 
   36900    261.11209    416.98742     22956.21   -6891.4451    621.88211   -7513.3272    902.40311 
   36950    265.26193   -694.22096    23064.052   -6876.7198    631.76565   -7508.4855    909.01189 
   37000    264.98648    27.116161    23131.496   -6881.0152    631.10962   -7512.1248    912.28099 
   37050    273.42785    228.95934    23054.932   -6864.6069    651.21415    -7515.821      912.815 
   37100    264.23996   -598.58527    23039.473   -6877.3056    629.33166   -7506.6373    916.53233 
   37150    273.09291    79.345156    22921.061   -6863.6789    650.41643   -7514.0953     915.8616 
   37200     277.8789    357.17614    22954.269   -6865.1962    661.81507   -7527.0113    919.21111 
   37250    262.09842   -775.33292    22953.156    -6873.915    624.23122   -7498.1462    919.60873 
   37300    259.53735   -171.62868    23083.288   -6891.5616     618.1316   -7509.6932    923.79963 
   37350    260.69191    471.82192    23106.044   -6846.2787    620.88138   -7467.1601    925.32671 
   37400    266.39887    440.46286     22940.12   -6866.8233    634.47346   -7501.2968    919.09655 
   37450    271.40265     728.6474    22965.602   -6851.5482    646.39079    -7497.939    921.40165 
   37500     276.7747   -161.00976    23005.981   -6864.9659    659.18523   -7524.1511     923.4735 
   37550    264.87465    697.93544    22991.863   -6865.1298    630.84328   -7495.9731    923.40393 
   37600    262.64137   -236.34073    23050.115   -6885.0012    625.52435   -7510.5255    925.12342 
   37650    261.89305    133.61075    23090.549   -6858.5964     623.7421   -7482.3385    927.33568 
   37700    269.56279   -198.58414    22913.838   -6890.8557    642.00887   -7532.8646    923.02546 
   37750    254.09268    97.704657    22728.231   -6935.6614    605.16421   -7540.8256    919.70775 
   37800    259.91107   -561.49156    22766.948    -6932.953    619.02167   -7551.9747    921.62685 
   37850    265.70297     87.05183    22751.926    -6924.634    632.81607     -7557.45     925.4563 
   37900    267.06477    55.020419    22834.983   -6921.1255    636.05941   -7557.1849    929.31184 
   37950     266.9573     539.8999    22747.157   -6901.3214    635.80345   -7537.1248    930.98279 
   38000     268.6232    377.20876    22988.388   -6842.0987    639.77108   -7481.8697    939.73875 
   38050    261.93333    78.931702    22965.853   -6842.3624    623.83802   -7466.2004     940.1223 
   38100    265.30319   -207.58396      22956.4   -6864.0222     631.8639   -7495.8861    943.98803 
   38150    266.54293     629.0696    23121.831   -6849.7044    634.81656   -7484.5209     949.9766 
   38200    272.75001    651.07049     23191.26   -6827.5868    649.59976   -7477.1865    955.06185 
   38250    263.80045   -570.37451    23071.252     -6859.33    628.28489   -7487.6149     955.3939 
   38300    272.93226    289.14674    22974.786   -6811.7753    650.03381   -7461.8091    953.40104 
   38350    262.68323    64.847951    23057.792   -6846.7879    625.62405    -7472.412    956.58271 
   38400    273.02457   -424.59995    23026.351   -6833.6622    650.25367   -7483.9159    957.42509 
[...]
   90950    256.27053   -313.91719     23436.16   -6861.1547    610.35112   -7471.5059    2241.9672 
   91000     264.6449   -201.70757    23378.082   -6898.1079    630.29608    -7528.404    2237.9085 
   91050    249.44483   -476.43237    23086.627   -6929.5727    594.09457   -7523.6673    2220.5735 
   91100    255.00405   -305.74467    23143.904   -6934.1453    607.33479   -7541.4801     2223.116 
   91150    270.65777   -737.86768    23107.614   -6903.5937    644.61673   -7548.2105    2222.1809 
   91200     259.6707   -477.19982    22846.082   -6899.1166    618.44919   -7517.5658    2208.6961 
   91250    273.47676     30.18427    23011.483   -6877.8697    651.33064   -7529.2003    2224.1671 
   91300    276.32782   -319.74433     23068.76   -6867.0152    658.12091   -7525.1361    2229.8866 
   91350    276.32231     -27.7338    23065.766   -6866.9741    658.10779   -7525.0819    2234.5806 
   91400    272.39744    124.20037    23119.486    -6846.879    648.76007    -7495.639    2239.1812 
   91450    269.80581    130.67324    23228.079   -6824.0453    642.58767    -7466.633    2253.1438 
   91500    278.23248    444.46162    23479.518   -6768.3494    662.65719   -7431.0066    2269.9653 
   91550    269.60828   -680.18527    23357.325   -6810.1705     642.1172   -7452.2877    2262.9576 
   91600    269.71067    -165.1244    23210.499   -6819.5034    642.36105   -7461.8645    2253.5911 
   91650    264.42104    120.45265    23096.484   -6847.3756    629.76294   -7477.1386    2247.5004 
   91700    276.75114    441.05656    23053.854   -6851.1584    659.12911   -7510.2875    2246.5397 
   91750    275.75385   -472.55984    23015.315   -6839.0089     656.7539   -7495.7628    2245.6533 
   91800    271.90358    164.93826    23115.567   -6850.6651    647.58385   -7498.2489    2249.6745 
   91850     278.5776    378.84624    23117.135   -6839.8144    663.47914   -7503.2935    2253.1157 
   91900    279.46207     171.2955    23222.602    -6827.118    665.58565   -7492.7037    2261.9473 
   91950    272.09387   -89.950925    23093.994    -6816.733    648.03705   -7464.7701    2255.1768 
   92000    260.60856    23.653863    23088.851   -6875.1338    620.68286   -7495.8167    2256.2894 
   92050    273.72122     156.1765    22984.683   -6838.3248    651.91285   -7490.2377    2251.0474 
   92100    262.85977    275.15791    23080.571   -6849.1902    626.04449   -7475.2347    2252.4687 
   92150    273.81392    64.313291    23026.118   -6842.6685    652.13364   -7494.8021    2249.9826 
   92200    272.81831   -276.87877    23086.971   -6859.9069    649.76243   -7509.6693     2260.875 
   92250    291.51873   -849.90578     22986.91   -6830.8276     694.3006   -7525.1282    2256.6693 
   92300    271.21535    1197.8643    23035.561   -6836.1924    645.94472   -7482.1371    2264.1179 
   92350    271.84378    93.028478    22991.304   -6849.5884    647.44141   -7497.0298    2262.3199 
   92400    273.75259   -173.72456    23070.698    -6837.129    651.98756   -7489.1166     2268.687 
   92450    278.34394   -309.95834    22956.774   -6841.9071    662.92265   -7504.8297    2264.2419 
   92500    270.10976   -66.834896    22942.179   -6835.5884    643.31156      -7478.9    2266.7232 
   92550    284.19992   -178.65037    23110.637   -6834.7857    676.86965   -7511.6554      2276.56 
   92600    274.99481    118.51505    23132.766   -6798.6255    654.94613   -7453.5716    2274.1957 
   92650    269.30687    64.051385    23056.689   -6855.8395    641.39935   -7497.2389    2270.8563 
   92700    275.11759    -421.0087    23088.172   -6854.3985    655.23855    -7509.637    2274.7561 
   92750    266.72297    981.10699    23119.526   -6885.8354    635.24536   -7521.0807    2273.4249 
   92800    264.03543    381.27635    23294.618    -6869.187    628.84452   -7498.0315    2285.8862 
   92850    256.03033    90.405133    23222.256   -6876.5553    609.77905   -7486.3343     2282.153 
   92900    267.78075   -651.86811    23013.806   -6890.5305    637.76465   -7528.2952    2270.6624 
   92950    260.49559   -18.767972    22947.857   -6893.6033    620.41382   -7514.0172    2266.3243 
   93000    269.45139    376.11017    22848.086   -6886.8004    641.74354   -7528.5439    2259.5188 
   93050    262.88515   -524.99193    22925.399   -6890.9822    626.10496   -7517.0871    2264.8747 
   93100      265.452    522.60906    23023.581   -6852.5919    632.21833   -7484.8103    2270.4162 
   93150    259.26721   -6.8606604    23018.644     -6874.54    617.48823   -7492.0283    2273.1919 
   93200    264.44893    -423.3424    22973.785   -6885.0816    629.82936    -7514.911    2272.2014 
   93250     266.9189    157.64218    23017.409   -6886.1282    635.71199   -7521.8402    2279.5222 
   93300    265.91741    519.55899    23045.088   -6889.0745    633.32677   -7522.4012    2283.2522 
   93350    266.95478   -297.71642    22978.093   -6912.5335    635.79746   -7548.3309    2279.8118 
   93400    261.51169   -29.921403    22925.349   -6918.0055    622.83383   -7540.8394    2275.4957 
   93450    247.40311   -338.05939    22921.797   -6910.5239    589.23187   -7499.7558    2277.1973 
   93500    255.12084   -301.44651    23048.725   -6901.1109    607.61294   -7508.7239     2293.273 
   93550    267.10511   -93.613911    23122.711   -6862.7732    636.15548   -7498.9287    2302.0388 
   93600    268.25541    173.51984    23056.263   -6864.6941    638.89513   -7503.5893    2297.1493 
   93650    264.45541   -551.10552    23033.481   -6864.1334    629.84479   -7493.9782     2297.239 
   93700    276.33374   -25.707104    22882.733   -6888.4746      658.135   -7546.6096    2290.4933 
   93750    267.60743   -492.14927     23036.21   -6904.4985    637.35186   -7541.8504    2301.2098 
   93800    273.37233   -168.85033    23056.156   -6867.6803    651.08192   -7518.7622    2301.7774 
   93850    270.12566   -814.37186     22927.07   -6915.4059    643.34944   -7558.7553    2293.8267 
   93900    263.13923   -721.88453     22957.17   -6911.9657    626.71008   -7538.6758    2298.3313 
   93950    278.43592    24.879431     22714.23   -6908.8308     663.1417   -7571.9725    2286.3589 
   94000    266.72942    -833.9138     22755.66   -6880.4974    635.26072   -7515.7581    2289.9993 
   94050    276.45143   -54.536183    22757.555   -6873.4861    658.41531   -7531.9014    2291.0755 
   94100    278.61822    1324.0847    22864.103     -6853.27    663.57589   -7516.8458    2299.9905 
   94150    278.15696    545.06918    22771.562   -6863.1322    662.47733   -7525.6095    2292.6097 
   94200    263.63358    1278.5775    22983.707   -6862.1206    627.88745    -7490.008    2309.7053 
   94250    279.76057    -75.58791    23035.834   -6871.1088    666.29657   -7537.4053    2315.9161 
   94300    276.44248   -637.80935    23055.964   -6838.0205      658.394   -7496.4145    2317.7813 
   94350    271.02206    33.922475    23050.436   -6866.5866    645.48435    -7512.071    2319.9397 
   94400    274.90278    536.17845    22985.786   -6818.0534    654.72694   -7472.7803    2317.4695 
   94450    281.66033   -775.13322    23058.012   -6809.5809    670.82118    -7480.402    2326.0988 
   94500    272.46653   -611.52314    23109.055   -6822.1324    648.92462    -7471.057    2333.2969 
   94550    265.32628    677.34548    23074.363   -6852.6467    631.91891   -7484.5657    2332.6103 
   94600    270.36722    742.19291    23199.573   -6838.9253    643.92475     -7482.85    2341.0958 
   94650    269.86727    267.34792    23216.056   -6854.6769    642.73403    -7497.411     2343.322 
   94700    266.55898    177.13906    23172.554   -6860.5506    634.85478   -7495.4054     2341.965 
   94750     259.2704    42.909559    23381.066   -6852.4722    617.49582    -7469.968    2359.9377 
   94800     260.4901    499.11779    23217.304   -6843.0573    620.40073    -7463.458    2349.7747 
   94850    262.84387   -1077.9531    23210.646   -6866.2831    626.00664   -7492.2898    2353.2101 
   94900    268.11108   -118.34732    23079.748   -6870.0373    638.55137   -7508.5886    2344.4467 
   94950    262.59289   -344.96998    23123.078   -6850.1956    625.40888   -7475.6044    2349.7818 
   95000    264.52879    10.883023    23151.096   -6875.4307    630.01956   -7505.4502    2352.9885 
   95050    277.31734    413.24456    22975.843     -6867.69    660.47762   -7528.1677    2345.3198 
   95100    277.53372   -130.42871    23076.669   -6828.7692    660.99295   -7489.7622    2352.5547 
   95150    258.13098    62.848599    23135.702   -6860.7228     614.7821   -7475.5049    2358.1384 
   95200     273.9963    277.04185    23115.845   -6855.8215    652.56801   -7508.3895    2358.1237 
   95250    266.52738    204.05745     23034.71   -6853.3858    634.77952   -7488.1654       2352.2 
   95300     270.7451    1004.8121    23091.399    -6841.535    644.82473   -7486.3597    2356.7602 
   95350    265.00517     -48.8522    23065.661   -6853.0901    631.15412   -7484.2442    2356.2283 
   95400    281.51756    232.71195     22931.39   -6852.7426    670.48114   -7523.2238    2348.6247 
   95450    271.85698    -54.74065    23067.074   -6836.5126    647.47287   -7483.9854    2358.7481 
   95500     276.3501   -668.36785    23083.653   -6817.2584    658.17397   -7475.4324    2362.3661 
   95550    272.83777   -112.13629    23297.389   -6826.8337    649.80878   -7476.6425    2376.4994 
   95600    280.84149    185.26495    23328.116   -6814.4264    668.87097   -7483.2974     2378.967 
   95650    265.95675    142.49955    23373.115   -6839.0485    633.42048    -7472.469    2385.1103 
   95700     258.4564   -103.42566    23401.003   -6851.1885    615.55714   -7466.7456    2385.9735 
   95750    273.95008    88.232972    23236.674   -6834.1042    652.45794   -7486.5621     2375.721 
   95800    271.41464    12.399286    23178.006   -6821.2793    646.41936   -7467.6986     2377.398 
   95850    273.57799    145.43529    23335.416   -6837.2205    651.57173   -7488.7922    2388.7016 
   95900      277.595   -916.32088    23271.511   -6821.8512     661.1389   -7482.9901    2384.2666 
   95950    270.22615   -479.03824    23192.663   -6835.2873    643.58877   -7478.8761    2383.3242 
   96000     264.8875   -147.12529    23200.879   -6805.4427    630.87387   -7436.3166     2388.361 
   96050    288.45641    486.93906    23105.647   -6795.0087    687.00717   -7482.0159    2385.9487 
   96100    276.24478    457.11887     23128.94   -6805.8585    657.92313   -7463.7816    2394.0757 
   96150     284.7056    448.52062    23081.967   -6817.0784    678.07399   -7495.1524    2393.5093 
   96200    267.25757    437.86319    23152.482   -6847.1227    636.51859   -7483.6413    2399.2301 
   96250     253.4306   -326.79912    23249.402   -6851.3858    603.58737   -7454.9732    2408.5567 
   96300    266.90903   -452.79769    23156.763   -6849.2181    635.68849   -7484.9066    2404.7227 
   96350    258.34669   -52.687662    23121.865   -6853.6257    615.29585   -7468.9216    2404.2246 
   96400     276.1929    618.83919    23088.532   -6851.5326    657.79957   -7509.3321    2404.0695 
   96450    266.35056    133.93505    23159.853    -6858.912    634.35841   -7493.2704    2409.2536 
   96500    269.65711   -107.99058    23188.445   -6826.0142    642.23349   -7468.2477    2414.8563 
   96550    269.73453   -149.33148    23044.686    -6865.751    642.41789   -7508.1689    2404.8834 
   96600    267.32262    -524.3351    23115.879   -6839.5868    636.67352   -7476.2603    2409.3516 
   96650    260.57116   -522.02935    23090.943   -6863.6435    620.59379   -7484.2373    2408.8499 
   96700    272.80528   -592.53688    23206.367   -6853.4486    649.73139     -7503.18    2419.6699 
   96750    269.05519   -270.57888    22951.557   -6836.7371    640.79993    -7477.537     2402.202 
   96800    277.55827    166.24348    22922.111    -6875.744    661.05144   -7536.7954    2398.9864 
   96850     274.1975    348.16544    22931.439   -6845.3343    653.04719   -7498.3815    2402.1194 
   96900    272.72181    158.14389    23024.602   -6849.7807    649.53259   -7499.3133    2405.8738 
   96950    265.10582   -65.305475    23021.106   -6871.4155    631.39385   -7502.8094    2410.5417 
   97000    271.85691     548.1573    23132.658   -6883.2669     647.4727   -7530.7396    2419.6244 
   97050    259.60603   -242.03722    23310.184   -6860.5588    618.29517    -7478.854    2434.2632 
   97100    258.29494    54.133043    23174.081   -6853.1083     615.1726   -7468.2809    2420.5694 
   97150    277.35791    -1043.176    23318.269   -6823.9688    660.57425   -7484.5431    2431.1645 
   97200    268.03084   -402.50693    23243.941   -6825.0398    638.36026   -7463.4001    2430.8149 
   97250    273.34262   -102.70257    23208.232   -6791.8207    651.01116   -7442.8319    2433.8518 
   97300    269.25289    426.61082    23221.657   -6805.4635    641.27079   -7446.7343    2435.1259 
   97350    260.17314   -162.09094    23163.574   -6837.4449    619.64584   -7457.0907    2436.3494 
   97400     268.1404   -272.99721    23177.605   -6855.2014     638.6212   -7493.8226    2434.9082 
   97450    262.90706    359.24974    23114.671   -6863.1923    626.15713   -7489.3494    2430.9626 
   97500    263.07967   -315.34634    23082.541   -6853.2085    626.56822   -7479.7767    2427.5206 
   97550    281.24696   -670.09061     23096.85   -6827.9951    669.83668   -7497.8318    2425.9859 
   97600    282.26963   -673.71346    23267.142    -6813.169    672.27232   -7485.4414     2440.475 
   97650    271.75906   -506.46695    23228.417   -6823.3654    647.23964    -7470.605    2439.0098 
   97700    277.64342   -65.764588     23182.28   -6822.4797    661.25424   -7483.7339    2436.1438 
   97750    271.14656    226.73865    23226.335   -6832.9954    645.78089   -7478.7762    2439.3068 
   97800    277.28647    269.19494    23174.851   -6841.3844    660.40409   -7501.7885    2436.2214 
   97850    267.86411   -354.48667    23196.205   -6830.4348    637.96316    -7468.398    2440.7242 
   97900    276.10097   -32.694219    23182.072   -6833.5156    657.58062   -7491.0962    2444.0246 
   97950     269.4371   -282.41629     23223.83   -6865.3772    641.70952   -7507.0867    2447.1455 
   98000    260.93174   -495.06836    23187.305   -6868.6236    621.45258   -7490.0762    2441.6119 
   98050    267.09436    836.65063    23113.396   -6860.3324    636.12989   -7496.4623    2435.7673 
   98100    271.93845   -748.28427    23050.791    -6868.226    647.66689   -7515.8928    2433.3844 
   98150    272.58121   -786.79933    22962.451   -6863.7796    649.19774   -7512.9773    2426.1358 
   98200    264.93175   -510.78313    23056.598   -6847.1853    630.97927   -7478.1646    2437.0357 
   98250    274.10268    182.55691    23065.366   -6827.8844    652.82138   -7480.7057    2434.9468 
   98300    271.99263   -312.39827    23108.614   -6855.2987    647.79594   -7503.0946    2439.6095 
   98350    261.74328     317.5505    23012.419   -6873.1974    623.38538   -7496.5827    2435.5786 
   98400    258.09307     388.3815    22972.426   -6901.4998    614.69181   -7516.1916     2431.803 
   98450     263.3346   -394.51587    22934.183   -6890.1509    627.17538   -7517.3262    2431.2759 
   98500    271.82828    -23.24675    22905.355   -6865.1181    647.40451   -7512.5226    2427.6912 
   98550    266.42623    -41.71466    22938.043    -6885.563    634.53861   -7520.1016    2432.5113 
   98600    267.39442    355.11823    23066.743    -6876.388    636.84452   -7513.2325    2446.1274 
   98650    273.02201   -522.26756      23072.7    -6858.145    650.24757   -7508.3926    2450.1947 
   98700    282.78796   -3.3605765    23063.451   -6836.3093    673.50682   -7509.8162    2452.6713 
   98750     273.1401   -986.63122    23108.603   -6861.9408    650.52883   -7512.4696    2453.9648 
   98800    267.27559    -302.0709    23270.872   -6856.0928    636.56151   -7492.6543    2467.0885 
   98850    257.61705    -480.4736    23065.734   -6872.7893    613.55808   -7486.3473    2452.7463 
   98900      270.985     24.69915    23062.146   -6875.3566    645.39609   -7520.7527    2454.4623 
   98950    272.63816   -350.36781    23094.969   -6885.3096    649.33338    -7534.643    2454.3089 
   99000    266.96639   -605.12162    23158.675    -6842.796    635.82509   -7478.6211    2460.0499 
   99050    261.28813   -134.20137    23067.783   -6877.5032    622.30137   -7499.8046    2456.3485 
   99100    279.55973    156.34185    22955.909   -6867.8039    665.81826   -7533.6221    2449.4472 
   99150     265.7942   -158.16284     23012.99   -6857.0718    633.03334   -7490.1052    2454.0186 
   99200     278.7712   -784.09303    22978.213   -6852.9873    663.94024   -7516.9275    2454.0079 
   99250    278.13387    451.72835    23100.214   -6825.2789    662.42233   -7487.7013    2464.0591 
   99300     277.0853    571.66732    23189.064   -6821.7694    659.92498   -7481.6944    2470.2407 
   99350    280.36325   -494.46769    23137.792   -6819.0661    667.73196   -7486.7981    2469.8491 
   99400    283.19138    379.38525    23201.308   -6819.1477    674.46764   -7493.6154    2473.7211 
   99450    275.39418   -669.78515    23274.734     -6807.94     655.8973   -7463.8373    2477.3162 
   99500     271.9398   -482.65147    23188.692   -6830.3736    647.67011   -7478.0437    2473.8802 
   99550    276.29211     18.37463    23180.937   -6830.3307    658.03587   -7488.3666    2475.0757 
   99600    270.64193    241.29546    23103.055   -6847.0494    644.57902   -7491.6284    2472.0245 
   99650     270.6215    146.62852    23139.653   -6852.3684    644.53036   -7496.8988    2479.5771 
   99700    264.43407     243.7817    23173.688   -6851.6892    629.79396   -7481.4832    2486.9309 
   99750    269.26564   -832.71457    23102.915   -6849.7335    641.30115   -7491.0347    2484.0186 
   99800    268.09401    377.35341    23068.378   -6866.4805    638.51073   -7504.9912    2485.0269 
   99850    270.98693    481.93705    23068.168   -6864.7173    645.40069    -7510.118     2483.886 
   99900    265.05025   -564.81654    23150.044   -6883.2678    631.26149   -7514.5293     2490.736 
   99950    268.61073   -162.84076    23183.664   -6850.0076    639.74138    -7489.749    2493.6231 
  100000    261.75049    229.02641    23172.551   -6864.1024    623.40256    -7487.505    2493.5277 
Loop time of 38.4592 on 10 procs for 100000 steps with 800 atoms

Performance: 2246.535 ns/day, 0.011 hours/ns, 2600.156 timesteps/s
99.5% CPU use with 10 MPI tasks x no OpenMP threads

MPI task timing breakdown:
Section |  min time  |  avg time  |  max time  |%varavg| %total
---------------------------------------------------------------
Pair    | 20.766     | 28.672     | 31.111     |  73.5 | 74.55
Neigh   | 1.1385     | 1.5123     | 1.6231     |  15.1 |  3.93
Comm    | 3.6507     | 6.0456     | 14.225     | 161.9 | 15.72
Output  | 0.048027   | 0.051136   | 0.05842    |   1.2 |  0.13
Modify  | 1.4404     | 1.8257     | 2.3381     |  21.9 |  4.75
Other   |            | 0.352      |            |       |  0.92

Nlocal:    80 ave 88 max 74 min
Histogram: 2 0 1 1 2 2 1 0 0 1
Nghost:    541.5 ave 558 max 531 min
Histogram: 2 3 0 1 0 0 1 2 0 1
Neighs:    0 ave 0 max 0 min
Histogram: 10 0 0 0 0 0 0 0 0 0
FullNghs:  2427.6 ave 2693 max 2212 min
Histogram: 2 0 0 1 4 0 1 1 0 1

Total # of neighbors = 24276
Ave neighs/atom = 30.345
Neighbor list builds = 11922
Dangerous builds = 0

undump              1
unfix               2
unfix               3
unfix               4


# Define Order parameter
#
compute             2 all orientorder/atom nnn NULL cutoff 3.5
thermo              1000
thermo_style        custom step temp press vol etotal ke pe c_1[4]



################################################
#######         Run Simulation         #########
################################################

log                 log.run_${NAME}
log                 log.run_ice_box_270K_1atm
