LAMMPS data file via write_data, version 29 Oct 2020, timestep = 800000

4175 atoms
1 atom types

-0.5980129591045475 50.59801295910721 xlo xhi
-0.5980129591045475 50.59801295910721 ylo yhi
-0.5980129591045475 50.59801295910721 zlo zhi

Masses

1 18.015

Atoms # atomic

1189 1 21.813504652544708 18.45642551945152 0.33819735438782883 0 0 1
666 1 3.9763587299388607 2.0518167636351388 2.93858911125927 1 0 0
295 1 6.5391220788474405 1.456007084749857 2.810438638814229 1 0 0
34 1 10.88189098417706 0.9146398109592127 2.2258253584786383 0 0 0
534 1 11.039460495739414 3.579926252842406 2.966449360658869 0 0 0
2372 1 23.667475517239016 -0.14445964090481161 4.0711287014304 0 1 0
1763 1 15.34511438477637 2.0785427006826778 1.0211466936662479 0 0 1
1750 1 34.93018212677265 24.7719819306717 0.0626857915446043 0 0 1
2638 1 3.7778063932617894 -0.40135958327767735 7.009422109662292 1 1 0
61 1 25.174935410475552 0.9538051678162578 1.8710762788860444 0 0 0
321 1 27.96991198901359 1.0518583111454924 1.5636101683200243 0 0 0
521 1 36.50206644707086 11.027716013914478 -0.47590448399952556 0 0 0
1997 1 33.2052121938581 0.5053998019706525 1.0117125401964029 0 0 1
108 1 35.86117241753719 1.584399512828154 1.2516121184885545 0 0 0
482 1 35.956984132334554 0.0741093997925073 9.512707118506489 0 0 0
1721 1 40.84904619635083 0.4878771381535727 2.045807674130689 -1 1 1
2211 1 23.969366283070382 19.787362013293116 -0.5145377516505082 0 0 0
3176 1 43.487259063513136 0.2003404901583723 0.6819629774112719 0 1 1
3914 1 13.542758875248166 0.1259743917867977 1.0851966722368527 0 1 1
2333 1 2.151948242391368 3.16311693481899 1.0981922650054705 1 1 0
2005 1 3.2725315278139484 5.899154112904181 0.7934929607093157 0 0 1
1533 1 7.5517831834880145 3.3239063815072676 0.8399038469541484 0 0 1
489 1 5.884598530485346 5.383486383402405 0.043913442973577244 1 0 0
12 1 8.57237554585266 5.037369748935449 2.6006893916908718 0 0 0
236 1 16.5798990303835 6.706090665369293 3.11003646898388 0 0 0
1591 1 19.601458131459147 5.097900778934011 0.2873007902593855 0 0 1
97 1 20.668276767756762 5.422474711669963 2.6816778533799117 0 0 0
179 1 30.032378715376954 1.085715031288256 7.256070824509075 0 0 0
197 1 23.97813477322852 3.2219097486735855 1.4204427510642352 0 0 0
433 1 26.01038963147138 4.944686491549823 1.0764442267290772 0 0 0
1583 1 31.166576910317886 4.538201251509677 1.4334677416933688 0 0 1
1899 1 37.06269209097336 21.58873482533892 15.034624495325877 0 0 1
1839 1 40.25278386159833 5.2340173434418045 1.330763760318696 0 0 1
3918 1 43.63202832200861 3.0837948613998067 1.3116414765729787 -1 1 1
1180 1 46.11900854496004 3.7678477733878113 2.177813923064729 0 0 0
1659 1 2.875944841285304 7.716245261134393 3.3288766695290857 1 0 1
2161 1 8.589470622398128 7.5474555205068725 1.13256051184881 0 1 0
333 1 12.85563562211714 5.166933665063411 1.6012707093246759 0 0 0
3735 1 11.30681211247033 7.206335068035122 0.7118849491891912 0 1 1
2650 1 16.835457776563093 6.154994959060173 0.33646317345337806 0 0 0
808 1 20.761794986239277 22.78410854317512 14.355214359300863 0 0 0
3814 1 24.75314229345173 7.229347328521579 0.14799376219616545 0 1 1
283 1 28.687003621991714 8.299863733101237 2.0287785811696226 0 0 0
4015 1 0.9033035092443225 24.249338372563365 4.168146631816609 1 0 1
378 1 27.441163162673575 24.74383898495134 6.248861107617109 0 0 0
472 1 35.492725611521706 6.476395177881432 2.3690222481494656 0 0 0
2547 1 6.83703735715776 10.935266619377911 -0.40063686767950535 1 0 0
1760 1 40.482516417151956 8.10473574413457 1.0662446401030554 0 0 1
1648 1 43.211675816988105 8.765266131701383 0.42163010222622943 0 0 1
1870 1 46.54773495677394 8.193433157584007 1.2591949172720531 0 0 1
1559 1 49.76048352814027 5.555316225917118 2.1165552975143744 0 0 1
2979 1 18.568315940771072 24.116028690236142 15.131127063160061 0 0 0
570 1 0.21607350303866113 12.092337048466963 -0.3717822002558959 1 0 0
263 1 4.827290969911286 12.025110607159105 1.2757374139306588 0 0 0
2226 1 2.389621100956543 -0.38315606710350436 2.9865739006039687 1 1 0
2541 1 9.411612801077984 10.669821316340686 2.6805394670784075 0 0 0
1641 1 13.923270546433097 10.646015065184171 0.522918449835645 0 0 1
4152 1 2.654540966351623 16.063548092681447 -0.11387671740290728 0 0 1
2018 1 21.35208041226848 10.57774321231135 0.3883611340337265 0 0 1
130 1 25.66814899692235 11.837872590451727 0.7114283079968517 0 0 0
351 1 26.638260721406898 9.329976069063001 0.4569096843019158 0 0 0
767 1 31.200502202224488 11.931229476198514 2.369943480705298 0 0 1
435 1 32.90389395991839 10.483458597677014 0.5990912270479753 0 0 0
2363 1 34.64618727277295 9.010406727434153 2.5810973720701735 0 1 0
398 1 36.823244497219065 10.785663867292135 2.3004637086155943 -1 0 0
121 1 39.43021631077589 9.515123769043573 3.0299556755449557 0 0 0
579 1 42.81006434175548 11.31736635481133 -0.03130033831182799 0 0 0
2729 1 47.948220320177256 10.480037464983802 1.9081091127449823 0 0 0
1930 1 50.29455015515542 9.886282417738304 0.6401963106397608 0 0 1
1908 1 2.531614362893587 13.339992040608946 0.6744071769541946 0 0 1
4089 1 6.784576235384013 13.908184182325636 2.4112060049602153 0 0 1
595 1 8.851016896452021 13.569541860662447 0.910211377556053 0 0 0
194 1 50.57355145717624 1.5320722251140384 16.015816196905405 -1 0 0
1815 1 15.809455823347633 14.36739811094367 0.6895497589157431 0 0 1
662 1 23.11206206967781 12.79913642467385 0.5112376501737659 0 0 0
4069 1 27.026052124331592 13.804222295109629 2.1742310202072535 0 0 1
646 1 29.498296677302214 13.444173375035103 0.8041557812044817 0 0 0
2585 1 33.9136068231868 14.730764724778629 0.2611105645115379 0 0 0
587 1 35.00301742074315 14.876636567006328 3.17404191822063 0 0 0
581 1 37.55883200557109 13.338959597674295 2.660138326080093 0 0 0
1690 1 39.12009117261799 14.577794152519157 0.6384822687495533 0 0 1
634 1 41.47392515849485 15.169056509244385 1.7029769358886861 -1 0 0
3312 1 41.89218031872389 12.522963697010201 2.136608230366468 0 0 1
10 1 46.82064981559587 12.822211588420062 0.8904729253529142 0 0 0
426 1 46.117969430899265 14.467574105034569 2.8148122612247297 -1 0 0
2375 1 10.810353123421216 23.395769168858138 -0.07664774143446507 0 0 0
1130 1 -0.017776348822375443 18.32386873157626 1.9625571846403589 1 0 0
2118 1 24.75895924591631 23.88796776145327 -0.15330484800916772 0 0 0
3738 1 2.459180704889704 18.19287421211515 1.6270486501210106 1 0 1
17 1 11.483195219175611 17.06923178921598 1.784231953229876 0 0 0
319 1 11.48240425525638 12.814210348491118 2.519006604925574 0 0 0
457 1 14.021377114697843 16.696867852841805 0.24832238300429954 0 0 0
1945 1 17.854804110279574 18.655013543893773 1.174110644308452 0 0 1
1435 1 30.756955481638773 8.567115827933005 -0.020733985218220785 0 0 1
1896 1 19.914671028478473 15.28445056525128 3.9700773047227313 0 0 1
665 1 47.1057525276554 3.5933479508201334 -0.5741454714666652 0 0 0
460 1 21.088311393823375 15.75722747191897 0.2976393484194214 0 0 0
237 1 25.91670822246484 16.154959991285335 1.2700701622291433 0 0 0
4081 1 23.591666816742283 16.600934481583145 2.965611236150683 0 0 1
950 1 27.77503521771182 18.061751792196585 1.543124645667728 0 0 0
1521 1 31.191512434635793 15.783531580066263 0.5962480087795423 0 0 1
2327 1 30.903224874828314 17.22821547598686 2.952433459683803 0 0 0
3530 1 37.74670339239468 18.168641909094326 2.1615475629932024 0 0 1
209 1 45.7585143902015 17.21061075227938 2.995582527902954 -1 0 0
1462 1 47.180399462658755 17.680109526431206 0.4680624810436953 0 0 1
1510 1 49.97791909521102 17.23809738944634 -0.38024886149944376 -1 0 1
191 1 3.949409709324395 19.8782984163847 -0.2952082235569708 0 0 0
3561 1 7.712105137828695 17.78355248000679 1.3996325063324893 0 0 1
1928 1 11.560298593469518 20.573316084425755 -0.2198710930834032 0 0 1
4051 1 10.331593761307852 19.518441050026492 1.8390419309133441 1 0 1
1360 1 39.92922970326383 5.112443194572988 15.826486034430673 0 0 0
230 1 15.223015716496095 18.86239169800439 1.4492525662647866 0 0 0
1228 1 14.458841113861325 21.118478516877293 -0.09235201620770328 1 0 0
1577 1 18.14210130016186 16.090951962200904 0.027759468451041713 0 0 1
2411 1 21.780767425993616 18.76653278158254 3.033162036188631 0 0 0
2446 1 27.686125753301834 20.67834652430457 1.2775072150075104 0 0 0
1881 1 33.38912108636113 21.4396596199308 1.9289814132493244 0 0 1
4050 1 38.48808682681219 20.634742742148173 1.1269199227092999 0 0 1
1879 1 41.36692710654215 20.43385411307464 1.9600049072560641 0 0 1
614 1 42.94472086580447 18.132007217160933 1.4204207581748842 0 0 0
623 1 -0.443547218308915 20.96329945821866 2.8410716967829854 0 0 0
610 1 3.5029938766047364 21.56552457027866 1.837866777814086 0 0 0
709 1 5.544837385521933 23.228436598419606 0.9207485287177815 0 0 0
1932 1 43.74221120903934 24.038218317446542 0.4965925143363552 0 0 1
311 1 9.810079605912133 23.45743746087389 2.42946107061776 0 0 0
3647 1 14.47912077099693 23.381411243466196 1.4489869554125736 0 0 1
3934 1 17.255137732436133 24.28570386743834 1.5781233535417134 0 0 1
3798 1 19.397841208119427 22.459558450599292 1.073671636370794 0 0 1
1969 1 10.056155045265347 3.019162789114715 -0.08566294498757121 0 0 1
750 1 25.05183421665168 21.479986988066166 1.5876952895520962 0 0 1
3014 1 28.764346563258318 24.34099093963565 1.550614273440904 0 0 1
352 1 31.027298363704997 22.829849100192522 2.826215207819383 0 0 0
2773 1 34.94736063316215 23.45345546771484 2.2103726318499124 0 0 0
323 1 38.839454918432864 24.88608143391762 9.560300125443558 -1 0 0
380 1 16.877774518667238 19.95867044449993 16.021024292626226 0 0 0
524 1 20.517146117538317 24.4663154949695 11.579594512958229 0 0 0
2316 1 42.41998992361795 22.595132991811855 3.9767593181149534 -1 0 0
1649 1 46.669805193733865 22.017484012226983 1.2393980988363043 0 0 1
2391 1 44.765499153648804 23.731198468035444 2.8965816762662993 0 0 0
3950 1 33.475198649638955 24.823005431178633 13.720274682971983 0 0 1
3716 1 16.200374348182432 22.543269248644318 15.306105986482084 0 0 0
284 1 42.59684742808622 24.689626420383792 7.855379504186123 -1 0 0
2097 1 16.64372161553272 10.376788434069125 0.40617780990872676 0 0 1
507 1 3.989000518086793 2.422271440756205 5.632666947972919 0 0 0
2618 1 13.208607885363039 0.30802434176586024 6.111929922523012 0 1 0
229 1 18.785266612591847 2.634566448023588 0.12098692010417056 0 0 0
452 1 17.668983339928506 1.1497391606881122 2.3202897117255326 0 0 0
1173 1 20.543957690234684 2.2805796177081388 5.576577533350432 0 0 0
2479 1 39.08224812727704 -0.3008478771442446 7.836786448437374 -1 1 0
202 1 31.174513249393474 1.916453061812764 4.838769879817679 0 0 0
1473 1 1.1666306805829114 22.388863972676738 0.9885955629709762 1 0 1
1911 1 36.0051564688773 1.372814000970586 3.7775394813842222 -1 0 1
1771 1 40.38057561183449 2.118947170074639 4.012766496939078 0 0 1
4173 1 41.136741387511435 0.7236114008749672 6.21158283150246 0 0 0
1976 1 47.01937357929255 1.3622064698724803 3.2703917608165614 -1 0 1
2045 1 49.57761070099592 1.1298293217733584 2.412382632432458 -1 0 1
865 1 -0.07907988631971319 3.348307244996724 2.8099429211153364 0 0 0
626 1 0.378082428499277 2.79798530581573 5.803589800451096 0 0 0
401 1 5.711005496961509 6.19578295810558 3.058596450024742 1 0 0
558 1 7.069775101850281 2.343258111214948 5.502876782226931 0 0 0
221 1 9.645755914002823 4.340442624482268 5.659730312199572 0 0 0
1955 1 15.276016443972008 3.9089756558176765 3.2514283507249018 0 0 1
2443 1 17.862215201580764 2.5835281651199975 4.670305719893333 0 1 0
1638 1 22.279254448803485 3.241543675526545 3.736739323249612 0 0 1
247 1 24.194225235997468 4.619700897758743 5.550588807457198 0 0 0
730 1 28.592584792809593 5.050022398075403 5.517354115782014 0 0 0
2222 1 29.443250516641623 3.1271061821335033 3.1292237407828827 0 0 0
148 1 33.96158016909288 3.190802744446784 4.876309417716643 0 0 0
562 1 33.38514480228082 5.034973661020668 3.0343177759984648 0 0 0
2065 1 38.07131994019959 3.054366285713508 4.776522288832033 0 0 1
2069 1 41.88280687747387 4.173186127929877 3.1994519463792783 0 0 1
498 1 0.20561307702038056 7.850823797262619 2.273827176117411 1 0 0
946 1 3.6634114154074595 5.982379534125315 5.623697119415211 0 0 0
1652 1 7.545199394795054 7.723719587223002 6.154426422552338 0 0 1
686 1 6.298905926450595 5.152698986211163 6.0445829253957974 0 0 0
549 1 13.644024686329944 6.527765028921691 4.477092688563802 0 0 0
115 1 11.252821844719948 8.253331849239242 3.5392247745921326 0 0 0
603 1 15.140018371082045 9.569954182730793 4.900251979435661 1 0 0
3993 1 18.66369137173796 5.728952905526363 4.545754517725413 0 0 1
265 1 21.711399951383783 7.61644285845713 3.6266665276716656 0 0 0
1321 1 22.10563535079093 6.807254301928614 6.304091109939461 0 0 0
1856 1 25.862787148875242 6.760654604910119 4.431393782228152 0 0 1
1766 1 24.270516266746753 7.953703366634379 2.8063756420641637 0 0 1
1874 1 27.863482855315016 5.675168145395459 2.749850612787539 0 0 1
1961 1 31.909400259781716 6.1632873091376394 4.894616010531641 0 0 1
1492 1 38.07454530926678 5.541106116119745 3.263307946785882 0 0 1
158 1 38.726726636574995 7.641289083924239 4.993331258045146 0 0 0
277 1 40.84552363623996 6.861888261191743 6.321812949941061 0 0 0
1135 1 42.96261998754538 6.443605236856795 4.7082722948494595 0 0 0
3528 1 44.23421558853033 8.560051858949734 2.905935202649435 -1 0 1
127 1 47.23571087493457 6.069347162192561 3.058781445730637 -1 0 0
578 1 47.4533971795305 6.128340240332984 5.904307538466442 -1 0 0
869 1 1.3794076126766226 11.645077198347417 4.712886858489741 1 0 0
318 1 4.609406692056241 9.963612427850903 3.040257577969435 0 0 0
302 1 3.744557888265458 10.556276224918973 5.566322632963328 0 0 0
1717 1 7.130971847297581 8.706912571749612 3.615214824768496 0 0 1
563 1 7.396263951817973 12.02306903883855 4.340045621489135 0 0 0
139 1 12.988115996450778 10.498719610773872 3.1472884241042753 0 0 0
1415 1 17.114040209425394 9.642051783066591 3.0273052607488546 0 0 1
1609 1 20.013992987851374 9.627336040323684 2.8252866901777445 0 0 1
2602 1 20.58644701983112 11.136785975279993 5.50863436631072 0 0 0
553 1 24.885473182468505 10.657878073786955 3.197110482853341 0 0 0
1768 1 27.426936772960246 10.88417393388536 4.707182006833411 0 0 1
348 1 30.102345055696105 9.86220344894624 3.970160250424671 0 0 0
246 1 30.95855100475028 8.822230348164219 6.549585945158076 0 0 0
358 1 34.07416328830527 8.666537676021578 5.399727132866184 0 0 0
1294 1 34.004267201718434 11.445336450924986 6.305747023882066 0 0 0
1214 1 40.861988455785834 11.226940149722807 4.224384545729945 0 0 1
56 1 44.4960406565275 10.824863566651775 4.84503811224306 0 0 0
1400 1 46.761206901366705 10.990459659615263 6.371242988571411 0 0 0
1423 1 48.46416450940562 11.602710896463934 4.304935410564394 0 0 1
2321 1 50.57062763833146 9.715175107032344 4.274624435064093 0 1 0
2054 1 50.506039397555696 15.364051773579222 2.5042033754500106 -1 0 1
1582 1 1.6240751767700967 13.910721081200611 3.2402786851422163 0 0 1
205 1 3.0778571529597647 15.15944566454512 5.243983619399239 0 0 0
416 1 5.917348380493954 12.145306960883078 6.7997169417939824 0 0 0
1773 1 13.796750336712165 12.598986374528192 5.0334765778679 0 0 1
851 1 16.87169923144853 15.841228533617869 3.988297846277188 0 0 1
531 1 16.39267670319853 12.966657358825636 3.126689936018804 0 0 0
560 1 18.78830843160992 13.42611221613626 5.796924579575587 0 0 0
538 1 22.139309047434327 14.64127925419669 2.488604120189221 0 0 0
2570 1 22.94999483897142 12.190138033591241 3.9831154106961453 0 0 0
721 1 27.113312710996855 13.61595437428934 4.869305098088427 0 0 0
389 1 29.15579981876531 14.577222227942356 6.290270292580528 0 0 0
71 1 32.912261255344845 13.209605318005904 4.109989535570123 0 0 0
1687 1 38.8888660892698 13.02335186281722 5.049089081167413 0 0 1
1817 1 40.05378964757725 15.37280801945615 5.759442222791132 0 0 1
3594 1 43.91264113524666 13.266582731282291 4.077833036044985 0 0 1
332 1 42.72532828407367 14.841610423522864 6.248510208124864 0 0 0
2235 1 48.581371942379974 14.286644658783946 4.03416326832512 0 1 0
320 1 4.359676897581145 17.287822418979868 3.7976899656662235 1 0 0
2039 1 6.8519241581562955 16.38258362860875 3.349568418555755 0 0 1
1313 1 8.278771640051815 15.88886744812125 5.925332044318823 0 0 0
465 1 12.026510518780258 15.478731402687838 4.065514359604983 0 0 0
1650 1 14.673646718699487 16.54061163603804 5.2474399376914205 0 0 1
678 1 19.15875535715274 17.96834023357782 3.6755795629472576 0 0 0
731 1 24.700296887420865 16.03953166493338 5.823308338191218 0 0 0
440 1 21.394317504552603 16.767665186266964 6.031072441842352 0 0 0
220 1 28.725335380657658 18.771989504086346 4.49547233794506 0 0 0
820 1 31.41580078566101 15.47394769360944 4.847776307695361 0 0 0
135 1 32.183512594229825 17.32106732402628 6.791793684992843 0 0 0
2790 1 35.498536417936336 17.60978135328294 3.747449500909278 0 0 0
3068 1 36.41168333869609 18.460696017758526 6.4685691899831825 0 0 1
503 1 40.05946390935672 16.943554741741373 3.460023450100233 0 0 0
3701 1 43.43857479368927 17.422800625425708 4.58621646215038 -1 0 1
187 1 49.11490529151645 18.211554173862776 5.920371322202473 0 0 0
661 1 0.39849365835796435 18.56434616672626 4.833488350352418 1 0 0
285 1 0.7431543005552839 21.64661056931619 5.480250861903502 1 0 0
2559 1 4.613709258723246 20.034468928992204 3.8822632794530634 0 0 0
2189 1 7.445306592989487 19.559719850594067 3.707157951515377 0 0 0
2398 1 8.66410618660356 19.45267007901411 6.406835387053024 1 1 0
2419 1 11.827004887565675 20.265086872971793 4.172850390137123 0 0 0
2536 1 14.2824009644602 19.097925111443864 4.008006663290529 0 0 0
376 1 16.318595746897422 20.07277125966497 5.7414576105786255 0 0 0
155 1 18.990172054130323 19.319874754080303 5.793321598246386 0 0 0
2287 1 23.12054307149875 20.99170172937214 3.5092573237837383 0 0 0
3132 1 24.519359369477094 20.86810353704016 6.05754239324203 0 0 0
1816 1 28.957157373460834 21.351854085545053 3.7567001952907058 0 0 1
964 1 31.30456652079698 19.91361731452947 5.732822902343408 0 0 0
1407 1 33.11255549978925 19.169949248230562 3.36447647106998 0 0 1
4149 1 37.616451080897264 20.875508079208792 5.777005083191516 0 0 1
2795 1 37.06617224033771 21.876609298754282 3.268182421474063 0 0 0
1828 1 40.54811592620777 20.7988437294801 6.534269465284106 0 0 1
1487 1 41.302236124089546 19.459984970144227 4.310810701292555 0 0 1
1066 1 46.716906129327455 19.10877793184614 4.711435397400423 -1 0 1
1864 1 43.5148162702948 22.213299280319326 6.6443341628014085 -1 0 1
1544 1 18.485934853485745 24.01523193456553 9.685500513985067 0 0 1
618 1 3.388165692751417 21.15335548671664 6.173233244944107 0 0 0
2246 1 7.396496595657494 22.18620112776975 2.63948174448947 1 0 0
642 1 6.572446380391878 23.484907529050986 5.252439158607108 0 0 0
3763 1 11.588412900837268 22.817554868419407 4.661636308241123 0 0 1
2120 1 14.160386825003421 23.586191303474262 4.159328783475017 0 0 0
3929 1 16.06415538697569 22.72157218942196 5.9271191085073 0 0 1
684 1 18.229785326544235 24.104196707573184 5.653252783063964 0 0 0
4034 1 19.87928603828876 21.96059119864399 6.233666310514656 0 0 1
697 1 20.835513211557522 22.549238984605093 3.522379556584328 0 0 0
654 1 27.023348008123847 22.155032311927023 5.965308568567798 0 0 0
3874 1 31.856380986808542 23.73499099252401 5.362553325015181 0 0 1
2206 1 2.149204719057228 24.947317200943942 10.59426360172047 1 0 0
95 1 19.948973265247183 -0.34305511617848866 1.4801613828898152 0 0 0
3976 1 40.43703053204925 24.564482950322812 3.564823140252776 0 0 1
1168 1 48.19414781395794 21.277295125562954 3.578658152408413 0 0 0
11 1 48.48545310120009 23.089606140748543 5.646665825948472 -1 0 0
1075 1 -0.18410892994924577 0.15861134999504878 6.4047316164572345 0 0 0
2364 1 2.797912580075092 2.0333335861153135 8.773781849489923 0 1 0
996 1 46.70785945403354 22.03554249511001 13.067124451732242 -1 0 0
370 1 13.13165096995853 13.180951507985464 0.2282796707288255 0 0 0
1052 1 8.588920855739623 0.6196263320879969 7.024658830596783 0 0 0
1061 1 9.619993443810538 1.7890530038047157 9.47862741570037 1 0 0
1330 1 25.45553219788343 12.616192865030188 16.07208896821304 0 0 0
625 1 16.535891912732225 1.9284737026366803 8.73977775779024 0 0 0
82 1 21.79629771102835 0.8801285749201091 7.653275048454923 0 0 0
2752 1 24.35442030684959 0.5297722277700014 6.503430897047664 0 1 0
907 1 42.89416190028423 18.744347467825065 16.439616751952084 0 0 0
2436 1 4.585444006949849 8.390335215323896 16.245592707716277 0 1 0
456 1 34.220668254644124 1.9738396580145032 9.030361146218834 0 0 0
224 1 37.91630192076951 1.842962795419278 9.455256327665934 0 0 0
2043 1 49.32530920102863 13.98796614071 0.41568258605946684 0 0 1
2178 1 42.69894591856972 1.9009366846856453 8.595836026943086 0 1 0
409 1 47.368622833794205 2.134073420767141 6.071885588016805 -1 0 0
3393 1 48.24168509950616 0.04274851874972885 7.389608514989946 0 1 0
251 1 2.1275946760726385 4.138261960350276 7.11716990228315 0 0 0
3492 1 5.293625337643296 2.4226276608702606 9.886511932268183 1 1 0
616 1 6.610739670315743 4.585741628612454 8.638638935985023 0 0 0
2666 1 9.252129221632467 4.289198910038735 8.44315749385729 0 1 0
909 1 13.083030301873753 3.2308357452764547 5.075475561051261 0 0 0
2210 1 13.942071302726406 2.6237930999768877 8.243596408363278 0 1 0
3490 1 13.902099648882924 5.35782855341368 7.208673423083844 0 0 0
413 1 16.21466395549508 6.524175009055014 8.371181515325079 0 0 0
2041 1 17.71309351582907 4.21995663022381 7.406001620229146 0 0 1
335 1 20.445166528000982 5.232049122385235 7.872484442531315 0 0 0
180 1 21.66303209548836 3.3673404601879873 9.248998566530819 0 0 0
469 1 25.53831651562724 3.128439653307918 7.095984022504563 0 0 0
3218 1 24.048869385091113 4.171781292506347 9.147629427329555 0 1 0
249 1 28.243202815117655 3.2531357785557575 7.712233843763498 0 0 0
2681 1 31.576521804931392 4.1064491441414255 6.902928829507653 0 1 0
271 1 34.767780795978965 4.309018504838989 7.374813192459601 0 0 0
3326 1 37.613729188690854 3.7042613452343245 7.17958344407606 0 1 0
434 1 39.54977650148129 5.271595416846662 8.250156077188556 0 0 0
580 1 41.61206277264975 4.209471898858518 9.628428070188084 0 0 0
602 1 44.696284008296786 5.5962660708742336 6.797137026672866 -1 0 0
2433 1 44.82609845345304 2.7373067068244925 7.218492585676638 0 1 0
494 1 49.26154026078828 4.187267228927643 6.802820766380228 -1 0 0
464 1 0.03250575701864 5.899707410872825 8.251792995221377 1 0 0
1490 1 3.0513157296292084 8.366315923281935 7.230240892821132 1 0 1
509 1 10.286889935770482 6.908913760174993 6.054072862600749 0 0 0
533 1 12.174064650759894 7.159048783015068 8.003011877693737 0 0 0
286 1 20.314240793613685 7.381289184342522 9.427465325108704 0 0 0
960 1 19.64586210494983 8.266591478730861 6.062287304030489 0 0 0
3123 1 24.009281916160813 7.331060729212262 8.411980707727487 0 0 0
25 1 26.146248446299754 8.485348311874885 6.593334789170091 0 0 0
593 1 24.077769822552195 6.050622155407873 11.204806310573709 0 0 0
2721 1 28.703728372597908 7.548244469513662 7.227607850084393 0 0 0
393 1 33.74561720060392 6.750590987520163 7.599670211832839 0 0 0
1205 1 35.856800672754076 8.075660573021269 9.130206254967321 0 0 0
1438 1 41.8670068228288 8.506171275720918 8.369820172317642 0 0 1
3029 1 43.673637658254464 6.60152508267699 9.012501266959378 -1 1 0
636 1 47.85002448142029 8.658422122089183 7.432613274249045 0 0 0
196 1 0.6932518467627602 9.621577441990206 8.369270716376292 0 0 0
1520 1 5.07215183391566 8.569453854145696 9.058742912423837 0 0 1
1889 1 7.213717274686436 9.899390963197398 8.143138627122546 0 0 1
571 1 12.400978252305688 9.699623248868365 8.764236566608831 0 0 0
1877 1 14.785025880983966 10.955136744080296 7.9971915824265345 0 0 1
856 1 16.014307756391634 13.862562985070225 6.509129897940916 0 0 0
3168 1 16.763992536598955 8.790162495658459 7.000600938501685 0 0 0
547 1 19.38934851680129 11.801270984383192 10.172282849288738 0 0 0
2021 1 20.824350347086337 10.039015217857605 8.472246525402099 0 0 1
79 1 27.252982919703925 11.10970795911432 7.7217594496226365 0 0 0
876 1 31.564868314795614 11.09220066290704 8.153996925207355 0 0 0
1334 1 36.68746440577331 8.820987468966303 6.533601134517055 0 0 0
363 1 36.96379931956183 11.514845874526907 6.507559848704865 0 0 0
463 1 41.99519532157038 10.722107919894086 6.867026410098498 0 0 0
3746 1 50.52568616930746 8.169980493166582 6.677880078603505 -1 1 1
622 1 0.7569735965286948 12.164725817211496 7.133691285731971 0 0 0
2539 1 -0.5112542833399516 14.660236336777997 7.440136609314468 0 1 0
448 1 3.473661412026688 13.232115783882445 7.470805533643963 0 0 0
2451 1 6.69863228636464 14.749641542612133 8.248280003835468 1 0 0
1221 1 9.878997750613728 13.522487181249184 5.1426633307640035 0 0 0
3098 1 11.323552783387177 14.44100592939058 8.744126298063167 1 0 0
853 1 11.735484801248203 12.176171316644108 6.967546820478739 0 0 0
2457 1 16.57612955880546 12.615239249225924 9.658864162593988 0 0 0
2707 1 19.31717573774872 13.963000019335192 8.466087242524173 0 1 0
708 1 22.077699835499917 14.489193827159825 7.846981494022659 0 0 0
114 1 24.29134122399 13.391030948364616 6.015051328964182 0 0 0
2011 1 24.954549722603627 12.24356726944496 8.494036983985792 0 0 1
2765 1 29.450474058726474 12.750135662108745 8.376680711433014 0 0 0
2757 1 34.05623632675959 12.215792492959437 9.38601412566056 0 0 0
490 1 36.893512723119585 12.633202406878038 9.136274317722693 0 0 0
146 1 42.97161143201606 12.955858604938856 8.24028633523443 0 0 0
186 1 45.703101926976075 12.819671649871635 8.47619770037697 -1 0 0
1251 1 1.0234221961752141 16.618376811227556 6.540324672109898 1 0 0
244 1 2.044313932076243 17.767285064973905 8.935975980180638 1 0 0
2747 1 4.260626056188089 18.046792910592895 6.48365849088718 0 0 0
235 1 6.7621949631349345 17.783472789586526 7.426342236043871 0 0 0
517 1 10.945307400591057 16.323969739629188 6.51591709048404 0 0 0
1127 1 15.52572557301285 16.37987890302467 7.882178080738248 0 0 0
1240 1 19.55348447711552 17.833496845087353 8.130313335145955 0 0 0
3232 1 17.866403489191075 16.30236410485129 9.36415311960293 0 0 0
1753 1 26.13616234614406 18.36773511772349 8.46358848697204 0 0 1
2307 1 27.68703376118914 17.049581085596827 6.479163984281234 0 0 0
1820 1 30.097249382179957 17.49206773727544 8.352488673074312 0 0 1
2686 1 34.25611080296777 18.250907573891386 8.258672130444182 0 0 0
505 1 37.57431047812034 15.32795087670941 9.801934599875064 0 0 0
63 1 38.42681475202082 16.736080408217898 7.593407452973674 0 0 0
1946 1 43.97797440127785 17.07165862464734 8.081766681965723 0 0 1
3343 1 46.40024228768233 15.531736567549423 8.42583259157566 0 1 0
1970 1 48.261530164200295 15.649477448592744 6.339006893147702 -1 0 1
2670 1 2.907665358319691 20.350938924881874 8.75673967064964 0 0 0
151 1 11.484999437213693 19.144613185412528 6.6121471757323835 1 0 0
2696 1 12.934082309997159 20.12185452639639 8.738071687718781 0 0 0
1005 1 15.398413241293698 19.143313680795956 8.310976510212845 0 0 0
408 1 17.998835298751477 19.882564311539987 9.399894557247334 0 0 0
784 1 21.91733919220295 18.32292373338067 9.324946734399337 0 0 0
1918 1 23.910357695163487 18.515579502413036 7.3237065137872435 0 0 1
1755 1 27.39646468887936 20.717779137030483 8.343072042033471 0 0 1
1726 1 30.242428151605093 20.162397038098362 8.557509011768998 0 0 1
132 1 32.05329816069069 22.413327799274953 7.756643702531516 0 0 0
2204 1 34.201586534961734 21.090217825405436 8.819899193682827 0 0 0
192 1 40.10333635314687 18.763075148130408 8.802172945518272 0 0 0
500 1 44.806940367707085 19.62714972706731 7.0344149299737175 0 0 0
2890 1 46.508614136840706 19.99069839011955 8.992519869550206 0 0 0
2761 1 49.16886290769578 19.71576719851127 8.62686621142904 0 0 0
2478 1 3.827410506738313 23.778251093276175 6.266098466130089 0 0 0
276 1 7.753925543440184 22.03547543320493 7.2785973829536035 0 0 0
2285 1 10.345904162518238 23.41495447579833 6.8804763303618115 0 0 0
689 1 12.316422997689118 22.782278147353924 8.790370767851586 0 0 0
2740 1 14.758642168011576 23.538493452096386 8.304139450452444 0 0 0
2788 1 19.986187945576937 21.759771324836443 9.167972753708877 0 0 0
467 1 22.566654920724996 22.517959242451624 7.261531154046752 0 0 0
806 1 23.484273642518403 23.2622617172919 9.96950259557096 0 0 0
1713 1 4.055961846496974 22.438215848388857 15.689816731108621 1 0 0
2999 1 45.95314547740162 5.791172106247911 15.856847034955301 0 1 0
2025 1 35.48976701656447 24.760078432951033 6.735644223760401 0 0 1
1077 1 36.317336410405545 22.25896118065158 7.6795030217856635 0 0 0
14 1 46.82473754910383 21.634645412987776 15.86344704584387 -1 0 0
1681 1 5.771696840348913 17.647315139036547 -0.35029067849184536 0 0 1
3688 1 40.1553389386993 23.720020016603655 6.529742973147768 0 0 1
2312 1 45.86803063631292 24.063058799185285 6.186116526872248 0 0 0
3143 1 46.51060560313651 23.078483802638047 8.890767889695177 0 0 0
675 1 50.52980215911005 21.85858248963466 7.9495625092868885 0 0 0
256 1 0.02065930306877628 1.6480022305580477 10.270745559454047 1 0 0
1923 1 42.720364030325655 -0.3777555833028714 13.34716684254379 0 0 0
2233 1 1.3842620026850372 0.5983616711883086 13.1881910706918 0 1 0
546 1 8.086958142894531 0.4426121488980417 11.348130837448885 0 0 0
670 1 12.412062782176061 1.7906699412541371 10.006997933678763 0 0 0
3121 1 13.35759680902538 2.7959341297873856 12.222517583889998 0 1 0
2702 1 17.92857413632449 1.9486249724735747 11.32576411499489 0 1 0
3246 1 21.972941803393496 0.7674485439076275 12.932945998837297 0 1 0
470 1 24.40712535134843 0.6336061188753079 12.238336633137708 0 0 0
424 1 25.602619565109446 2.8794802420225754 11.049273936492128 0 0 0
935 1 38.54753088619984 23.954392848026835 0.8894644558416807 0 0 1
136 1 47.90421359074358 24.288363708341038 -0.039347628313999405 -1 0 0
35 1 38.40765869177281 2.4416017623381903 12.013047501634448 0 0 0
2320 1 44.002767484682465 0.6392391170235825 10.800142995285324 0 1 0
2698 1 47.63644630503232 -0.5005710934606026 12.923564566111727 0 1 0
450 1 48.35197773317233 0.6962804768857249 10.059519707699767 0 0 0
488 1 37.77754288329744 16.705556222297883 -0.13821964626571925 0 0 0