
# Create simulation box of size 50 x 50 x 50 Angstrom
#
lattice	            sc 1
Lattice spacing in x,y,z = 1.0000000 1.0000000 1.0000000
region 	            all block 0 50 0 50 0 50 units box
create_box          1 all
Created orthogonal box = (0.0000000 0.0000000 0.0000000) to (50.000000 50.000000 50.000000)
  1 by 2 by 3 MPI processor grid

# fill box with 4175 randomly distributed atoms
#
create_atoms        1 random 4175 63782 all
Created 4175 atoms
  create_atoms CPU = 0.001 seconds
mass                1 18.015

# Define potential
#
pair_style          sw
pair_coeff          * * ML_mW.sw mW
Reading sw potential file ML_mW.sw with DATE: 2019-02-27

# Run minimization
#
minimize            1.0e-8 1.0e-8 10000 1000
WARNING: Using 'neigh_modify every 1 delay 0 check yes' setting during minimization (../min.cpp:187)
Neighbor list info ...
  update every 1 steps, delay 0 steps, check yes
  max neighbors/atom: 2000, page size: 100000
  master list distance cutoff = 6.0032907
  ghost atom cutoff = 6.0032907
  binsize = 3.0016454, bins = 17 17 17
  1 neighbor lists, perpetual/occasional/extra = 1 0 0
  (1) pair sw, perpetual
      attributes: full, newton on
      pair build: full/bin/atomonly
      stencil: full/bin/3d
      bin: standard
Per MPI rank memory allocation (min/avg/max) = 4.255 | 4.258 | 4.261 Mbytes
Step Temp E_pair E_mol TotEng Press 
       0            0    7792709.3            0    7792709.3    5898794.3 
     630            0   -45180.336            0   -45180.336   -154.07449 
Loop time of 1.16607 on 6 procs for 630 steps with 4175 atoms

99.3% CPU use with 6 MPI tasks x no OpenMP threads

Minimization stats:
  Stopping criterion = max force evaluations
  Energy initial, next-to-last, final = 
      7792709.32924461  -45180.0188663597   -45180.336116598
  Force two-norm initial, final = 2.0191930e+08 4.9721331
  Force max component initial, final = 1.0948746e+08 0.73126211
  Final line search alpha, max atom move = 0.053306038 0.038980685
  Iterations, force evaluations = 630 1000

MPI task timing breakdown:
Section |  min time  |  avg time  |  max time  |%varavg| %total
---------------------------------------------------------------
Pair    | 0.87295    | 0.98482    | 1.0533     |   6.0 | 84.46
Neigh   | 0.023727   | 0.024683   | 0.025807   |   0.4 |  2.12
Comm    | 0.068392   | 0.13663    | 0.24969    |  16.1 | 11.72
Output  | 0          | 0          | 0          |   0.0 |  0.00
Modify  | 0          | 0          | 0          |   0.0 |  0.00
Other   |            | 0.01995    |            |       |  1.71

Nlocal:        695.833 ave         704 max         685 min
Histogram: 1 1 0 0 1 0 0 1 0 2
Nghost:        1494.17 ave        1515 max        1468 min
Histogram: 1 1 0 0 0 0 1 1 1 1
Neighs:        0.00000 ave           0 max           0 min
Histogram: 6 0 0 0 0 0 0 0 0 0
FullNghs:      19997.0 ave       20462 max       19320 min
Histogram: 1 1 0 0 0 0 0 2 0 2

Total # of neighbors = 119982
Ave neighs/atom = 28.738204
Neighbor list builds = 26
Dangerous builds = 0

# Add velocity/set timestep
#
velocity            all create ${TEMP} 120598 rot yes dist gaussian
velocity            all create 220 120598 rot yes dist gaussian
timestep            5.0

# Define output
#
compute	            1 all msd
thermo	            100
thermo_style        custom step temp press vol etotal ke pe c_1[4] density

# Neighbor lists
#
neigh_modify        delay 0 every 1 check yes

# Set fixes
#
fix                 1 all momentum 10 linear 1 1 1 rescale
fix                 2 all nve
fix                 3 all temp/csvr ${TEMP} ${TEMP} 500.0 928347
fix                 3 all temp/csvr 220 ${TEMP} 500.0 928347
fix                 3 all temp/csvr 220 220 500.0 928347
fix                 4 all press/berendsen iso ${PRES} ${PRES} 1000.0 modulus 20000
fix                 4 all press/berendsen iso -450 ${PRES} 1000.0 modulus 20000
fix                 4 all press/berendsen iso -450 -450 1000.0 modulus 20000

# Run 0.5 ns equilibration
#
dump                1 all custom 1000 eq.${NAME}.dump id type x y z vx vy vz
dump                1 all custom 1000 eq.liquid_density_MLmW.dump id type x y z vx vy vz
run                 100000
Per MPI rank memory allocation (min/avg/max) = 3.506 | 3.508 | 3.511 Mbytes
Step Temp Press Volume TotEng KinEng PotEng c_1[4] Density 
     630          220    846.92133       125000   -42443.118    2737.2183   -45180.336 2.7295415e-33   0.99914793 
     700    140.25181   -373.30918    125881.84   -41598.071    1744.9991    -43343.07   0.25959482   0.99214858 
     800     172.7968   -566.71264    126116.95   -40829.797    2149.9207   -42979.718   0.59542405   0.99029899 
     900    189.21827   -461.67153    126055.78   -40398.889    2354.2351   -42753.124   0.99947112   0.99077954 
    1000     201.3475   -259.78327    126233.48   -40108.289    2505.1457   -42613.434    1.3450728   0.98938483 
    1100    213.61052   -498.09306     126587.2   -39932.442    2657.7209   -42590.163    1.7183603   0.98662024 
    1200    211.43933   -372.13126    126179.68   -39983.341    2630.7072   -42614.048    2.1238183   0.98980669 
    1300    215.12602   -489.81223     126625.4   -39949.942    2676.5766   -42626.519    2.5777845   0.98632256 
    1400    213.86465   -380.03919    126866.95    -39968.13    2660.8828   -42629.013    3.0438108   0.98444464 
    1500    217.32497    -402.8954    126666.67   -39920.901    2703.9358   -42624.837    3.3622302   0.98600118 
    1600    220.63331   -438.23094    126916.72   -39843.123    2745.0978   -42588.221     3.763013   0.98405865 
    1700    218.30619   -590.65308    126900.44   -39881.408    2716.1441   -42597.552    4.0502776   0.98418482 
    1800    218.22363   -442.03616    127131.18   -39982.788    2715.1168   -42697.905    4.3636951   0.98239862 
    1900    216.30691   -447.81153    127106.36   -39989.467    2691.2692   -42680.736    4.7108012   0.98259042 
    2000     221.5879   -392.82208    127179.92   -39951.743    2756.9747   -42708.718    4.9594254   0.98202211 
    2100    223.95717   -482.46834    127348.59    -39908.31     2786.453   -42694.763    5.2850459   0.98072147 
    2200    224.05706   -656.93473    127231.38   -39964.185    2787.6958   -42751.881    5.5097323   0.98162493 
    2300    219.81774   -245.22684    127263.26   -39958.049    2734.9506   -42692.999    5.9091963   0.98137904 
    2400    223.43055   -463.67852    127456.13   -39963.463    2779.9008   -42743.364     6.138295   0.97989394 
    2500    225.39268   -250.66908    127700.41    -39924.95    2804.3135   -42729.263    6.4968089    0.9780195 
    2600    225.69821   -347.69377    127833.95   -39881.553    2808.1148   -42689.668    6.7857507   0.97699782 
    2700    223.84071   -415.26641    128084.11   -39916.947     2785.004   -42701.951    7.2000224   0.97508968 
    2800    226.13328   -366.67835    128240.93   -39915.436    2813.5279   -42728.964    7.5963195    0.9738973 
    2900    221.46631   -427.70107    128208.69   -39985.058     2755.462    -42740.52    7.9146096   0.97414213 
    3000    223.75069   -413.21491    128233.24   -40036.907     2783.884   -42820.791    8.1337284   0.97395568 
    3100    221.30003   -396.92994     128436.3   -40025.477     2753.393    -42778.87    8.4231167   0.97241585 
    3200    221.66387   -378.81541    128444.74   -40069.437      2757.92   -42827.357      8.69068   0.97235194 
    3300    223.83735   -449.49242    128520.61   -40086.185    2784.9622   -42871.147     8.965562   0.97177789 
    3400    220.79678   -451.42194    128665.06   -40137.967    2747.1317   -42885.098    9.1602711   0.97068696 
    3500    218.92283   -380.75474    128775.79   -40189.115    2723.8162   -42912.931     9.334948   0.96985227 
    3600    220.54689   -598.89651    128966.49   -40237.623    2744.0226   -42981.646    9.4744149   0.96841819 
    3700    215.62609    -526.6113    129191.67   -40292.232    2682.7985   -42975.031    9.6859204   0.96673023 
    3800     217.8361   -296.94428    129309.32   -40241.653    2710.2952   -42951.948    9.8689084   0.96585065 
    3900    219.97063   -310.21437    129447.21   -40265.176    2736.8528   -43002.029    10.086763   0.96482184 
    4000    217.71318   -566.93553    129578.92   -40283.428    2708.7659   -42992.194    10.337454   0.96384109 
    4100    217.27927   -311.15492    129514.05   -40276.787    2703.3673   -42980.154    10.555729   0.96432391 
    4200    221.48469   -377.45694    129740.04   -40287.624    2755.6906   -43043.314    10.643122   0.96264412 
    4300    220.22996   -446.10209    129803.71   -40303.994    2740.0794   -43044.073    10.851899   0.96217195 
    4400    218.35984   -272.58459    129989.98   -40302.281    2716.8115   -43019.093    10.943414   0.96079325 
    4500    216.35025   -541.55093    129900.43   -40304.595    2691.8084   -42996.403    11.183745   0.96145556 
    4600    218.59257    -417.6552    129669.98   -40365.476    2719.7071   -43085.183     11.34412   0.96316424 
    4700    220.39755   -378.06685    129634.44   -40292.298    2742.1645   -43034.462    11.559664   0.96342832 
    4800    221.30405   -479.56517    129717.08   -40374.498    2753.4431   -43127.941    11.722427   0.96281455 
    4900    220.65267    -422.2557    129939.91   -40267.923    2745.3387   -43013.261     12.08667   0.96116345 
    5000    223.19585   -334.29559     130051.8   -40227.161    2776.9807   -43004.141    12.299323   0.96033647 
    5100    218.12532   -657.44204    130089.04   -40299.187    2713.8936    -43013.08    12.619677   0.96006161 
    5200    224.63517    10.713898    130152.09   -40344.828    2794.8886   -43139.717    12.625091   0.95959654 
    5300    221.04406   -532.96268    130412.66    -40320.34    2750.2083   -43070.549    12.883223   0.95767916 
    5400    221.95299   -510.35447    130503.29   -40373.782    2761.5171     -43135.3    13.069737   0.95701409 
    5500    221.60153    -302.3233    130628.77   -40371.518    2757.1443   -43128.662    13.182957   0.95609484 
    5600    221.44509   -563.61734    130716.38   -40386.019     2755.198   -43141.217    13.391753   0.95545399 
    5700    217.51424   -403.48515    130681.94   -40409.732    2706.2907   -43116.023    13.500728   0.95570583 
    5800    217.75027   -387.20935    130463.97   -40450.202    2709.2274   -43159.429    13.739694   0.95730258 
    5900    219.28848   -638.87962    130336.12   -40497.176    2728.3656   -43225.542    13.834967   0.95824163 
    6000    214.31727   -532.45106    130426.31   -40495.057    2666.5143   -43161.571     14.09961   0.95757894 
    6100    219.65594   -481.32876    130602.62   -40445.729    2732.9374   -43178.667    14.133471   0.95628625 
    6200    218.73639   -474.07776    130514.15    -40528.39    2721.4965   -43249.886    14.157239   0.95693448 
    6300    218.71354   -569.99833     130533.4   -40504.142    2721.2123   -43225.354    14.207619   0.95679336 
    6400    220.56976   -404.01444    130401.43   -40485.404    2744.3072   -43229.711    14.347358   0.95776167 
    6500     222.6225   -395.27047    130463.31   -40424.294    2769.8471   -43194.141    14.594988    0.9573074 
    6600    217.32546    -379.0783    130324.94   -40497.112    2703.9419   -43201.054    14.804148   0.95832383 
    6700    213.60992   -502.08456    130453.45   -40545.212    2657.7136   -43202.926    15.015113   0.95737972 
    6800     220.9603   -569.23272    130642.27   -40465.388    2749.1663   -43214.554    15.288878     0.955996 
    6900    221.80519   -467.48499    130698.18   -40412.329    2759.6783   -43172.007    15.393865   0.95558706 
    7000     219.5105   -204.09574    130917.19   -40385.784     2731.128   -43116.912    15.459913   0.95398845 
    7100    221.72298   -406.81403    130920.94   -40414.178    2758.6554   -43172.833    15.408935   0.95396114 
    7200    218.47544   -167.90416    130895.82   -40486.357    2718.2498   -43204.607    15.732011   0.95414424 
    7300    218.40581    -450.4751    131067.35   -40556.776    2717.3835    -43274.16    16.057766   0.95289549 
    7400    216.74843   -475.20132    130909.54   -40600.465    2696.7625   -43297.228    16.070984   0.95404424 
    7500    217.07389   -412.58558    130973.33   -40570.113    2700.8119   -43270.925    16.127221   0.95357954 
    7600    213.67707   -507.08129    131021.01   -40663.975     2658.549   -43322.524    16.053603   0.95323257 
    7700    219.84719   -425.29851    131140.67     -40571.2     2735.317   -43306.517    16.183756   0.95236275 
    7800     222.3255    -575.8956    131362.43   -40546.811    2766.1518   -43312.963    16.266327   0.95075506 
    7900    217.76457    -269.8202    131339.13   -40622.072    2709.4052   -43331.477    16.366507   0.95092373 
    8000    221.28143   -394.16352    131340.68   -40594.709    2753.1617   -43347.871    16.612987   0.95091247 
    8100    218.11521   -448.79219    131528.72   -40665.429    2713.7679   -43379.197    16.899179   0.94955299 
    8200    213.46395   -435.75778    131274.13   -40675.414    2655.8974   -43331.311    16.981927   0.95139458 
    8300    218.17806   -543.63836    131183.13   -40655.281    2714.5499   -43369.831    17.209498   0.95205451 
    8400    220.40644   -380.56072    131341.22   -40613.638    2742.2752   -43355.913    17.219662   0.95090854 
    8500    221.22194     -570.963    131209.86   -40556.317    2752.4215   -43308.739    17.512501   0.95186054 
    8600    224.00307   -439.56466    131084.48   -40586.308     2787.024   -43373.332    17.542558   0.95277102 
    8700    221.95606     -328.554    131141.43   -40579.753    2761.5554   -43341.308    17.758051   0.95235727 
    8800    219.49833   -553.64188    131011.26   -40619.782    2730.9765   -43350.758    17.859159   0.95330348 
    8900    213.40485   -459.15274    131094.96   -40706.472     2655.162   -43361.634    17.900187   0.95269486 
    9000    217.42756   -445.73573    131010.66   -40657.957    2705.2122   -43363.169    17.972966   0.95330785 
    9100    217.99525   -364.00258    131152.64   -40718.752    2712.2754   -43431.027    18.032726   0.95227583 
    9200    218.47517   -612.36296    131113.83   -40630.315    2718.2465   -43348.561    18.330548   0.95255769 
    9300    216.50386   -462.63929    131136.22   -40665.561    2693.7197    -43359.28    18.577797   0.95239509 
    9400    220.12148   -470.74477    131038.91    -40631.73    2738.7296    -43370.46     18.67639   0.95310233 
    9500     219.2486   -392.38055    131243.55   -40658.365    2727.8694   -43386.234     18.89801    0.9516162 
    9600    219.16083   -436.40661    131283.68   -40632.335    2726.7773   -43359.112    19.060867   0.95132533 
    9700    222.74865   -395.51232    131096.34    -40581.35    2771.4167   -43352.766    18.980331   0.95268483 
    9800     218.6344   -261.35935    131268.24   -40660.202    2720.2276   -43380.429    18.914421   0.95143725 
    9900    217.04243   -549.05997    131346.98   -40737.301    2700.4204   -43437.721    19.165633   0.95086688 
   10000    214.91205   -519.28278    131444.43   -40745.047    2673.9145   -43418.962    19.277885   0.95016188 
   10100    220.01599   -451.46694    131351.35   -40727.488    2737.4172   -43464.905    19.304088   0.95083526 
   10200    217.09401    -524.8344    131105.33    -40789.08    2701.0622   -43490.142    19.178207    0.9526195 
   10300     216.5242   -395.92034    131244.13   -40773.678    2693.9728   -43467.651    19.275465   0.95161205 
   10400    217.92771   -462.38321    131345.24   -40712.911     2711.435   -43424.346    19.282027   0.95087947 
   10500    216.81263   -353.48508    131484.97   -40687.506    2697.5613   -43385.067    19.431412   0.94986897 
   10600    221.28194   -366.55621    131580.18   -40624.888     2753.168   -43378.056    19.584136   0.94918166 
   10700    227.68295   -423.91435    131613.83   -40627.017    2832.8088   -43459.826    19.606601   0.94893897 
   10800    228.28773   -410.70063    131906.54   -40626.659    2840.3334   -43466.992    19.797922   0.94683318 
   10900    220.38537   -528.10203    131900.02   -40657.614     2742.013   -43399.627    19.963978   0.94688003 
   11000    219.63105   -277.24434    132087.14   -40665.038    2732.6278   -43397.666     20.10427   0.94553861 
   11100    222.37694    -533.8812    132077.16   -40713.062    2766.7919   -43479.854    20.249756   0.94561008 
   11200    221.05555   -645.32481     132108.2   -40715.235    2750.3512   -43465.586    20.405857   0.94538785 
   11300    220.71401   -460.33643    132047.34   -40716.222    2746.1019   -43462.324    20.579258   0.94582361 
   11400    221.24968   -458.99661    131971.37   -40731.338    2752.7667   -43484.105    20.778854   0.94636807 
   11500    217.46694   -392.16108    132037.33   -40761.718    2705.7022    -43467.42    20.679116   0.94589532 
   11600     215.8101   -515.95051    132147.46   -40768.801    2685.0879   -43453.889    20.610259     0.945107 
   11700    224.59448   -598.13865    131922.74   -40680.891    2794.3823   -43475.274    20.694018   0.94671695 
   11800    219.88821   -329.59099    132083.11   -40745.607    2735.8273   -43481.435    20.764919   0.94556749 
   11900    218.26178   -359.45123     132077.7   -40774.715    2715.5914   -43490.307    20.822031    0.9456062 
   12000    221.21267   -332.52693    132049.49   -40784.204    2752.3062    -43536.51    21.061627   0.94580824 
   12100     220.4453   -489.05005       132152   -40748.932    2742.7586    -43491.69    21.197008   0.94507454 
   12200    221.72613   -436.37745    132190.79   -40748.537    2758.6946   -43507.231    21.243614   0.94479723 
   12300    218.40748   -387.38809    132426.84   -40775.888    2717.4042   -43493.292    21.335273   0.94311316 
   12400     223.4189   -550.42442    132500.61   -40772.966    2779.7558   -43552.722    21.451167   0.94258807 
   12500    214.62336   -354.58577    132544.17    -40870.92    2670.3226   -43541.243    21.530636    0.9422783 
   12600    220.02637   -160.06819     132656.6   -40788.431    2737.5464   -43525.977    21.551047   0.94147964 
   12700    220.43457   -564.75946    132606.95   -40781.558    2742.6252   -43524.183     21.77724   0.94183214 
   12800    220.51795   -408.16978    132508.18   -40748.076    2743.6625   -43491.739    21.901908    0.9425342 
   12900    222.60957    -464.6047    132647.92   -40797.607    2769.6863   -43567.294    22.089576   0.94154125 
   13000    223.63994   -497.49003    132690.75   -40731.591     2782.506   -43514.097    22.223472   0.94123735 
   13100    224.26187   -342.89423    132768.98   -40736.901     2790.244   -43527.145    22.203802   0.94068273 
   13200    228.95158   -519.40391    132577.53   -40677.486    2848.5929   -43526.079    22.182116    0.9420412 
   13300    224.55019   -145.19096    132557.37   -40735.292    2793.8312   -43529.124    22.185656   0.94218443 
   13400    221.33875    -517.7016    132374.55     -40822.5    2753.8749   -43576.375    22.266741   0.94348567 
   13500    215.90407   -573.39363     132464.9   -40862.493    2686.2571    -43548.75    22.482252   0.94284215 
   13600    217.17155   -411.79769    132330.79   -40892.488    2702.0269   -43594.515    22.577984   0.94379768 
   13700    216.66689   -442.78936    132110.77   -40901.155     2695.748   -43596.903    22.685612   0.94536952 
   13800    223.17639    -380.0311    132474.78   -40812.619    2776.7386   -43589.358    22.961527   0.94277182 
   13900    222.22151   -412.28644    132612.36   -40850.532    2764.8581    -43615.39    22.993268   0.94179375 
   14000    222.61415   -260.75596    132500.58   -40845.709    2769.7432   -43615.452    23.044904   0.94258827 
   14100    220.36788   -359.42843    132421.25   -40852.831    2741.7954   -43594.626    23.030111   0.94315292 
   14200    219.87407   -507.23058    132404.56   -40896.709    2735.6514   -43632.361    23.170312   0.94327181 
   14300    219.91769   -386.21419    132459.42   -40953.422    2736.1941   -43689.616    23.233118   0.94288114 
   14400    218.39817   -550.95897    132445.98    -40931.01    2717.2884   -43648.298    23.294432   0.94297687 
   14500    222.67492   -512.48923    132390.39   -40874.122    2770.4993   -43644.621    23.440063   0.94337277 
   14600    220.39802   -671.15475    132362.68   -40886.894    2742.1704   -43629.065    23.628193    0.9435703 
   14700    218.57154    -387.4935    132170.56   -40921.378    2719.4455   -43640.824     23.46214   0.94494185 
   14800     214.4148   -385.78282    132377.23   -40941.417    2667.7278   -43609.145    23.489872   0.94346657 
   14900    214.70674   -318.46676    132530.07   -40996.713      2671.36   -43668.073    23.569307   0.94237851 
   15000    215.71391   -553.12627    132410.44     -40994.6    2683.8911   -43678.491    23.558138   0.94322991 
   15100    214.13401   -236.51935    132419.98   -41022.389    2664.2342   -43686.623    23.647801   0.94316201 
   15200    219.05627   -443.88663    132593.15   -40942.075    2725.4765   -43667.552    23.728264   0.94193018 
   15300    215.54163   -616.16996    132556.58   -40949.369    2681.7476   -43631.116    23.923502   0.94219006 
   15400    215.54249   -418.85106    132501.45   -40933.404    2681.7584   -43615.163      23.8828   0.94258208 
   15500    218.09089   -475.87443    132434.66   -40898.933    2713.4653   -43612.398    23.982519   0.94305746 
   15600    217.64684    -363.3381    132428.05   -40825.734    2707.9405   -43533.675    24.007156   0.94310448 
   15700    214.53953   -505.57086    132515.67   -40911.057    2669.2796   -43580.337    24.019463   0.94248095 
   15800    220.09527    -253.2064     132567.3   -40914.043    2738.4035   -43652.446    24.250175   0.94211383 
   15900    217.13732   -365.74485    132780.83   -40950.079     2701.601    -43651.68    24.288831    0.9405988 
   16000    220.94379   -597.41509    132789.58   -40888.462    2748.9608   -43637.423     24.44421   0.94053683 
   16100    221.73134    -587.0343    132651.98     -40839.6    2758.7594    -43598.36    24.418492   0.94151248 
   16200    217.55508   -469.13806    132572.11     -40901.3    2706.7988   -43608.098    24.358386   0.94207968 
   16300    219.01827    -546.7846     132852.9   -40911.207    2725.0037   -43636.211     24.53195   0.94008857 
   16400    219.92166    -424.3984    132737.99   -40819.365    2736.2435   -43555.609    24.715947   0.94090242 
   16500    223.73727   -472.83127    132672.58   -40815.691    2783.7171   -43599.408     24.82862    0.9413663 
   16600    224.62908   -588.96177    132588.85   -40803.383    2794.8128   -43598.196    24.621239   0.94196077 
   16700    221.64051   -339.81876    132807.93   -40834.939    2757.6293   -43592.568    24.679108   0.94040685 
   16800    225.64467   -374.48441    132708.74   -40825.518    2807.4487   -43632.966    24.884886   0.94110974 
   16900     218.3005    -615.4696    132748.91   -40785.162    2716.0732   -43501.235    24.892589   0.94082498 
   17000    219.14329   -516.29966    132808.08   -40814.642    2726.5592   -43541.201    24.951244   0.94040582 
   17100    222.70632   -495.93873    132756.21   -40743.204    2770.8901   -43514.094    24.974623   0.94077323 
   17200    224.98997   -534.46104    132799.89    -40762.54    2799.3029   -43561.843    24.972396   0.94046378 
   17300    222.06879   -427.63125    132705.03   -40830.481    2762.9579   -43593.439    25.136897    0.9411361 
   17400    215.19395   -394.73718    132822.04   -40848.617    2677.4218   -43526.038    25.137341   0.94030697 
   17500     223.0972   -437.24094    132968.44   -40832.152    2775.7533   -43607.905    25.256687   0.93927166 
   17600    223.42249   -487.67262    132902.07   -40813.076    2779.8006   -43592.877    25.429623   0.93974078 
   17700    217.53209   -521.85065    132871.53   -40837.126    2706.5127   -43543.638    25.579694   0.93995677 
   17800    221.48367   -448.28464    132767.41   -40840.129    2755.6779   -43595.807    25.602622   0.94069387 
   17900    217.45562   -462.21885    132746.84   -40812.416    2705.5613   -43517.977    25.764166   0.94083963 
   18000    223.01748   -433.28586    132867.35   -40764.937    2774.7614   -43539.698    25.724479   0.93998633 
   18100    220.48556   -356.92947     132917.9   -40871.584    2743.2596   -43614.843    25.870087   0.93962882 
   18200    224.19128   -393.69828    133009.83   -40882.105    2789.3657    -43671.47    25.919206   0.93897943 
   18300    224.64572   -427.33073    133231.07   -40806.351    2795.0198   -43601.371    25.926215   0.93742016 
   18400    222.14152   -332.38639    133384.38   -40880.103    2763.8628   -43643.965    26.003766   0.93634273 
   18500     223.0309    -479.8916    133428.59   -40858.438    2774.9284   -43633.367    26.085636   0.93603245 
   18600    217.14135   -510.30089    133398.67   -40925.888    2701.6512   -43627.539    26.168922   0.93624243 
   18700    216.45333   -417.10751    133314.72   -40891.901     2693.091   -43584.992    26.200573   0.93683198 
   18800    223.58754   -354.65571    133287.19   -40854.037     2781.854   -43635.891    26.399744   0.93702544 
   18900    221.66381   -387.22142    133140.02   -40902.445    2757.9192   -43660.364    26.306072   0.93806123 
   19000    224.57738   -534.17802    133048.31   -40879.601    2794.1696    -43673.77    26.262402   0.93870783 
   19100    218.10786   -349.05106    133089.15   -40931.459    2713.6765   -43645.135    26.486029   0.93841979 
   19200    222.79234   -423.35263    133178.83   -40905.141    2771.9603   -43677.101    26.807543   0.93778786 
   19300    218.68727   -196.11357    133315.25   -40849.492    2720.8854   -43570.377    26.910662   0.93682823 
   19400    223.40127    -562.7366    133268.32   -40861.936    2779.5365   -43641.472    26.848485   0.93715817 
   19500     219.6095   -395.96482    133075.81    -40859.17    2732.3597    -43591.53    26.937149   0.93851387 
   19600    223.32048   -388.12054    133193.86   -40894.517    2778.5313   -43673.049     27.07238   0.93768201 
   19700    223.70101   -506.96503    133237.34   -40875.107    2783.2659   -43658.373    26.996395   0.93737608 
   19800    220.23522   -455.32582    133002.27   -40916.506    2740.1449   -43656.651     27.02328   0.93903278 
   19900    222.63663   -531.45958    133074.97   -40919.486    2770.0229   -43689.509    27.120068   0.93851979 
   20000    219.99047   -502.42729    132966.89   -40960.094    2737.0997   -43697.194    27.203713   0.93928264 
   20100     219.7314   -580.47695    132958.62   -40914.047    2733.8764   -43647.924    27.477608   0.93934109 
   20200    219.39134   -388.52444    132759.42   -40959.961    2729.6453   -43689.606    27.230251   0.94075047 
   20300    219.29804   -449.88517    132609.58   -40988.103    2728.4845   -43716.587    27.247976   0.94181347 
   20400    217.69503   -482.30186    132719.17   -40982.879    2708.5401    -43691.42    27.320407   0.94103578 
   20500    222.63532   -347.23942    132708.41   -40943.594    2770.0067   -43713.601     27.33444   0.94111211 
   20600    217.96854    -575.0575     132912.5   -40966.573     2711.943   -43678.516    27.528401   0.93966698 
   20700    219.50168   -324.80043    132765.62   -40902.573    2731.0182   -43633.591    27.733149    0.9407066 
   20800    217.59406   -470.40814    132938.62   -40895.953    2707.2837   -43603.236    27.706596   0.93948236 
   20900    219.58004   -482.13847     132870.5   -40950.083    2731.9932   -43682.077    27.771363     0.939964 
   21000    216.33239   -402.13089    133083.72   -41043.195    2691.5862   -43734.781     27.65927   0.93845805 
   21100    218.06371   -482.03299    133155.27   -41083.455    2713.1272   -43796.582    27.797742   0.93795379 
   21200    220.34833    -369.0584    133237.52   -41070.497    2741.5521   -43812.049    28.016754    0.9373748 
   21300    216.29988   -408.13119     133217.5   -41083.764    2691.1817   -43774.946    27.950478   0.93751565 
   21400    217.52122   -486.01542    133236.07   -41052.163    2706.3775   -43758.541    28.111068   0.93738495 
   21500     217.9097   -480.95926    133175.45   -41033.031    2711.2109   -43744.242    28.257994    0.9378117 
   21600    222.55694   -525.22367    133110.22    -40975.69    2769.0314   -43744.722    28.227409   0.93827121 
   21700    221.05251   -506.69142    133055.68   -40951.666    2750.3135   -43701.979    28.319759   0.93865586 
   21800    220.86764   -418.42027    132985.52   -40945.134    2748.0133   -43693.147    28.429218   0.93915109 
   21900    220.83061   -551.53103    133028.27   -40965.229    2747.5526   -43712.781    28.501689   0.93884926 
   22000    219.40386   -290.12161    133082.94   -40999.578    2729.8011   -43729.379    28.655619   0.93846355 
   22100    222.94227     -487.803    133153.12   -40933.091    2773.8257   -43706.917    28.637108   0.93796892 
   22200     221.1808   -204.51665    133066.14   -40965.487    2751.9097   -43717.396    28.718066   0.93858206 
   22300    222.18823     -223.484    133013.65   -40945.658     2764.444   -43710.102     28.81855   0.93895247 
   22400    224.83869   -452.06297    133027.32   -40903.448    2797.4207   -43700.869    28.969027   0.93885592 
   22500    224.13897   -318.84999    133130.32   -40902.505    2788.7149    -43691.22    29.091002   0.93812959 
   22600    226.49345   -489.96101    133291.24   -40879.753    2818.0091   -43697.762    29.187824   0.93699698 
   22700    221.42871    -479.4804    133266.78   -40891.292    2754.9941   -43646.286    29.316592     0.937169 
   22800     224.7732   -440.15253    133286.66   -40871.895     2796.606   -43668.501    29.268713   0.93702917 
   22900    220.18119   -285.11882    133149.65   -40930.919    2739.4726   -43670.392     29.17395    0.9379934 
   23000     221.6172   -378.99067     133165.1    -40907.46    2757.3393   -43664.799    29.356433   0.93788459 
   23100    219.13552   -527.09396     132922.4   -41016.797    2726.4625   -43743.259    29.494965   0.93959704 
   23200     220.9876   -427.67744    132869.76   -40963.288    2749.5059   -43712.794    29.675636    0.9399693 
   23300    218.09741   -389.33078    132920.12   -40998.619    2713.5464   -43712.165    29.740683   0.93961316 
   23400    220.57611   -437.12213    133032.68    -40917.47    2744.3861   -43661.857    29.796788   0.93881812 
   23500    216.34797   -435.01729    133200.05   -40956.674      2691.78   -43648.454    29.636383   0.93763845 
   23600    218.26113   -495.89434    133054.67   -40925.428    2715.5834   -43641.011    29.715672   0.93866295 
   23700    220.03393   -463.01006    133079.95   -40959.422    2737.6404   -43697.062    29.870178   0.93848468 
   23800    218.89634   -617.81407    132933.81   -41013.448    2723.4866   -43736.935     30.11024   0.93951641 
   23900    218.64155   -356.83096    133183.21   -41024.609    2720.3166   -43744.926    30.324178   0.93775706 
   24000    219.23234   -563.54728    133214.28   -40959.345    2727.6671   -43687.012    30.550125   0.93753832 
   24100    221.20483   -601.72601    133008.61    -40951.78    2752.2086   -43703.989    30.466016     0.938988 
   24200    214.12803   -344.75958    132830.48   -41019.661    2664.1598   -43683.821    30.449458   0.94024724 
   24300    215.80022   -541.88278    132807.15   -40990.172    2684.9651   -43675.137     30.36405   0.94041242 
   24400    214.37099   -557.73059    132591.07   -41019.594    2667.1826   -43686.777    30.405922   0.94194497 
   24500    219.60736   -456.41694    132665.24   -40972.312     2732.333   -43704.645    30.498929   0.94141834 
   24600    220.54449   -484.90283    132515.98    -40971.05    2743.9927   -43715.043      30.6238   0.94247872 
   24700    217.53568   -561.87421    132615.73   -40993.932    2706.5574    -43700.49    30.490019   0.94176979 
   24800    215.09278   -325.50725    132724.92    -40983.93     2676.163   -43660.093    30.580414   0.94099504 
   24900    227.06714   -399.56233    132686.47   -40936.859     2825.147   -43762.006    30.748669   0.94126774 
   25000    222.01831   -249.03113    132618.55   -40918.579    2762.3299   -43680.909    30.718639   0.94174978 
   25100    220.54512   -407.92334    132677.03   -40919.399    2744.0006     -43663.4    30.732696   0.94133468 
   25200     218.1656   -516.71269    132622.72   -40961.934    2714.3949   -43676.329    30.802654   0.94172019 
   25300    215.24879   -539.37859    132599.78   -40945.662    2678.1042   -43623.766    30.846413   0.94188308 
   25400    225.42369   -572.00143    132789.47   -40928.353    2804.6993   -43733.052    30.972617   0.94053758 
   25500    221.64725   -478.31847    132679.12   -40890.038    2757.7131   -43647.751     31.13888   0.94131987 
   25600    218.41707   -454.79056    132874.05   -40968.561    2717.5235   -43686.084    31.339819   0.93993891 
   25700    218.78422   -540.34768    132849.98   -40990.447    2722.0916   -43712.538    31.291773   0.94010921 
   25800    218.57568   -507.21222    132668.43    -40973.56     2719.497   -43693.057    31.285649   0.94139573 
   25900    216.11985   -483.53519     132678.1   -40944.684    2688.9419   -43633.625     31.34401   0.94132708 
   26000    223.20154   -426.37988     132647.5   -40871.933    2777.0514   -43648.984    31.309593   0.94154428 
   26100    218.27384   -483.30971    132758.62   -40947.164    2715.7415   -43662.906    31.276022   0.94075614 
   26200    221.84027   -329.34648    132798.39   -40940.661    2760.1147   -43700.776    31.439521   0.94047443 
   26300    220.93824   -460.88306     132934.8   -40921.491    2748.8917   -43670.382    31.385797    0.9395094 
   26400    221.40352   -384.12186    133000.11   -40916.371    2754.6807   -43671.051    31.823857     0.939048 
   26500    222.11867   -517.24885    132913.43   -40971.107    2763.5785   -43734.686     31.91179   0.93966045 
   26600    218.33612   -423.64542    132652.46   -41017.685    2716.5164   -43734.202    32.106706   0.94150904 
   26700    214.04064   -442.97045     132647.5   -41033.798    2663.0724   -43696.871    32.038174   0.94154423 
   26800    216.77045   -401.55893    132782.14   -40945.221    2697.0365   -43642.257    32.170917   0.94058956 
   26900    217.55753    -533.1423    132740.65   -40933.442    2706.8293   -43640.271     32.07155   0.94088356 
   27000    218.99607   -371.24074    132936.97   -40971.521    2724.7274   -43696.248    32.027008   0.93949406 
   27100    218.28992   -417.58894    132739.36   -40979.073    2715.9416   -43695.015    31.955928    0.9408927 
   27200    220.61818   -381.01508    132982.93   -40985.314    2744.9095   -43730.223    32.141985   0.93916933 
   27300    221.20475   -429.35148    133126.59   -41010.211    2752.2076   -43762.419    32.383354   0.93815585 
   27400    219.52364   -399.95623    133092.39   -40953.785    2731.2914   -43685.076    32.415987   0.93839691 
   27500    222.67337   -494.76046    133119.71   -40901.152    2770.4801   -43671.632    32.515564   0.93820434 
   27600    218.96591   -357.22188       132920   -40930.124    2724.3523   -43654.476    32.516425   0.93961398 
   27700     219.5645   -241.04277    132986.85   -40945.815    2731.7997   -43677.615    32.570995   0.93914169 
   27800     225.1674   -522.79535    132951.94   -40882.279    2801.5105   -43683.789    32.661667   0.93938826 
   27900    217.88925   -393.76324    132920.23   -40901.492    2710.9565   -43612.448    32.565401   0.93961233 
   28000    217.59111   -283.25896    132740.39   -40934.813     2707.247    -43642.06    32.605429   0.94088537 
   28100    220.28175   -323.38824     132956.2   -40908.698    2740.7237   -43649.421    32.726238   0.93935814 
   28200    221.66793   -579.56766    132791.71   -40960.691    2757.9705   -43718.661    32.886257   0.94052173 
   28300    219.95635     -443.806    132818.41   -40943.597    2736.6752   -43680.272     32.74981    0.9403327 
   28400    218.23173   -590.43112    132642.14   -41001.233    2715.2177   -43716.451    32.732306   0.94158233 
   28500    217.18048   -441.05735    132754.24   -41026.291    2702.1381   -43728.429    32.869443   0.94078722 
   28600    215.50584   -435.94543    132738.15   -40968.751    2681.3023   -43650.054    33.123396   0.94090123 
   28700    217.44994    -491.4573     132699.4   -40967.057    2705.4907   -43672.548    33.190584   0.94117597 
   28800    220.55319    -376.3387    132925.99   -40917.542     2744.101   -43661.643    33.243219   0.93957166 
   28900    219.95524   -648.46247    132623.43   -40885.557    2736.6613   -43622.218    33.421787   0.94171516 
   29000    217.07028   -221.62359    132598.42   -40951.218     2700.767   -43651.985    33.409178   0.94189277 
   29100    222.91329   -364.63311    132506.34   -40898.135    2773.4651   -43671.601    33.485904   0.94254726 
   29200    218.75577   -356.43452    132531.33    -40853.51    2721.7377   -43575.248    33.318839   0.94236959 
   29300    213.96187   -440.01078    132534.53   -40925.558    2662.0924    -43587.65    33.407116   0.94234681 
   29400    217.64174   -340.02741    132539.73   -40968.844     2707.877   -43676.721    33.447912   0.94230985 
   29500    216.68448   -291.38174    132611.55   -40994.414    2695.9669   -43690.381    33.617767    0.9417995 
   29600    219.90486    -438.7071    132598.15   -40916.914    2736.0346   -43652.949    33.787214   0.94189464 
   29700    218.46839   -534.05087    132714.77   -40965.268    2718.1621    -43683.43    33.973767   0.94106698 
   29800    217.12124   -249.25397    132664.24   -40947.732     2701.401   -43649.133    33.880326   0.94142547 
   29900    218.41613   -329.90223    132723.74   -40973.584    2717.5119   -43691.096    34.042821    0.9410034 
   30000    219.45264   -458.93774    132660.91   -40960.852    2730.4081   -43691.261    34.023557   0.94144908 
   30100    219.92851   -418.98403    132866.68   -40956.221    2736.3288   -43692.549    34.114271   0.93999103 
   30200    219.64518   -527.04272    133154.12   -40963.492    2732.8036   -43696.295     34.25473   0.93796192 
   30300    219.30973   -272.09605    133195.32   -40920.022      2728.63   -43648.652    34.542832   0.93767177 
   30400     218.1585   -407.38647    133169.99   -40912.149    2714.3065   -43626.456    34.521677   0.93785009 
   30500    220.17189   -538.00767    132963.87   -40917.962    2739.3568   -43657.319    34.506336   0.93930396 
   30600    221.17665   -385.44676    132870.91    -40892.59    2751.8581   -43644.448    34.466421   0.93996111 
   30700    218.71569   -357.77154    133020.12   -40903.319     2721.239   -43624.558    34.779127   0.93890679 
   30800    222.71874   -218.24306    133200.71   -40854.842    2771.0446   -43625.886    34.965118   0.93763382 
   30900     220.7507   -308.25042    133335.46   -40991.654    2746.5584   -43738.213    35.046993   0.93668626 
   31000    215.77759   -391.52781    133229.96   -41043.195    2684.6835   -43727.879    35.155513     0.937428 
   31100    216.76148   -381.99341     133226.6   -41035.342    2696.9248   -43732.267    34.888977   0.93745163 
   31200    220.55212   -492.27073    133072.67   -41052.334    2744.0877   -43796.422    34.913975   0.93853599 
   31300    224.03716   -426.24544    133222.13   -41012.784    2787.4481   -43800.232    34.995877   0.93748307 
   31400    215.24051   -481.96084    133155.66   -40970.205    2678.0012   -43648.206    35.100307   0.93795106 
   31500    220.33209   -460.76759    133317.05   -41021.668      2741.35   -43763.018    35.164496    0.9368156 
   31600    224.55326   -405.67398       133255    -40958.34    2793.8695   -43752.209    35.352379   0.93725179 
   31700    221.80744   -385.60041     133248.9    -40999.92    2759.7063   -43759.627    35.451831   0.93729476 
   31800     222.4771   -376.33344    133327.11   -40953.596     2768.038   -43721.634    35.590028    0.9367449 
   31900    223.82739   -357.81123    133418.73   -40959.401    2784.8383   -43744.239    35.713896   0.93610166 
   32000    220.55144   -292.82756    133405.55    -40955.51    2744.0792    -43699.59    35.601824    0.9361941 
   32100    220.21063   -488.29711    133126.52   -40969.997     2739.839   -43709.836    35.648367   0.93815637 
   32200    219.49119   -408.22546    133117.73   -40957.522    2730.8876   -43688.409    35.649288   0.93821827 
   32300    222.60642   -492.03668     133076.4   -40939.578     2769.647   -43709.225    35.734971   0.93850969 
   32400    215.64699   -459.10653    133099.63   -41005.134    2683.0586   -43688.192    35.847869    0.9383459 
   32500    220.35661    -359.4562    133140.41   -41005.581    2741.6552   -43747.237    36.118958   0.93805848 
   32600    219.37187   -600.29136    132991.47   -40935.066    2729.4032    -43664.47    36.095436   0.93910904 
   32700    221.77682   -404.70572    132903.35   -41001.435    2759.3253    -43760.76    36.274261   0.93973168 
   32800    219.05844    -566.6886    132853.65    -41037.48    2725.5035   -43762.984    36.162515   0.94008326 
   32900    219.05125   -545.02295    132818.48   -41036.256     2725.414    -43761.67    36.058263   0.94033218 
   33000    215.08223   -431.59246     132888.2   -41095.802    2676.0318   -43771.834    36.366154   0.93983885 
   33100    217.64399   -418.59009    133004.47    -41027.58     2707.905   -43735.485    36.288308   0.93901726 
   33200    222.41425   -542.04336    133017.82    -41065.19    2767.2561   -43832.446    36.417615   0.93892299 
   33300    218.39859   -529.17858    132642.57   -41004.046    2717.2937   -43721.339    36.473958   0.94157922 
   33400    217.83351   -501.27614    132584.46    -41088.23     2710.263   -43798.493     36.42527   0.94199192 
   33500     219.2105   -400.53365    132582.76   -41053.723    2727.3953   -43781.118    36.694519   0.94200399 
   33600    220.19752   -342.07629    132765.21   -41015.739    2739.6757   -43755.415    36.761462    0.9407095 
   33700    217.81196   -315.77946    132913.41    -41011.91    2709.9949   -43721.905    36.753575   0.93966061 
   33800    220.21365   -577.68769    133023.95   -41021.237    2739.8765   -43761.113    36.797521   0.93887975 
   33900    219.14596   -620.29159    132744.14   -41043.652    2726.5923   -43770.244    36.652693   0.94085876 
   34000    218.73189   -464.77648     132899.6   -41012.621    2721.4405   -43734.061    36.821011   0.93975818 
   34100    219.83518   -648.60962    132910.28   -41046.684    2735.1675   -43781.851    37.013207   0.93968268 
   34200    220.31473   -316.08673    132934.64   -41041.389    2741.1341   -43782.523    37.131908   0.93951054 
   34300    221.76994   -462.75831    132922.54   -41110.202    2759.2396   -43869.442    36.998715   0.93959604 
   34400    219.96565   -518.54876    132893.46   -41047.682    2736.7909   -43784.473    37.037997   0.93980166 
   34500     224.9592    -590.8576    132991.24   -41064.456    2798.9201   -43863.376    37.192499   0.93911063 
   34600    222.70793    -452.5215    132930.11   -41047.815    2770.9101   -43818.725     37.36252   0.93954253 
   34700    212.95954   -486.20495    132865.85   -41128.338    2649.6215   -43777.959    37.590066   0.93999692 
   34800    215.81467   -573.69983    132713.39   -41112.814    2685.1448   -43797.958    37.460113   0.94107676 
   34900    214.53322   -408.19044    132614.08   -41119.806    2669.2012   -43789.007    37.495824   0.94178153 
   35000    213.33038   -483.83314    132773.28   -41178.277    2654.2356   -43832.512    37.609473   0.94065228 
   35100    217.41891   -534.35859    132884.23   -41104.868    2705.1046   -43809.973     37.52338   0.93986694 
   35200    220.48782   -359.57082    133039.37   -41088.365    2743.2876   -43831.652    37.506609    0.9387709 
   35300     219.9228   -498.07247    133119.74   -41073.824    2736.2578   -43810.082    37.551241   0.93820414 
   35400    219.18907   -600.64726    132933.89   -41093.518    2727.1287   -43820.647    37.740789   0.93951582 
   35500    215.78141   -298.22575    133009.67   -40984.183    2684.7309   -43668.914     38.09978   0.93898053 
   35600    217.09178   -476.31952    133126.02   -41034.381    2701.0345   -43735.416    38.392368    0.9381599 
   35700    221.38908   -442.71181    133148.54   -40999.753     2754.501   -43754.254    38.190885   0.93800122 
   35800    222.14017   -312.04563    133167.53   -41037.966    2763.8461   -43801.812    38.337384   0.93786748 
   35900    224.58054   -384.92653       133168   -40992.917    2794.2089   -43787.126    38.169887   0.93786416 
   36000    223.26259   -529.73676    133205.15   -40969.511    2777.8111   -43747.322    38.302204   0.93760258 
   36100    224.90946   -315.99586    133153.99    -40993.79    2798.3013   -43792.091    38.142414   0.93796279 
   36200    223.48703   -474.53335    133126.93   -41024.253    2780.6035   -43804.857    38.295398   0.93815345 
   36300    218.73555   -422.12656    133193.27   -41077.336    2721.4861   -43798.822    38.294018   0.93768617 
   36400    221.47346   -440.73653    133018.46   -41040.114    2755.5509   -43795.665    38.201115   0.93891845 
   36500     218.5754   -523.33598    133045.44   -41013.874    2719.4936   -43733.368    38.488032   0.93872807 
   36600    218.39573    -536.5747    133246.86   -41133.991    2717.2581   -43851.249    38.530721   0.93730907 
   36700    214.42637   -385.40103    133071.25   -41081.943    2667.8717   -43749.815    38.580353   0.93854603 
   36800    220.05556   -348.32936    133109.53   -41065.379    2737.9095   -43803.289    38.674001   0.93827608 
   36900     218.3996   -579.31755    133370.52   -41078.287    2717.3062   -43795.593    38.808391   0.93644003 
   37000    221.22621   -472.71595    133368.49   -41015.159    2752.4747   -43767.633     39.06279   0.93645427 
   37100    221.01149   -384.32061    133467.73   -40997.124    2749.8031   -43746.927    39.005917   0.93575794 
   37200    215.22588   -537.63188    133363.22    -41060.88    2677.8192   -43738.699     39.03803    0.9364913 
   37300     219.8146   -466.05019    133239.55   -41064.237    2734.9116   -43799.149    38.953564   0.93736047 
   37400    217.29666   -456.14397    133475.48   -41106.785    2703.5836   -43810.369    39.028366   0.93570361 
   37500    220.62825   -490.19938    133289.83   -41127.391    2745.0349   -43872.426    39.167623   0.93700693 
   37600    217.91074   -482.84659    133213.88   -41079.048    2711.2239   -43790.272    39.337749   0.93754111 
   37700    220.65917    -323.4409    133362.31   -41083.942    2745.4195   -43829.362     39.57003   0.93649764 
   37800    214.80741   -420.27944    133509.94   -41180.501    2672.6126   -43853.114    39.486815    0.9354621 
   37900    218.36128   -596.26846    133540.42   -41136.681    2716.8295    -43853.51    39.521719   0.93524862 
   38000    220.86149   -532.66581    133418.73   -41105.623    2747.9368    -43853.56    39.515562   0.93610165 
   38100    217.78414   -329.80929    133262.29     -41059.5    2709.6487   -43769.148    39.288673   0.93720057 
   38200    217.16559   -438.13017    133247.69   -41063.944    2701.9529   -43765.897    39.440694   0.93730324 
   38300    223.17962   -351.93819    133256.79   -41007.522    2776.7788   -43784.301    39.457732   0.93723925 
   38400    218.68335   -584.31923    133111.58    -41074.76    2720.8366   -43795.597    39.412804   0.93826162 
   38500     217.7735   -355.84249    133187.03   -41084.312    2709.5164   -43793.828    39.646652   0.93773014 
   38600    222.76702   -491.66939    133212.08   -41051.722    2771.6453   -43823.368    39.874734    0.9375538 
   38700    223.11699   -476.73617    133245.94   -41080.352    2775.9996   -43856.352    39.780544   0.93731556 
   38800    219.83759   -492.72112    133233.09   -41123.861    2735.1976   -43859.059    39.672891   0.93740593 
   38900    221.04485    -327.4585    133438.38   -41080.644    2750.2181   -43830.862    39.748434   0.93596379 
   39000    222.65843    -592.6804    133353.99   -41125.224    2770.2942   -43895.518    39.668199   0.93655606 
   39100    220.53114   -532.11744    133383.77   -41098.046    2743.8267   -43841.873    40.071125   0.93634698 
   39200    218.68024   -455.43027    133376.91   -41126.302     2720.798     -43847.1    40.087058   0.93639515 
   39300    221.52714   -274.61305    133449.24   -41106.933    2756.2187   -43863.151    40.076739   0.93588764 
   39400    224.69835   -465.48043    133411.01   -41068.372    2795.6746   -43864.047    40.451123   0.93615577 
   39500    217.46056   -358.58781    133322.47   -41053.457    2705.6227    -43759.08    40.641779   0.93677748 
   39600     220.5179    -503.1953    133218.76   -41095.688    2743.6619    -43839.35    40.453124   0.93750681 
   39700    220.37376   -488.79468    133168.54   -41045.524    2741.8686   -43787.392    40.491429   0.93786033 
   39800    222.84058   -355.44454    133254.27    -41115.63    2772.5605   -43888.191    40.595883   0.93725695 
   39900    220.01004   -441.58731    133277.58   -41151.251    2737.3432   -43888.594    40.615987   0.93709301 
   40000    217.58486   -427.66181    133208.91    -41180.96    2707.1693   -43888.129     40.82404   0.93757614 
   40100     218.4153   -448.75046    133318.98   -41087.388    2717.5016    -43804.89    41.068983   0.93680205 
   40200    215.58588   -604.40493     133085.5   -41116.372    2682.2982    -43798.67    41.010036   0.93844551 
   40300    221.84903   -389.11076    133010.67   -41090.692    2760.2237   -43850.916    40.966404   0.93897345 
   40400    224.43871   -523.82515    132989.32    -41007.05    2792.4442   -43799.494    41.031482   0.93912423 
   40500    221.74125    -457.3424    132961.72   -41021.965    2758.8827   -43780.848     41.12725   0.93931915 
   40600    221.55366   -635.85806    132999.39   -41074.718    2756.5488   -43831.267    41.044509    0.9390531 
   40700     218.6788   -376.66452    133028.15   -41128.047      2720.78   -43848.827    41.070131   0.93885012 
   40800    217.74128   -440.79949    132830.55   -41168.435    2709.1155    -43877.55    41.119626   0.94024675 
   40900    216.62476   -315.40911    132992.58   -41187.831    2695.2238   -43883.055    41.132004   0.93910122 
   41000    219.75025   -343.06722    133202.15    -41100.73    2734.1108   -43834.841    41.247395   0.93762371 
   41100     223.9157   -480.70461    133250.78   -41083.508     2785.937   -43869.445    41.411763   0.93728151 
   41200    219.84137   -475.60006    133235.58   -41103.914    2735.2446   -43839.159    41.509616   0.93738842 
   41300    214.89659   -465.94806    133196.31   -41254.954    2673.7222   -43928.676    41.384149    0.9376648 
   41400    217.68227   -469.47223    133221.19   -41204.783    2708.3812   -43913.164     41.32546   0.93748967 
   41500    215.69806   -480.21013    133437.04   -41192.692    2683.6939   -43876.386    41.487165   0.93597315 
   41600    215.27438    -324.5883    133381.77   -41168.765    2678.4226   -43847.188    41.576387   0.93636103 
   41700    217.24902    -397.6216    133333.08   -41146.473    2702.9909   -43849.464    41.584266   0.93670294 
   41800    217.47283   -422.50251    133393.66   -41153.624    2705.7755   -43859.399    41.590803    0.9362776 
   41900    218.03802   -431.29497    133489.88   -41137.547    2712.8075   -43850.354    41.606331   0.93560268 
   42000    220.52436    -357.6767    133481.66     -41137.1    2743.7423   -43880.842     41.62666   0.93566032 
   42100    219.77109   -335.08238    133651.75    -41137.44    2734.3702    -43871.81    41.651701   0.93446954 
   42200    222.75928   -462.29327    133655.84   -41092.016     2771.549   -43863.565     41.79734   0.93444097 
   42300    221.50797   -599.05222    133746.59   -41075.181    2755.9803   -43831.162    41.746249   0.93380693 
   42400    219.37593    -547.2475    133510.15   -41119.555    2729.4537   -43849.009    41.918632   0.93546068 
   42500    221.11068   -354.54902    133613.25   -41110.187    2751.0373   -43861.224    41.942066    0.9347388 
   42600    221.19567   -510.16718    133595.76   -41121.768    2752.0947   -43873.863    41.833029   0.93486118 
   42700    221.34469   -432.82582    133464.82   -41134.359    2753.9488   -43888.308    41.865085    0.9357784 
   42800    222.68852   -345.92647    133557.82   -41080.236    2770.6685   -43850.904    42.054519   0.93512675 
   42900    219.98436   -450.49731    133486.03   -41146.673    2737.0237   -43883.697    42.211413   0.93562967 
   43000    221.11537    -255.7584    133497.97   -41176.031    2751.0955   -43927.127    42.137501   0.93554601 
   43100    219.56804   -292.50438    133557.36   -41143.988    2731.8439   -43875.832    42.236744   0.93512997 
   43200     218.9331   -506.19823    133357.25   -41098.584    2723.9439   -43822.528    42.183202   0.93653318 
   43300    217.33946    -463.0859    133199.35   -41103.853    2704.1161   -43807.969    42.261834   0.93764338 
   43400    218.95719   -442.94314    133355.14   -41042.523    2724.2437   -43766.767    42.181301     0.936548 
   43500    222.85784   -536.20359    133437.79    -41057.17    2772.7752   -43829.946    42.438033   0.93596792 
   43600    226.71981   -347.11692    133463.62   -40969.219    2820.8254   -43790.044    42.514836   0.93578677 
   43700    227.04915   -462.45685    133267.29   -41008.641    2824.9231   -43833.564    42.498977   0.93716538 
   43800    224.75666    -411.9459    133343.74   -41021.558    2796.4002   -43817.959    42.556519   0.93662807 
   43900    219.39923   -424.30382    133422.07   -41059.714    2729.7435   -43789.458     42.47973    0.9360782 
   44000    218.29497   -636.24604    133450.62   -41097.531    2716.0044   -43813.535    42.710682   0.93587795 
   44100    218.37192   -546.14468    133379.06   -41126.069    2716.9619   -43843.031    42.651714   0.93638003 
   44200    216.85254   -436.56156    133384.59   -41161.188    2698.0579   -43859.246     42.52147   0.93634126 
   44300    217.70404   -429.56095    133310.06   -41158.811    2708.6522   -43867.463    42.575976    0.9368647 
   44400    224.03786   -413.99956     133620.4   -41117.227     2787.457   -43904.684    42.737661    0.9346888 
   44500    223.17549   -447.30764    133416.85   -41143.455    2776.7273   -43920.183    42.892438    0.9361148 
   44600    214.18266   -498.33993    133294.78   -41203.539    2664.8395   -43868.378    42.950788   0.93697208 
   44700    214.86812   -392.65513    133207.08   -41187.387    2673.3679   -43860.755    42.760411   0.93758901 
   44800    219.68555   -354.42876    133238.65    -41157.26    2733.3059   -43890.566    42.791823   0.93736682 
   44900    219.82995   -478.45957    133341.75   -41110.971    2735.1026   -43846.073     42.86043   0.93664204 
   45000     225.6491   -383.48441    133336.95   -41111.346    2807.5037    -43918.85    42.827204   0.93667577 
   45100    221.16615   -502.80297    133273.44   -41061.463    2751.7274   -43813.191    42.902046   0.93712217 
   45200    219.94475   -500.96782    133216.23   -41136.493    2736.5309   -43873.024    42.883182   0.93752459 
   45300    218.93631   -501.81987    133403.98   -41149.104    2723.9839   -43873.088    43.195488   0.93620514 
   45400     220.0599   -421.62383    133456.91    -41120.28    2737.9635   -43858.244    43.179953   0.93583383 
   45500    221.71817   -472.78823    133426.42   -41139.768    2758.5956   -43898.364    43.205693   0.93604767 
   45600    222.48954   -320.90028    133603.56   -41136.108    2768.1929   -43904.301    43.417356   0.93480661 
   45700    220.34854   -482.90454    133600.03   -41152.892    2741.5547   -43894.447    43.450091   0.93483131 
   45800    221.45995   -366.25772    133709.74   -41089.436    2755.3828   -43844.819    43.673106   0.93406426 
   45900    228.25621   -420.33199    133689.61   -41038.889    2839.9412   -43878.831    43.632937   0.93420494 
   46000    223.92454    -478.0118    133561.72   -41034.993     2786.047    -43821.04    43.703099   0.93509949 
   46100    226.60825   -450.01738    133594.54    -40983.77    2819.4374   -43803.207      43.9333   0.93486972 
   46200    226.23425   -461.97471    133663.92   -40986.311    2814.7842   -43801.096    43.963523   0.93438445 
   46300    224.12067   -584.29133    133513.94   -41002.573    2788.4872    -43791.06    43.699163   0.93543411 
   46400    227.39642   -475.91695    133433.66   -41037.786    2829.2438    -43867.03     43.75997   0.93599687 
   46500    220.69507    -499.8011    133253.49    -41053.84    2745.8662   -43799.706    43.449473   0.93726245 
   46600    222.22627    -441.4241    133136.82   -41041.781    2764.9173   -43806.699    43.430265   0.93808375 
   46700    218.10402   -427.90279    133241.29   -41123.799    2713.6287   -43837.428    43.761697   0.93734829 
   46800    216.76246    -462.9159    133286.41   -41172.686    2696.9371   -43869.623     43.65542   0.93703098 
   46900    221.16433   -333.62769    133313.85   -41083.131    2751.7047   -43834.836    43.831421   0.93683806 
   47000    220.36594   -452.99834    133684.24    -41069.67    2741.7713   -43811.441    43.721213   0.93424242 
   47100    222.18047   -241.38634    133720.24   -41053.817    2764.3475   -43818.165    43.717993   0.93399093 
   47200    226.04448    -456.5752    133704.82   -41118.418     2812.423   -43930.841    43.884724   0.93409863 
   47300    222.12738   -584.04535    133482.19   -41145.253    2763.6869    -43908.94    43.870857   0.93565658 
   47400    225.85052    -406.1747    133491.36   -41098.627    2810.0098   -43908.636    44.128396   0.93559232 
   47500    224.81498   -403.47146    133395.33   -41035.999    2797.1258   -43833.124    43.987484   0.93626586 
   47600    224.47505   -415.53523    133262.49    -40998.31    2792.8964   -43791.207    44.089474   0.93719912 
   47700    222.55575   -534.64894    133280.32   -41044.207    2769.0166   -43813.224    44.250576   0.93707374 
   47800     221.9616   -266.91728    133317.82   -41036.935    2761.6243   -43798.559    44.426676    0.9368102 
   47900     219.7041   -453.91902    133405.62   -41119.498    2733.5367   -43853.035    44.423317   0.93619361 
   48000    218.05895   -655.91043    133312.79   -41142.394    2713.0679   -43855.462    44.127795   0.93684553 
   48100    219.49012   -488.55438    133242.23   -41106.663    2730.8743   -43837.538    43.995833   0.93734161 
   48200     217.6445   -482.59753    133190.44   -41133.805    2707.9114   -43841.716    44.267994    0.9377061 
   48300    216.71548   -424.46743    133190.89   -41114.289    2696.3525   -43810.641    44.298843   0.93770299 
   48400    224.31159   -417.67106    133302.87   -41037.241    2790.8626   -43828.104    44.374545   0.93691526 
   48500    219.90053   -395.75471    133180.42   -41107.712    2735.9807   -43843.692    44.548743   0.93777665 
   48600    220.45855    -323.7183    133335.41   -41117.375    2742.9235   -43860.299    44.749066   0.93668658 
   48700    219.08517   -497.02487       133229   -41084.781     2725.836   -43810.617    45.101463   0.93743474 
   48800    221.38017   -404.58689    133240.79   -41115.509    2754.3902   -43869.899    44.928964   0.93735178 
   48900     217.3777   -487.70321    133331.95   -41103.437    2704.5918   -43808.029     44.71086   0.93671092 
   49000    220.33625   -406.39912     133237.7   -41146.143    2741.4018   -43887.544    44.921259    0.9373735 
   49100    221.82551   -499.20433    133408.31   -41147.803    2759.9311   -43907.734    45.112704   0.93617473 
   49200    219.86921   -288.61968    133423.52   -41176.446     2735.591   -43912.037     44.90316   0.93606802 
   49300    221.97502   -550.39406    133543.57   -41123.046    2761.7912   -43884.837    44.922548   0.93522656 
   49400     222.3085   -375.85814    133378.92   -41100.808    2765.9404   -43866.748    44.884562   0.93638104 
   49500    220.27862   -555.75169    133341.06   -41112.176    2740.6849    -43852.86    44.929302   0.93664689 
   49600    219.59358   -359.19536    133484.54   -41106.903    2732.1616   -43839.065    45.059445   0.93564014 
   49700    220.41874   -528.88782    133483.15   -41108.016    2742.4282   -43850.444     45.05196    0.9356499 
   49800    216.25224    -467.0857    133264.25   -41142.027    2690.5889   -43832.616    45.138235   0.93718676 
   49900    221.91331   -461.87971    133423.92   -41043.539    2761.0235   -43804.563    45.201421   0.93606521 
   50000    220.78579   -509.40146     133552.1   -41081.759    2746.9949   -43828.754    45.346948   0.93516684 
   50100    220.86502   -517.96083    133476.09    -41099.85    2747.9807   -43847.831     45.44008   0.93569937 
   50200    219.10081   -460.78223    133530.89    -41155.52    2726.0307   -43881.551    45.411847   0.93531537 
   50300     225.5752   -474.24441    133555.24   -41136.972    2806.5844   -43943.557    45.561157   0.93514484 
   50400    220.93388   -538.26225    133486.53   -41170.454    2748.8374   -43919.292    45.472793   0.93562614 
   50500    218.24684   -416.63598     133361.3   -41214.383    2715.4056   -43929.789    45.570069   0.93650477 
   50600    218.82795   -481.13211    133501.47   -41244.775    2722.6358    -43967.41    45.759472   0.93552144 
   50700    217.30323   -582.53202    133459.01   -41270.121    2703.6653   -43973.786    45.572554   0.93581909 
   50800    214.26178   -494.89067     133614.8   -41276.545    2665.8239   -43942.368    45.628389     0.934728 
   50900    220.07427   -434.70711    133747.27   -41191.858    2738.1423   -43930.001    45.720504    0.9338022 
   51000    217.64991   -368.13909    133684.23   -41222.531    2707.9786   -43930.509    45.694415   0.93424253 
   51100    220.28621   -534.98203    133747.28   -41250.846    2740.7793   -43991.625    45.766144    0.9338021 
   51200    218.09829     -285.988    133783.97   -41226.373    2713.5574    -43939.93    45.974607   0.93354604 
   51300    218.52289   -390.94825    133839.63   -41297.214    2718.8402   -44016.054    46.048104   0.93315779 
   51400     211.2843   -543.58763     133740.6   -41302.434    2628.7783   -43931.212    46.137159   0.93384876 
   51500    217.31248   -474.08602    133671.65   -41293.459    2703.7804    -43997.24    46.068918   0.93433046 
   51600    220.88109   -438.26749    133714.33   -41235.125    2748.1807   -43983.306    45.981134   0.93403224 
   51700     218.4351   -259.03637    133767.33   -41228.182    2717.7479    -43945.93    46.103517   0.93366216 
   51800    218.42591   -638.75723    133794.89   -41277.288    2717.6336   -43994.922    46.035883   0.93346981 
   51900    220.45942   -323.96938     134010.6   -41301.781    2742.9344   -44044.716    46.087278   0.93196728 
   52000    217.81465   -469.22322    133994.95   -41336.864    2710.0284   -44046.892    45.779223   0.93207612 
   52100    218.12705   -504.22582    134052.18   -41294.857    2713.9152   -44008.773    45.916804   0.93167817 
   52200    217.27611   -532.27821    133963.68   -41325.061    2703.3279   -44028.389    46.077403   0.93229367 
   52300    218.91097   -351.77019    134004.51   -41304.988    2723.6687   -44028.657     46.20203   0.93200961 
   52400    219.90642   -623.99853    133976.94   -41248.114    2736.0539   -43984.168    46.002462   0.93220141 
   52500    222.47504   -513.93401    133883.93   -41246.996    2768.0125   -44015.008    46.283999   0.93284901 
   52600    218.24093    -484.7294    133802.84   -41263.519    2715.3321   -43978.851    46.136293   0.93341436 
   52700    218.90522   -480.81836    133941.65   -41295.449    2723.5971   -44019.046    46.346251   0.93244704 
   52800    219.00814   -385.31469    133753.47    -41245.52    2724.8776   -43970.398    46.369966   0.93375889 
   52900    222.33786   -530.50314    133815.22   -41223.376    2766.3057   -43989.682    46.367676   0.93332796 
   53000    223.32805   -483.76432    133806.09   -41202.193    2778.6255   -43980.819    46.468925   0.93339166 
   53100    218.21018   -459.14281    133724.82   -41251.965    2714.9495   -43966.915    46.570607   0.93395896 
   53200    218.86166   -372.14401    133804.36   -41232.298    2723.0551   -43955.353    46.684842   0.93340373 
   53300    219.33039   -481.91167     133818.8    -41221.02     2728.887   -43949.907    46.436939   0.93330302 
   53400    217.73218   -421.38101    133963.85   -41300.981    2709.0023   -44009.983    46.462549    0.9322925 
   53500    217.28032   -410.21626    134045.16   -41299.776    2703.3802   -44003.156    46.631764   0.93172695 
   53600    220.29879   -513.63501    133920.82     -41306.4    2740.9358   -44047.335    46.400528   0.93259205 
   53700    215.79362   -473.81453    133787.16   -41345.932    2684.8828   -44030.815    46.470202   0.93352374 
   53800    219.28898   -355.43796    133700.46     -41219.8    2728.3718   -43948.172    46.463349   0.93412912 
   53900    215.62424   -382.95512    133688.06   -41261.804    2682.7755    -43944.58    46.705282   0.93421575 
   54000    218.77536   -417.04717    133718.67   -41232.907    2721.9814   -43954.889    46.856508   0.93400188 
   54100     217.5232   -539.98785    133731.81   -41250.392    2706.4021   -43956.794    46.790137   0.93391009 
   54200    216.18146   -568.95998    133856.08   -41229.669    2689.7084   -43919.377    46.770414   0.93304313 
   54300    219.77026   -485.68591    133782.52   -41203.635    2734.3598   -43937.994    46.745551   0.93355613 
   54400    219.66318   -421.79511    133571.08   -41238.049    2733.0275   -43971.077    46.630541   0.93503394 
   54500    218.90122   -292.58495    133565.34   -41213.065    2723.5473   -43936.612    46.937734   0.93507413 
   54600     221.5678   -421.59528     133625.3   -41119.386    2756.7247   -43876.111    47.083757   0.93465455 
   54700    221.78546   -313.35103    133598.17    -41127.04    2759.4328   -43886.473    46.948917   0.93484435 
   54800    220.54124   -384.45913    133553.89   -41202.897    2743.9523   -43946.849    46.966815   0.93515425 
   54900    218.99121    -417.6397     133599.8   -41247.821     2724.667   -43972.487     46.83413   0.93483291 
   55000    215.10907   -584.15365    133761.39   -41316.512    2676.3658   -43992.878    46.936186   0.93370363 
   55100     219.6388   -400.47818    133804.44   -41291.169    2732.7242   -44023.893    46.882662    0.9334032 
   55200    219.45496   -408.01789    133698.09   -41308.544    2730.4369    -44038.98    46.961395    0.9341457 
   55300    221.08182   -510.01304    133618.41    -41251.35    2750.6782   -44002.028    46.907391   0.93470273 
   55400    220.43453   -374.35711    133723.58   -41221.859    2742.6247   -43964.484    47.063927   0.93396758 
   55500    221.06941   -453.95107    133646.27   -41165.817    2750.5238   -43916.341    47.096663   0.93450787 
   55600    220.75946   -570.10984    133570.54   -41204.186    2746.6674   -43950.853    46.934202   0.93503771 
   55700    217.87913   -512.99347    133529.84   -41204.817    2710.8306   -43915.647    46.907452    0.9353227 
   55800    219.35696   -471.20962    133542.98   -41213.052    2729.2176    -43942.27    46.873285   0.93523068 
   55900    222.06662   -390.34972    133697.98    -41183.77    2762.9309   -43946.701    47.007156   0.93414641 
   56000    222.16249   -395.83032    133564.99   -41176.235    2764.1238   -43940.359    47.177358   0.93507653 
   56100     222.8514   -506.07064    133599.06   -41146.923    2772.6951   -43919.618    47.266839   0.93483811 
   56200    222.33395   -523.47983    133667.77   -41159.871    2766.2571   -43926.128      47.2469   0.93435757 
   56300    214.66961    -579.8154    133475.87   -41187.683    2670.8981   -43858.581    47.183373   0.93570087 
   56400    220.53233   -485.77494    133380.27   -41164.855    2743.8414   -43908.697    47.317313   0.93637154 
   56500    217.18315   -320.04658    133449.36    -41250.14    2702.1713   -43952.311    47.325549   0.93588674 
   56600    215.76128   -497.74622    133306.85   -41262.507    2684.4805   -43946.988    47.271349   0.93688725 
   56700    214.99688   -480.73163    133254.92   -41282.339      2674.97   -43957.309    47.421215   0.93725237 
   56800    216.76833   -457.72823    133315.77   -41207.029    2697.0102    -43904.04     47.36611   0.93682458 
   56900    217.57011   -457.41032    133302.57   -41179.935    2706.9858   -43886.921    47.325641   0.93691733 
   57000    223.98129   -320.81639    133314.12   -41125.054     2786.753   -43911.807    47.418645    0.9368362 
   57100     219.3574   -557.13692    133236.88   -41183.954    2729.2231   -43913.177    47.295873    0.9373793 
   57200    216.14591   -485.18433    133290.76   -41226.155     2689.266   -43915.421    47.502085   0.93700036 
   57300    218.81911   -481.63789    133225.87   -41269.181    2722.5258   -43991.707    47.560068   0.93745678 
   57400    214.61863   -463.39688     133383.4   -41293.621    2670.2637   -43963.885     47.77619   0.93634956 
   57500    213.01569   -352.03074    133309.12   -41328.682    2650.3201   -43979.002    47.835402   0.93687129 
   57600    217.57413   -380.56485    133467.35   -41280.684    2707.0358    -43987.72    47.881032   0.93576066 
   57700    211.05262   -508.75615    133699.94   -41314.716    2625.8958   -43940.611    48.235774   0.93413271 
   57800    210.98335   -541.12282    133608.89   -41330.511     2625.034   -43955.545    48.262356    0.9347693 
   57900    219.98555   -523.53815    133430.07   -41302.873    2737.0384   -44039.911    47.935207    0.9360221 
   58000    216.31715   -519.19779    133507.29   -41303.823    2691.3966    -43995.22    47.753271   0.93548066 
   58100    217.81929   -423.49222    133393.35   -41232.599     2710.086   -43942.685    47.863439   0.93627972 
   58200    219.94254     -349.906     133442.3   -41188.897    2736.5033   -43925.401    47.718745   0.93593629 
   58300    224.98678   -424.16905    133499.19   -41128.943    2799.2632   -43928.206    48.028223   0.93553746 
   58400     217.9996   -352.37473    133592.58   -41129.459    2712.3295   -43841.789    48.226712   0.93488348 
   58500    221.38278   -409.57876    133449.45   -41137.054    2754.4226   -43891.477    48.202955   0.93588618 
   58600    224.55006   -487.90985    133554.27   -41102.215    2793.8297   -43896.045    48.331271   0.93515162 
   58700    223.82147   -501.07984    133379.85   -41102.991    2784.7646   -43887.755    48.320702   0.93637447 
   58800    220.73234   -303.12478    133440.64   -41149.825      2746.33   -43896.155    48.374593   0.93594793 
   58900    219.35826   -645.57304    133431.59   -41213.138    2729.2337   -43942.372    48.345153   0.93601139 
   59000    215.24528   -423.20543     133379.1   -41198.128    2678.0605   -43876.189    48.494465   0.93637974 
   59100    219.36457   -478.46605    133512.99   -41199.909    2729.3123   -43929.221    48.563755   0.93544075 
   59200    219.42391   -414.86116    133468.75   -41241.117    2730.0506   -43971.167     48.43751   0.93575084 
   59300    221.19662   -489.57703    133454.99   -41249.896    2752.1065   -44002.002    48.626512   0.93584727 
   59400     218.6795   -411.84704    133496.42   -41309.018    2720.7888   -44029.807    48.685344   0.93555686 
   59500     217.2104   -554.80299    133427.76   -41281.329    2702.5103    -43983.84    48.709859   0.93603826 
   59600    219.87188   -404.03591    133353.42   -41262.616    2735.6241    -43998.24    48.612402   0.93656006 
   59700    217.78612   -246.77179    133353.69   -41283.806    2709.6734    -43993.48    48.617489   0.93655818 
   59800    221.82212   -548.32707    133355.23    -41281.58    2759.8889   -44041.469     48.65906   0.93654735 
   59900     218.2137   -314.54231    133286.62   -41259.834    2714.9932   -43974.827    48.645273   0.93702946 
   60000    217.87088   -399.74191    133477.88   -41299.985     2710.728   -44010.713    48.967089   0.93568682 
   60100    219.37447   -387.64935    133533.78   -41261.339    2729.4355   -43990.775    48.939283   0.93529512 
   60200    221.47172   -507.32381    133666.61   -41231.368    2755.5292   -43986.898    49.048538   0.93436563 
   60300    224.05576   -508.99998    133459.81   -41203.248    2787.6797   -43990.928    48.993744   0.93581352 
   60400    223.75698   -461.65225    133477.46   -41163.371    2783.9622   -43947.333    49.053098   0.93568977 
   60500    224.49772   -398.20194    133475.07   -41193.209    2793.1785   -43986.388    49.085354    0.9357065 
   60600    220.46108   -503.98793    133605.98   -41245.181     2742.955   -43988.136    49.125286   0.93478966 
   60700    220.31896   -470.24328    133733.64   -41257.195    2741.1868   -43998.382    49.083131   0.93389736 
   60800    218.30342   -471.69129    133656.78   -41212.392    2716.1095   -43928.501    48.962573   0.93443442 
   60900    218.32381   -451.28134    133607.58   -41195.253    2716.3633   -43911.617    48.989404   0.93477845 
   61000     219.7983    -580.8542    133669.73    -41224.81    2734.7087   -43959.519    49.123334   0.93434385 
   61100    217.31038   -524.18065     133617.8   -41265.159    2703.7543   -43968.913    49.393082     0.934707 
   61200     215.3617   -607.87438     133609.6   -41259.565     2679.509   -43939.074    49.366336   0.93476432 
   61300    217.56143   -572.08889    133556.34     -41246.5    2706.8778   -43953.377    49.320667   0.93513712 
   61400    216.16498   -432.68385    133728.97   -41282.662    2689.5033   -43972.165    49.403935   0.93392993 
   61500     219.5889   -536.34931    133651.82    -41277.61    2732.1033   -44009.713    49.346825   0.93446905 
   61600    215.04172   -489.36828    133714.83    -41232.93    2675.5279   -43908.458    49.287616   0.93402875 
   61700    218.63688   -402.09801    133817.18   -41296.517    2720.2585   -44016.776    49.462977    0.9333143 
   61800     215.1747   -541.95063    133656.58   -41371.042    2677.1823   -44048.225     49.48193   0.93443575 
   61900    217.65563   -244.94725    133944.43   -41299.428    2708.0498   -44007.477    49.668547   0.93242766 
   62000    217.16868    -363.5433     134032.8   -41263.873    2701.9913   -43965.864    49.784504    0.9318129 
   62100    216.83875   -482.09582    134010.57   -41296.866    2697.8863   -43994.752    49.807343   0.93196748 
   62200     217.4405   -473.32832    133964.02   -41245.799    2705.3732   -43951.172    49.511098    0.9322913 
   62300    218.18658   -526.20317    133672.72   -41281.779    2714.6559   -43996.435    49.587318   0.93432293 
   62400    222.09403   -394.58418    133787.76    -41221.27     2763.272   -43984.542    49.757427   0.93351954 
   62500    222.38844   -508.68154    133853.22   -41239.948     2766.935   -44006.883    49.944103   0.93306302 
   62600     219.0189   -455.49628    133925.99   -41263.063    2725.0116   -43988.075    50.020917   0.93255602 
   62700    219.10179   -338.90235    134046.12   -41300.195    2726.0429   -44026.238    49.873388   0.93172033 
   62800     216.6285   -534.94738    134038.43   -41279.486    2695.2703   -43974.756    49.935404   0.93177377 
   62900     219.6132   -599.92628    134110.98   -41233.177    2732.4057   -43965.582    49.982977   0.93126967 
   63000    218.68698   -509.22132    134156.17   -41204.843    2720.8818   -43925.725    49.852212   0.93095598 
   63100    222.20198   -438.23661    134168.85   -41190.207     2764.615   -43954.822    49.862819   0.93086802 
   63200    223.29423   -374.87117    134235.95   -41221.764    2778.2048   -43999.969     50.31258   0.93040273 
   63300    217.52238   -474.66972     134138.5   -41257.178     2706.392    -43963.57    50.426486   0.93107861 
   63400    221.71675    -420.5129    134307.66   -41176.632    2758.5779    -43935.21    50.343842   0.92990594 
   63500    222.16786   -312.56647     134160.5   -41280.528    2764.1905   -44044.719    50.055272   0.93092595 
   63600     220.3885   -399.23434    134083.81   -41275.413    2742.0519   -44017.465    50.062101   0.93145838 
   63700    222.48568   -583.42372    134127.46   -41283.284    2768.1449   -44051.429     50.21879   0.93115525 
   63800    215.74981   -501.67825    134006.51    -41393.91    2684.3378   -44078.248    50.216317   0.93199572 
   63900    215.01735   -568.43712    133936.35   -41383.073    2675.2246   -44058.298    50.427679   0.93248388 
   64000    215.67865    -469.4807    133926.06    -41369.71    2683.4524   -44053.162     50.32033   0.93255554 
   64100    223.69282   -413.44059    133965.94   -41290.829     2783.164   -44073.993     50.07134   0.93227795 
   64200    219.49115   -473.82637     133962.6   -41280.495    2730.8872   -44011.383    50.266869   0.93230117 
   64300    222.34662   -351.86872    134049.57   -41189.671    2766.4147   -43956.086    50.239917   0.93169633 
   64400    222.18342   -398.67598    133841.95   -41210.373    2764.3842   -43974.757    50.363028   0.93314159 
   64500    223.86362   -502.72214    133921.62   -41197.268    2785.2891   -43982.557    50.524274   0.93258651 
   64600    219.06844    -433.5008    133778.36   -41255.628    2725.6279   -43981.256    50.400079   0.93358514 
   64700    221.30665   -462.37919     133779.1   -41259.389    2753.4755   -44012.865    50.593237   0.93357999 
   64800    220.78492   -431.04103     133881.1   -41268.954    2746.9841   -44015.938    50.613866   0.93286873 
   64900    219.79467   -326.10881    133826.69   -41246.474    2734.6635   -43981.137    50.435662   0.93324798 
   65000    222.43052   -360.62192    133851.62   -41211.842    2767.4585     -43979.3    50.669706   0.93307415 
   65100    224.41194   -345.18367    133724.86   -41242.152    2792.1111   -44034.263    50.507873   0.93395866 
   65200    218.88555   -488.28337    133627.73   -41228.577    2723.3524    -43951.93    50.435193   0.93463754 
   65300    219.71917   -493.71079    133450.49   -41219.283    2733.7241   -43953.007    50.382496   0.93587888 
   65400    226.10317   -371.70761    133476.62   -41153.254    2813.1533   -43966.407    50.460562   0.93569561 
   65500    220.07489   -390.03036    133528.03   -41214.502    2738.1501   -43952.652    50.581108   0.93533539 
   65600    220.04617   -466.14778    133487.04   -41238.485    2737.7927   -43976.278    50.773625   0.93562258 
   65700    217.50615   -349.34138    133656.16   -41286.779      2706.19   -43992.969    50.612334   0.93443873 
   65800    217.89845   -569.10891    133721.96    -41294.11    2711.0709   -44005.181    50.500794   0.93397893 
   65900    218.81955   -511.34054     133716.8   -41261.146    2722.5312   -43983.677    50.634316   0.93401493 
   66000    220.03019   -455.67717    133706.54   -41154.761    2737.5939   -43892.355    50.771954   0.93408664 
   66100    222.40741   -511.00503    133672.73   -41117.175     2767.171   -43884.346    50.689478   0.93432289 
   66200    223.52569   -528.17893    133597.03   -41096.917    2781.0845   -43878.001    50.795909   0.93485228 
   66300    223.59551   -328.13068    133680.95   -41136.684    2781.9532   -43918.637    50.687017   0.93426541 
   66400    218.33854   -327.82287    133648.88   -41182.867    2716.5466   -43899.414    50.699115    0.9344896 
   66500    222.45596   -390.72774    133733.53   -41208.128     2767.775   -43975.903    50.837241   0.93389808 
   66600    219.27814   -467.57524    133741.66   -41220.966    2728.2369   -43949.203    50.880538   0.93384136 
   66700    217.55698    -510.3737    133691.35   -41244.866    2706.8224   -43951.688     50.90966   0.93419277 
   66800     219.4391   -440.48082    133610.21   -41180.568    2730.2395   -43910.807    50.947759    0.9347601 
[...]
   84600    214.52507   -543.92863    133798.28   -41267.521    2669.0997    -43936.62    58.613322   0.93344616 
   84700    219.76425   -396.10583    133820.25   -41281.533     2734.285   -44015.818    58.752831   0.93329293 
   84800    218.63995   -376.01847     134039.1   -41250.222    2720.2967   -43970.519    58.762645   0.93176911 
   84900    215.00235   -405.88957    133949.05   -41225.356     2675.038   -43900.394    58.932718    0.9323955 
   85000    217.85359   -507.25586    133943.86   -41165.345    2710.5128   -43875.858    59.017544   0.93243161 
   85100    221.10871   -334.44545    133825.69   -41163.823    2751.0127   -43914.836    58.988769     0.933255 
   85200    220.09878   -499.11048    133778.29   -41167.856    2738.4472   -43906.303    59.178036   0.93358562 
   85300    217.71959   -403.41842     133942.9   -41209.069    2708.8456   -43917.914    59.156302   0.93243828 
   85400    215.68936   -608.30904    133839.95   -41191.152    2683.5857   -43874.738    59.055897   0.93315552 
   85500    223.07007   -463.66022    133760.52   -41166.322    2775.4157   -43941.738    59.037594   0.93370969 
   85600    218.94276   -328.55015     133696.9   -41136.537    2724.0641   -43860.602    59.165372     0.934154 
   85700    220.64541   -640.83428    133688.98   -41181.588    2745.2484   -43926.836    59.042991   0.93420933 
   85800    216.52499   -374.63395     133775.7   -41179.117    2693.9826     -43873.1    59.270552   0.93360372 
   85900    223.39001   -499.43747    133681.64   -41080.282    2779.3964   -43859.678    59.550381   0.93426061 
   86000    223.43574    -331.4302    133603.53   -41129.911    2779.9654   -43909.876    59.458987   0.93480679 
   86100    224.89344   -328.87033    133773.45    -41136.49    2798.1019   -43934.592    59.421976    0.9336194 
   86200    224.46305   -432.71421    133721.18   -41131.692    2792.7471   -43924.439    59.418123   0.93398435 
   86300    222.75991   -409.47986    133863.38   -41171.948    2771.5568   -43943.504    59.551037    0.9329922 
   86400    222.42821   -343.65781    134048.23    -41192.97    2767.4298     -43960.4    59.491763   0.93170565 
   86500    220.44966   -518.91965    133995.86   -41189.246    2742.8129   -43932.059    59.628713   0.93206974 
   86600    224.97998   -386.67406    134058.55   -41132.487    2799.1786   -43931.666    59.429208   0.93163391 
   86700    221.91101   -420.43449    134047.36   -41120.538    2760.9949   -43881.533    59.542449   0.93171167 
   86800    222.48075   -433.74119    134137.88   -41195.185    2768.0835   -43963.269      59.6894   0.93108291 
   86900    219.89054   -476.15492    134198.13    -41165.08    2735.8564   -43900.937    59.621466   0.93066494 
   87000    219.31814   -438.43313    133999.59   -41169.034    2728.7346   -43897.768    59.691115   0.93204381 
   87100    214.34391   -314.41685    134080.09   -41192.936    2666.8457   -43859.782     59.92707   0.93148425 
   87200    218.20261   -398.50392    134045.41   -41162.852    2714.8553   -43877.707     59.81783   0.93172527 
   87300    221.67605   -499.48287    134094.63   -41155.823    2758.0715   -43913.895    59.787593   0.93138326 
   87400    220.59272   -496.58385    134137.39   -41163.115    2744.5928   -43907.708    59.935187   0.93108637 
   87500    216.97163   -512.97866    133959.14   -41177.282    2699.5396   -43876.822    60.086105   0.93232524 
   87600    215.18395   -512.34531    134029.09   -41182.595    2677.2975   -43859.892    60.108417   0.93183866 
   87700    215.91706   -455.53702    133955.61   -41190.851    2686.4187    -43877.27    60.027971   0.93234987 
   87800    219.17208   -337.31326    134097.01    -41164.06    2726.9174   -43890.977    60.242063   0.93136668 
   87900     216.3013   -395.72885    134039.49   -41178.987    2691.1993   -43870.186    60.401811   0.93176641 
   88000    215.94621   -395.58084    134117.19   -41202.231    2686.7814   -43889.013     60.33798   0.93122658 
   88100    224.49265   -539.43892    134208.87   -41137.621    2793.1154   -43930.736    60.338655   0.93059046 
   88200    224.22878   -414.11013    134094.25   -41127.774    2789.8323   -43917.606    60.302274   0.93138591 
   88300    219.03648    -411.9492    134000.92     -41165.2    2725.2303    -43890.43    60.249332   0.93203456 
   88400    223.03537   -311.22505    134115.47   -41273.794    2774.9841   -44048.778    60.293086   0.93123852 
   88500    219.88855   -654.59292    134173.17   -41162.626    2735.8316   -43898.457    60.539273   0.93083803 
   88600    222.09025   -446.39898     134129.1   -41117.121    2763.2249   -43880.346    60.830168   0.93114387 
   88700    222.72134   -496.80166    134152.04   -41100.161    2771.0769   -43871.238    60.925931   0.93098465 
   88800    226.34689   -486.36091    134101.78   -41028.911    2816.1856   -43845.097    60.940585   0.93133357 
   88900     221.1827   -468.91868    133968.22   -41085.769    2751.9333   -43837.703    60.748522    0.9322621 
   89000    226.91578   -380.01918    134009.39   -41080.829    2823.2637   -43904.093    60.692821    0.9319757 
   89100    217.52351   -281.35732    134060.73   -41170.382     2706.406   -43876.788    61.023224   0.93161879 
   89200    217.42931   -553.22275     134157.3    -41205.61    2705.2339   -43910.844    61.163789   0.93094818 
   89300    216.73999   -461.61184    133967.14   -41223.866    2696.6576   -43920.523    61.094943   0.93226958 
   89400    220.67167   -568.45304    133892.86   -41268.882     2745.575   -44014.457     61.08396   0.93278681 
   89500    215.98887   -546.85485    133878.66   -41304.378    2687.3122    -43991.69      60.9326   0.93288571 
   89600    213.83884    -548.6078    133870.16   -41342.888    2660.5618    -44003.45    61.114219   0.93294496 
   89700    215.98549   -490.36829    134070.12   -41302.459    2687.2701   -43989.729    61.400324   0.93155348 
   89800    216.35603    -395.2816    134086.49   -41261.794    2691.8803   -43953.674    61.442886   0.93143977 
   89900    213.86827   -441.49747     134033.4   -41316.285    2660.9279   -43977.213    61.394985    0.9318087 
   90000    217.99482   -413.64322    134071.93   -41226.238      2712.27   -43938.508     61.38732   0.93154092 
   90100    216.66457   -591.92988    134011.54   -41243.369    2695.7191   -43939.089    61.671322   0.93196074 
   90200    220.30927   -297.68889    133966.56   -41287.986    2741.0662   -44029.052    61.623174   0.93227364 
   90300    216.51073   -424.00349    133895.14   -41290.159    2693.8051   -43983.964    61.795479   0.93277089 
   90400    218.91314   -610.47305    133962.59   -41280.404    2723.6957     -44004.1    61.634431   0.93230129 
   90500    214.59542   -458.62554    133862.77   -41247.539     2669.975   -43917.514    61.446015   0.93299646 
   90600     219.0856    -381.6492    133795.55   -41138.637    2725.8414   -43864.479    61.528662   0.93346522 
   90700    222.22518   -409.25373    133951.53   -41131.816    2764.9037    -43896.72    61.498382   0.93237827 
   90800    216.69563   -522.78351    133988.88   -41164.726    2696.1056   -43860.832      61.6653   0.93211835 
   90900     220.9647   -406.07674    133944.46   -41268.919     2749.221    -44018.14    61.751257   0.93242747 
   91000    219.37516   -508.41916    133999.68   -41288.785    2729.4441   -44018.229    61.973408   0.93204318 
   91100    217.09394    -436.4312    133938.29   -41278.703    2701.0614   -43979.764    61.854668    0.9324704 
   91200    218.73797    -450.4222    133951.79   -41246.429    2721.5162   -43967.945     61.70438   0.93237644 
   91300     221.7615   -478.80759    133901.31   -41144.931    2759.1346   -43904.065     61.73195   0.93272794 
   91400    222.28416   -395.85261    134049.83   -41111.579    2765.6375   -43877.217    61.817367   0.93169453 
   91500    224.40105   -481.84775    133972.49   -41130.345    2791.9756   -43922.321    62.084605   0.93223239 
   91600    222.61596   -601.72931    134019.15   -41170.337    2769.7658   -43940.103    62.072385   0.93190779 
   91700    217.92785   -441.48039    133816.16   -41236.812    2711.4368   -43948.249    61.832578   0.93332144 
   91800    218.23716   -504.37107     133922.4   -41205.179    2715.2852   -43920.465    62.303731   0.93258102 
   91900    220.81727   -476.50558    133976.94   -41211.332    2747.3866   -43958.719    62.455224   0.93220139 
   92000    217.37714   -434.61155    134045.12   -41210.976    2704.5849   -43915.561    62.520016   0.93172727 
   92100    219.57241   -497.42927    133960.93   -41251.079    2731.8982   -43982.978    62.621294   0.93231284 
   92200    220.53502   -302.50136    133942.28   -41195.571     2743.875   -43939.446     62.51222   0.93244261 
   92300    221.04284   -433.93753    134091.28   -41101.092    2750.1931   -43851.286    62.653513   0.93140654 
   92400    224.47429    -480.7922    133960.84   -41107.125    2792.8869   -43900.012    62.574295   0.93231343 
   92500    217.43523    -332.9675    134140.31   -41149.054    2705.3076   -43854.362    62.759357   0.93106604 
   92600    220.99172   -542.30126     134130.4   -41130.147    2749.5571   -43879.704    62.720326   0.93113488 
   92700    219.96543    -439.9972    134026.11   -41123.095    2736.7881   -43859.883    62.668002   0.93185942 
   92800    220.55796   -465.59172    133851.46   -41168.117    2744.1604   -43912.278    62.924591   0.93307531 
   92900     224.0911    -398.4023    133839.18    -41133.33    2788.1193   -43921.449    62.927987   0.93316094 
   93000     219.0917   -587.62542    133825.03   -41165.608    2725.9173   -43891.525    62.830007   0.93325958 
   93100    220.73336   -625.87395    133782.46   -41093.965    2746.3427   -43840.308    62.838611   0.93355654 
   93200    222.56127   -482.41972    133738.93   -41109.761    2769.0853   -43878.847    62.949025   0.93386038 
   93300    221.77075   -374.19608    133769.33   -41139.078    2759.2498   -43898.327    62.836729   0.93364817 
   93400     219.7975   -389.95518    133702.02    -41185.31    2734.6987   -43920.009    62.703236   0.93411819 
   93500     218.9084   -268.60727    133531.85   -41230.108    2723.6366   -43953.745    62.640558   0.93530864 
   93600     218.8528   -460.86065    133649.91    -41298.39    2722.9449   -44021.335    62.844802   0.93448245 
   93700    216.97306   -411.70739     133627.7   -41268.216    2699.5573   -43967.773    62.988747   0.93463773 
   93800    218.07675   -451.09745    133725.93   -41244.177    2713.2894   -43957.466    63.216561   0.93395119 
   93900    218.53017   -547.67188     133658.8   -41224.483    2718.9307   -43943.414    63.291555   0.93442027 
   94000    220.61602   -294.03144    133814.47   -41234.133    2744.8828   -43979.015    63.116744   0.93333323 
   94100    217.51815   -468.21787    133820.61   -41233.998    2706.3393   -43940.337     63.11215   0.93329039 
   94200     220.0698   -461.04329    133854.71    -41229.43    2738.0867   -43967.517    63.166964   0.93305262 
   94300    225.33337   -329.81951    133730.89   -41183.981    2803.5755   -43987.557    63.252532   0.93391653 
   94400    221.21709   -388.68289    133727.64   -41183.882    2752.3612   -43936.243    63.403126   0.93393926 
   94500    223.51195   -517.45831     133620.7   -41116.277    2780.9136   -43897.191    63.386625   0.93468667 
   94600    221.17024   -515.29368    133612.66   -41159.761    2751.7783   -43911.539    63.392066   0.93474295 
   94700    220.99353   -562.17646    133606.86   -41190.977    2749.5796   -43940.557    63.605485   0.93478354 
   94800    219.41594   -443.79978    133612.49   -41187.743    2729.9514   -43917.694     63.63846   0.93474416 
   94900    220.54341   -337.06465    133518.31   -41161.586    2743.9793   -43905.566    63.522101    0.9354035 
   95000    222.23655   -433.11847    133396.79   -41134.222    2765.0452   -43899.267    63.478935   0.93625559 
   95100    221.60004   -417.27984    133418.99   -41133.092    2757.1258   -43890.218    63.538752   0.93609978 
   95200    222.69677   -478.55138    133490.29   -41151.348    2770.7712   -43922.119    63.757109   0.93559982 
   95300    222.45046   -379.05407    133541.41   -41051.274    2767.7066   -43818.981    63.814016   0.93524169 
   95400     217.9776   -505.59365       133537   -41112.959    2712.0558   -43825.015     63.65311   0.93527257 
   95500    222.17204   -387.19466    133581.02   -41106.002    2764.2426   -43870.244    63.840224   0.93496437 
   95600    217.12568   -509.13321    133489.84   -41089.772    2701.4562   -43791.228    63.671736   0.93560299 
   95700    220.89608   -267.93278    133385.77   -41141.652    2748.3672    -43890.02    63.868699   0.93633292 
   95800    217.18221   -485.67781    133336.04   -41201.591    2702.1596    -43903.75    63.853205    0.9366822 
   95900    220.66961   -474.24733    133388.01   -41147.712    2745.5495   -43893.262    63.985927   0.93631723 
   96000    218.95421   -314.51115    133280.57   -41229.228    2724.2066   -43953.435    64.125039   0.93707204 
   96100    218.86429   -503.64281    133359.75   -41191.371    2723.0879   -43914.459    64.052836    0.9365156 
   96200    219.61895   -534.45997    133256.69   -41251.831    2732.4773   -43984.308    64.163616   0.93723992 
   96300    221.94164   -559.84535    133407.07   -41183.526     2761.376   -43944.902    64.246813   0.93618347 
   96400    220.36303   -443.94406    133309.57   -41172.938     2741.735   -43914.673     63.92109   0.93686819 
   96500    219.94945   -508.77756    133311.96   -41217.262    2736.5894   -43953.852    63.971671   0.93685133 
   96600    220.52865   -461.84058    133266.89     -41205.1    2743.7957   -43948.895    64.001764   0.93716817 
   96700    216.73649   -285.32732    133337.46    -41280.75     2696.614   -43977.364    63.943482   0.93667217 
   96800    217.96976   -465.30397    133528.74   -41331.799    2711.9582   -44043.758    63.990083    0.9353304 
   96900    213.18419   -394.49796    133399.92   -41265.029    2652.4167   -43917.445    64.238366   0.93623361 
   97000    215.37793   -580.59795    133556.27   -41256.417    2679.7109   -43936.128    64.405336   0.93513758 
   97100    217.37916   -525.06206     133512.5   -41251.643      2704.61   -43956.253    64.326054   0.93544419 
   97200    215.99082   -349.75283    133445.65   -41254.673    2687.3364   -43942.009    64.042838   0.93591282 
   97300    214.72032   -431.03043    133365.05   -41250.206     2671.529   -43921.735    64.047394   0.93647841 
   97400    215.10262   -329.55824    133524.96   -41245.413    2676.2856   -43921.698    64.289109   0.93535687 
   97500    221.14482   -447.35512    133519.41    -41159.44     2751.462   -43910.902    64.413765   0.93539577 
   97600    220.94884   -494.29266     133381.3   -41230.239    2749.0236   -43979.263    64.208439    0.9363643 
   97700    218.67035   -412.98583    133376.59   -41156.977    2720.6749   -43877.652     64.49379    0.9363974 
   97800    222.79771   -423.02008    133450.79   -41140.617     2772.027   -43912.644    64.652959   0.93587674 
   97900     224.9574   -375.92172    133456.54   -41105.953    2798.8977    -43904.85    64.516692   0.93583641 
   98000    227.23904   -239.60621     133452.3     -41133.8    2827.2857   -43961.086    64.438896   0.93586615 
   98100    225.11432   -441.57882    133573.78   -41218.249    2800.8501   -44019.099    64.469305   0.93501505 
   98200    216.63229   -501.75752    133394.73     -41190.5    2695.3175   -43885.817     64.40316   0.93627006 
   98300    216.23939   -412.88722    133457.62   -41199.997    2690.4291   -43890.427    64.602876   0.93582888 
   98400    219.57054   -382.73166    133577.94   -41213.895    2731.8749    -43945.77    64.975336   0.93498589 
   98500    220.77476   -454.47281    133853.08   -41226.457    2746.8578   -43973.315     65.09368   0.93306401 
   98600    221.70852   -538.40817    133770.32   -41275.591    2758.4754   -44034.066    65.095009   0.93364129 
   98700    212.13897   -462.62361    133699.69    -41337.26    2639.4121   -43976.672    64.975273   0.93413449 
   98800    213.29942   -559.53507    133806.14   -41301.947    2653.8503   -43955.798    65.057031   0.93339135 
   98900    215.79374   -505.75975    133728.67   -41309.477    2684.8843   -43994.362     65.09721   0.93393207 
   99000    213.63021    -567.5975    133737.18    -41343.07     2657.966   -44001.036    65.210016    0.9338726 
   99100    219.44263    -333.5222    133685.67   -41252.378    2730.2835   -43982.662    65.384936   0.93423245 
   99200     218.8334   -436.51836     133840.1   -41251.658    2722.7035   -43974.362    65.601279   0.93315453 
   99300    221.43008   -408.29554    133679.61    -41202.85    2755.0111   -43957.861    65.555751   0.93427477 
   99400    225.08344   -422.85079    133749.42   -41181.792    2800.4659   -43982.257    65.502991   0.93378715 
   99500    223.35519   -478.89792    133691.56   -41067.335    2778.9632   -43846.299    65.240312   0.93419131 
   99600    222.78038   -582.22026    133716.27   -41103.959    2771.8114   -43875.771    65.351123   0.93401865 
   99700    224.17716   -530.97632    133630.32   -41119.761      2789.19   -43908.951    65.627156   0.93461942 
   99800    219.91987    -635.4496    133621.69   -41147.836    2736.2213   -43884.058    65.671028   0.93467974 
   99900    220.08737   -411.87752    133484.67   -41208.253    2738.3053   -43946.558    65.694388   0.93563921 
  100000    216.38985   -469.62237    133480.44   -41218.512    2692.3012   -43910.813    65.701976   0.93566884 
  100100    223.49804   -407.03881    133457.71   -41144.813    2780.7405   -43925.553     65.54416   0.93582822 
  100200    219.83603   -508.44594    133551.84   -41161.463    2735.1782   -43896.641    65.752276   0.93516862 
  100300    225.20116   -478.71594    133595.96   -41142.534    2801.9306   -43944.464     65.65023    0.9348598 
  100400    219.81393   -334.98665    133768.76   -41172.341    2734.9032   -43907.244    65.898537   0.93365213 
  100500    225.23701   -345.37728    133849.19   -41101.649    2802.3766   -43904.025    65.933072    0.9330911 
  100600       222.44   -383.26408    133907.53   -41188.501    2767.5764   -43956.078    65.918792   0.93268461 
  100630    224.61539   -363.14403     134001.5    -41175.11    2794.6424   -43969.753    65.955916   0.93203052 
Loop time of 76.2095 on 6 procs for 100000 steps with 4175 atoms

Performance: 566.858 ns/day, 0.042 hours/ns, 1312.172 timesteps/s
98.4% CPU use with 6 MPI tasks x no OpenMP threads

MPI task timing breakdown:
Section |  min time  |  avg time  |  max time  |%varavg| %total
---------------------------------------------------------------
Pair    | 56.508     | 61.072     | 62.717     |  27.8 | 80.14
Neigh   | 4.9258     | 4.984      | 5.0289     |   1.5 |  6.54
Comm    | 5.9052     | 7.6155     | 12.23      |  79.9 |  9.99
Output  | 0.16084    | 0.16162    | 0.16514    |   0.4 |  0.21
Modify  | 1.7416     | 1.7565     | 1.7721     |   0.9 |  2.30
Other   |            | 0.6199     |            |       |  0.81

Nlocal:        695.833 ave         714 max         687 min
Histogram: 1 2 1 0 1 0 0 0 0 1
Nghost:        1466.17 ave        1481 max        1452 min
Histogram: 1 1 1 0 0 1 0 0 0 2
Neighs:        0.00000 ave           0 max           0 min
Histogram: 6 0 0 0 0 0 0 0 0 0
FullNghs:      18943.3 ave       19602 max       18510 min
Histogram: 1 0 1 2 0 1 0 0 0 1

Total # of neighbors = 113660
Ave neighs/atom = 27.223952
Neighbor list builds = 5432
Dangerous builds = 0

undump              1
unfix               2
unfix               3
unfix               4


################################################
#######         Run Simulation         #########
################################################

reset_timestep      0
log                 log.run_${NAME}
log                 log.run_liquid_density_MLmW
