LAMMPS data file via write_data, version 29 Oct 2020, timestep = 800000

4175 atoms
1 atom types

-0.14685193478741354 50.14685193478517 xlo xhi
-0.14685193478741354 50.14685193478517 ylo yhi
-0.14685193478741354 50.14685193478517 zlo zhi

Masses

1 18.015

Atoms # atomic

2966 1 0.6216532523696503 1.0381049051467017 3.1921569152576468 2 1 1
2421 1 5.065088770852234 0.8878052814191375 5.296967830413081 1 1 0
1354 1 5.819356861166029 1.8595385071646704 1.8213059823836921 0 1 0
4094 1 32.68445252154834 24.271943600527884 4.255790752135332 0 0 1
1585 1 9.276585753279425 2.5180403443415584 4.374771583722767 0 0 0
4040 1 11.639105129981195 2.1015860186725654 2.5776014037399575 1 1 1
1883 1 22.046387761697748 24.74108595458083 12.331824500257877 1 0 1
3814 1 31.09396175191291 8.197761321043428 0.5246627203216261 0 1 1
2264 1 25.519117232692047 4.100731685375435 0.9835373377246635 0 1 -1
1098 1 24.576095816597693 0.9244570755052668 1.106424232134889 0 1 0
3217 1 4.272915868912978 4.1227293198128105 2.6719382709717228 1 0 1
2815 1 46.757171404076615 0.3077331044189786 2.3705152918340495 0 0 0
1371 1 21.41693073092834 14.500410720206348 1.1055704230555405 1 1 1
1096 1 42.50822559317645 5.461616259691482 0.31691323688733014 0 1 0
1779 1 47.54039389020959 3.369810213626545 3.0767715334102297 -1 1 1
3993 1 28.826574574017393 24.74367799090757 13.27287745158806 0 1 1
2495 1 44.32791386739043 3.929045919385011 3.169743909197521 0 0 0
716 1 49.522786424663195 0.4009186016854872 0.7309522867768781 0 1 0
2441 1 2.632682004077816 1.403775502873827 0.6046738424180221 0 0 0
3224 1 1.503415089992917 3.6758734438472818 2.587229423331989 1 1 0
1278 1 2.3589064882830373 14.399243556635097 0.5517986063489365 0 0 0
1656 1 4.823849535886212 3.6620939983874137 5.696506400097484 0 0 1
1908 1 10.32652987671843 4.226027737777693 6.485739334725502 0 0 0
1653 1 12.220056445990487 5.366489424315989 4.475225693519654 0 0 1
3946 1 10.86733143271866 4.981399560172109 1.969560865275818 0 1 1
3390 1 15.09309616019736 6.966122483433124 0.5462403982871759 0 1 0
1466 1 20.282669060005798 4.805615823905424 2.338903404488925 1 0 0
2133 1 6.756537399976784 5.4933047017995955 0.7055108558983095 1 1 0
1696 1 23.841103584668605 6.911048512186437 1.356086379626298 0 0 1
1286 1 29.21576657330431 6.295399043286144 1.565113339631 0 0 0
1577 1 27.4165082234664 3.9998917967536176 3.3350382066965296 0 1 1
1126 1 31.25265192089936 1.4537750505062719 5.54110035354322 -1 0 1
3737 1 31.670199234458288 3.438527378052902 3.3515036622180814 0 1 1
2034 1 37.165289577268936 1.6520292437648816 0.08469102657150593 0 0 1
846 1 4.03603065539588 5.549491176831587 0.020776150045470038 0 -1 1
2048 1 13.171286029909293 4.291407294340417 0.4203221031559391 0 0 0
1742 1 43.5823478999741 1.0476567742020626 2.3298383424891544 0 0 1
2385 1 27.89475479968775 1.195739722099869 2.9827626189266154 -1 1 0
3792 1 49.545687824982984 4.883168998050316 1.6455206453172782 0 1 1
2695 1 15.278093693047811 18.56437939054737 1.3186503598154786 0 1 -1
1303 1 5.744248327083474 9.557283168650395 1.3396477171502748 0 1 0
827 1 6.728335626696438 7.448535963742815 2.879754695786242 0 0 1
3744 1 10.007650923482776 7.316596024015669 1.1687466417918058 0 1 0
4037 1 12.25958654480897 9.216975452438987 2.1320807277812324 1 0 0
2903 1 9.246941079127994 20.86101425430202 16.251625570688457 0 1 0
2993 1 19.06138306417127 8.96665310667505 1.3606234867815028 1 0 1
575 1 25.02227554390849 1.8517645747932614 3.952662953055735 0 1 0
1627 1 26.85661787835185 10.4038257236067 0.4884847885602255 0 0 1
1345 1 32.36262821485006 5.52216455640992 0.769124501306147 0 1 2
1304 1 34.125644633800306 17.111734837751314 0.18825103766242313 0 0 1
2180 1 36.735526947240665 7.66553837017773 2.725880130791523 0 0 0
248 1 36.241831713228684 7.056346588564991 5.310788091616506 0 0 0
3798 1 39.401703488942374 7.209545162561569 1.659013891630737 -1 0 1
1501 1 43.6597847866488 7.074745589696139 2.62693511074012 0 1 1
2403 1 41.700278364903966 8.742096572726151 1.5773405060367733 -1 0 0
2894 1 7.077368581039211 16.19301231550444 0.19752684485763583 1 1 0
2844 1 44.58887219571079 9.713231047001921 4.326213874450965 -1 1 0
3751 1 32.847396860865004 22.303406039319587 0.4394775776956261 0 1 1
859 1 2.5786331576279924 11.269093744442875 1.1769474929680632 1 0 1
3490 1 6.056244831626467 12.42337139648741 2.0992270440979532 0 0 1
1870 1 25.919239291121897 22.412990250893433 1.2054256236524068 1 -1 1
890 1 8.931052781381867 11.879289435177133 1.580623007276672 1 0 1
3549 1 11.706137730292413 11.991832676251832 2.795177466411391 0 0 1
4058 1 20.817921989797373 12.13979199637388 2.627599540487816 1 1 1
2674 1 23.033546490427433 10.721304636670016 1.9390225108250658 0 1 1
2116 1 27.179868003954308 9.902249855646986 2.963495389406548 0 -1 1
1729 1 24.617898313321653 12.202753935838905 0.08577292169673734 0 -1 2
2503 1 31.03365946908859 12.002653955256909 2.8015066426125266 -1 1 0
1635 1 32.48788259898092 9.415542518257856 2.5547168410249035 0 0 0
370 1 36.36142155507938 24.56202014218676 0.5787439354690008 0 0 0
3559 1 45.6570298745146 9.201690978088195 1.554074355434807 0 1 1
3392 1 46.60610958458596 12.67065833865483 2.328290646015161 0 1 1
4054 1 46.4555538670404 24.262874507730636 2.2807957975595214 -1 0 1
115 1 5.034242092722665 14.132283097446859 0.1911977942998695 -1 0 0
2881 1 14.448157533501464 1.8074226535516347 0.30565253419861677 0 0 1
2813 1 13.8549352888478 12.736790284722725 1.3534473924550787 0 1 0
1714 1 17.58350901270629 15.999653720103868 1.1988523012942363 0 1 1
2197 1 16.47705223230916 12.74014926997894 2.6565941809044102 0 0 -1
568 1 21.38557320220349 13.937240676480457 4.752780968260788 1 0 1
2924 1 20.799280657259548 1.6537617041167576 1.0379802411291146 0 0 1
69 1 25.52939833298557 14.713576403523096 1.2174779333656058 0 0 0
2643 1 29.63760909021369 15.63620411674222 3.6669345000935505 0 1 0
740 1 20.382183623264464 22.95527548334137 0.07963782078907439 0 0 1
1469 1 34.644663971845524 13.02334568581581 2.246443644902179 -1 0 1
2167 1 38.04748741657228 12.492796988543043 1.1849024225095381 -1 1 0
699 1 44.14224402826763 24.168087161647918 0.38028113711731515 0 0 -1
2395 1 43.35118097194604 15.525531498728391 0.8959683512269159 0 1 0
2707 1 44.40653711877559 13.889206573244868 3.849947264594324 0 0 0
2273 1 40.789344059422874 0.3002251245437002 1.6137658479630332 0 1 0
1963 1 48.16567124007456 14.992156059056995 2.122605078824112 0 0 0
613 1 21.871612816417162 8.700497655369448 0.366582719253185 0 0 0
3294 1 2.768207957115421 17.179333099225456 1.3781846857691666 0 0 0
2482 1 5.23790183078035 18.222973239815545 0.17137182464927492 0 0 0
1315 1 7.662198947789137 16.311166736686502 2.9831703348349627 0 -1 0
152 1 10.833327174489433 16.16426722717045 1.3919285793442708 1 0 1
3207 1 13.351651120538154 15.367886726151761 2.013827865745971 0 1 1
3048 1 35.221944930904 5.705320306022359 1.5378549389110314 -1 0 1
2232 1 15.521738843551041 22.961373814444467 1.0889291839674267 0 0 0
3479 1 5.842572986781305 24.07968092314167 4.7011264361947545 0 0 1
2253 1 23.490714977418737 16.160118003372563 2.6976142793490054 0 1 0
3076 1 1.8328417239182 2.354080623617232 14.165335025719907 0 1 0
435 1 34.962562687725736 17.957652245282063 2.6296487498077727 0 0 0
468 1 44.99618085322368 20.270666797659864 16.402780920595397 -1 -1 1
3870 1 13.463190595328587 5.309343753263264 14.774390798697507 0 1 1
1025 1 45.11999598655626 16.38409834304498 2.7584615543518956 0 1 1
2053 1 47.40228159527083 17.63372003540059 1.0760827128920736 -1 -1 1
2975 1 1.1012715129264616 19.298970115598035 0.6510590232380713 1 1 0
30 1 2.6475554721134076 21.609234059703784 1.6812446407750232 2 0 1
3762 1 6.660426552309414 19.72225738773029 2.245685368077803 -1 0 0
437 1 11.56774133562494 18.740499850221447 2.6082649240411686 -1 1 0
3862 1 20.295532206017953 0.9310690693287944 11.383743770136714 0 0 1
490 1 48.106832245887006 23.686951000905864 4.813205091675664 0 0 0
2396 1 34.87567252159082 0.09139468208917345 10.798040110928042 0 1 0
2449 1 21.79276747942308 20.735696961003423 1.686829755696738 -1 0 -1
2984 1 25.418562994612746 21.098165806503093 3.524057023456151 0 0 0
991 1 27.020334797410857 18.906224069460645 2.755850499423825 0 0 0
231 1 28.435672751158997 20.726019873907543 1.2356497122452061 0 0 1
2459 1 31.24936627106701 20.325283916061604 1.7072112233029997 -1 0 0
933 1 37.15282654428951 19.91746271051097 0.37986522015589275 -1 -1 1
62 1 41.33110815809223 20.543675083995502 1.0203955459047656 -1 0 0
430 1 16.392679718457234 1.324165350100516 2.499422894820486 -1 1 0
3164 1 44.89777325877022 19.38926979813068 2.6203459340465156 -1 0 0
2118 1 48.82409093244451 20.045330103182877 1.7958291065545484 0 -1 0
3414 1 46.24842059196888 24.672335351682595 7.301202786768578 1 0 1
1394 1 6.816197485386548 23.90201585709726 1.9664805167868509 0 0 1
193 1 9.633548481112111 22.953507415560843 2.007941508310071 0 0 1
3855 1 12.161971829281162 21.540258974412293 2.068287115373681 0 0 1
1458 1 14.013826801991353 22.610480541854734 3.603228637875789 1 -1 0
1000 1 41.40297849318289 17.458212366905215 16.307300938705342 0 1 1
606 1 31.60111529670675 24.62988339526623 1.482328125609358 0 0 0
2300 1 18.669642731464908 21.220025934729076 3.4313213941818708 0 0 0
387 1 8.590177705143706 3.458499209353118 1.3720178267690113 0 0 0
1495 1 40.707448018095675 12.493342450886507 0.07542002402403802 0 0 1
72 1 17.869023491591367 0.014206623357528536 11.933206620160767 0 0 0
2846 1 29.140575964549253 23.5346289363367 2.0043073504436895 0 1 0
2216 1 27.778735583505593 0.2223211519602975 9.299481446370699 0 1 0
3687 1 34.78710560434508 23.02555679899971 2.3133336979518675 0 0 1
3428 1 46.14140752433432 19.818722678061196 14.036662894495384 -1 1 0
3651 1 31.48682271609349 17.789851184757413 0.406376075026197 0 1 1
2036 1 39.394855429232415 22.12937123648199 2.010861806966839 0 0 1
909 1 22.722163078403423 22.974519336763336 15.261478122841044 0 -1 0
3957 1 38.48739913104187 5.680821435414407 16.27675387968914 -1 1 1
2954 1 14.173717302946935 21.895557875253104 15.921441403406106 0 0 0
327 1 49.45528917716257 1.8390674346895919 5.428988254422203 0 0 1
2257 1 2.941497750259093 0.1007276575079114 6.976006569850957 1 0 0
2826 1 24.061266801781002 15.393196860464359 16.15942079663792 0 1 1
2981 1 10.103595732875299 24.797064801316598 5.970803168290115 1 0 0
3137 1 25.265015329361216 17.942980971985083 0.8791004145625043 -1 1 0
2440 1 15.054591813128242 2.572519628560002 7.557204440592825 1 1 0
842 1 17.819837962902668 0.5545850976214931 4.757478983178395 0 0 0
1319 1 0.3554179352985829 24.08422697580279 12.469082613270341 1 0 -1
1757 1 21.924924367338807 1.4576672964901674 3.51292583046982 0 1 0
4067 1 23.19809864969329 4.176458975306837 3.1391260455394616 0 1 1
3972 1 -0.08485286106268058 10.426984429224285 1.1167231783559646 1 1 1
705 1 16.879499836841354 4.340845898075448 0.687151634533993 0 1 -1
3477 1 34.82846544460358 2.875185079398672 2.6700612182177776 0 1 0
1987 1 39.34939646144739 0.45735309737840035 5.5949361602899685 0 0 1
3196 1 39.54399146230638 2.456952486524882 3.5246298065020603 0 1 1
1239 1 43.635672043460204 1.2490897452220637 6.078650491486401 -1 1 1
3320 1 41.76440935485242 4.443604552640926 4.255348342757804 0 1 1
3916 1 17.88646623820497 21.54393695973121 0.8046128132833101 0 0 0
241 1 4.221186106997813 6.759881341248618 4.324257110754008 0 0 0
2434 1 2.3624609007925033 2.940319523001184 7.491063823817584 0 1 0
781 1 7.379243563968925 4.455505120063269 7.018651601921933 0 0 1
1413 1 7.708803613865535 2.1362769892364133 8.322461412389481 0 0 0
656 1 10.170469654479588 6.961296813795741 6.577653048831735 0 0 0
2520 1 14.495281986065601 3.6041636645318813 5.018273725530785 0 1 0
1966 1 16.930922948497983 4.0490499353920715 3.58802446923497 1 0 0
3469 1 19.49893656798195 2.6112582069305623 4.304515785507539 0 1 0
282 1 21.20549876714354 4.087774878086905 6.200032981949239 0 0 0
956 1 29.490656544927827 4.544257237062337 5.310522534366408 -1 0 1
2817 1 37.8097584548952 4.0539458420953425 1.4468045977295263 -1 0 0
1473 1 38.28240430946308 4.859243409754778 4.743046540045255 1 0 0
1245 1 42.58606967452984 7.539791145575763 5.424541886841995 0 0 1
2756 1 46.29126941375586 2.537630101807816 5.5369831209446305 0 1 -1
1867 1 1.4135900099528496 6.982175639974087 5.596568821194465 1 0 1
2147 1 8.25482509154336 8.444615117621666 5.66866391451366 1 1 0
3041 1 9.233003182962719 9.5077209214521 2.9485775576140116 1 0 0
4074 1 11.240768511498942 10.455745988411774 5.04913019477186 1 1 1
3096 1 12.576408049961154 7.976715468398005 5.432127093406061 0 0 1
259 1 17.06532401755724 6.707600806674762 4.491612103141179 0 0 0
2028 1 14.875506193768027 8.187942429926224 2.901278624706672 1 1 1
3596 1 19.791926651073307 6.93714597359174 3.8740021851997026 0 1 1
335 1 21.634883279343267 6.862737363674514 5.825686872422212 0 0 -1
2056 1 23.829301457031995 7.137021390158516 4.333553539085167 1 1 2
2686 1 26.05479010840069 6.483883037167339 5.38301362484299 0 1 0
3545 1 28.24184827632206 7.357877735006823 3.7303310477622165 0 1 1
1260 1 30.10787798825744 7.199764374021727 5.865851352328198 0 -1 1
41 1 32.59333611124024 7.956621835679751 4.778835066641604 -1 0 0
3496 1 33.89353294429381 5.529295259303824 4.268827567975923 1 1 1
3020 1 34.36519647855241 9.811992268348938 6.271518776887083 0 1 1
291 1 46.70776384472686 6.091287657864182 2.2217690081664454 0 0 0
2347 1 0.7468234908816851 3.9649958921660744 5.427636153432503 0 1 -1
3955 1 47.24037919937759 7.774695649864967 4.510976119556469 0 0 1
989 1 48.90636111007612 11.849389751663487 5.336311941903802 -1 0 1
3105 1 3.039171509942364 10.717251814732908 4.043468224527023 1 0 0
753 1 5.509689525962013 13.043873133427365 4.623927037560452 1 0 1
2647 1 9.641820575112728 14.162130295354341 3.5494712212612485 1 0 0
1430 1 11.817247903487859 12.716726452895049 6.907962366582291 0 0 1
4085 1 16.427395470664493 10.171333776564216 3.761947426641508 0 0 1
3772 1 19.334991617624347 10.253260481267967 4.197591548095694 1 0 0
2220 1 24.560859988226436 11.321460921072008 6.480065674239462 0 0 0
508 1 24.56715469503042 10.020145435245226 3.915394875604232 0 1 0
2663 1 28.894857777662924 11.672636209549873 4.558440716082918 0 0 0
501 1 35.22801173345705 9.977615592552407 2.2268937700791573 0 0 -1
1379 1 36.053450201386916 13.308155802743697 5.617435327510796 0 0 0
3994 1 36.44391194674531 10.764551402068491 4.835236018309244 0 1 1
514 1 42.06070223213676 10.975468954919831 3.1247401668292554 0 0 -1
313 1 41.78909706296205 13.811511596573409 2.334481953866547 0 -1 0
3906 1 46.147784262324244 8.17721006747177 7.277169347012108 -1 0 0
2763 1 45.905055358657066 11.999922017686378 5.609617487756952 -1 0 -1
3272 1 48.017802812691386 10.159042138478213 2.846716086208815 -1 1 0
3159 1 2.094213419339871 13.491960560433029 3.5031601307789204 0 0 1
1367 1 2.587606557603963 16.059259859343378 3.952096641805423 0 1 1
325 1 5.27990459335754 15.880937205923004 4.464918245407751 0 1 1
1198 1 11.125735093270764 15.102783511637679 5.612254916400642 1 -1 1
1047 1 13.744688310179784 15.631630736087452 4.723813238166257 0 0 1
2514 1 19.104742117712178 15.245828655403693 5.595449040065939 -1 0 1
3089 1 26.070657028412015 13.457080511136722 5.6405018447601085 0 1 0
2415 1 23.74340398316639 15.15958729999596 5.996606889686083 1 1 0
1544 1 27.224746919660927 14.012325374576108 3.40360110860993 0 0 1
607 1 30.051326312154742 15.357965335123072 6.867740770526351 0 -1 0
3133 1 32.297016421967726 14.41798480197197 3.661747390351774 0 1 0
1271 1 32.70000240855982 11.444581073915222 7.213153056921526 0 0 0
2064 1 37.29648484194544 14.361360352152362 3.282090194247615 0 0 1
3387 1 44.493352303210436 14.671858412973553 6.640886203674323 0 1 0
3598 1 39.99514531977098 14.825741454013913 4.2755455899469315 -1 0 0
1980 1 49.59334146768586 14.35443206554253 4.354148867627175 -1 0 1
3649 1 1.6297951860899704 18.018591284651034 5.452945831265447 0 0 0
363 1 9.252844584656723 18.351315823763233 4.34702557855649 0 0 0
1628 1 7.289992367537247 18.406543615805134 7.729856337254072 0 0 0
678 1 9.851687426676662 17.247147528378047 6.703141319644726 0 0 0
621 1 15.414011236916737 18.19992882593741 3.9441927773109704 0 -1 0
3850 1 16.805838144630144 15.536672023765542 3.9810886803923182 1 1 0
1862 1 20.213098405214907 17.11654919154604 1.7542271639796354 0 0 1
2556 1 20.34636629323619 18.94856361972456 3.803955624915985 0 0 1
1368 1 23.154106619426415 19.05195137374196 4.118209673086973 1 0 -1
3040 1 25.46530279611093 16.922602830660423 4.992908869618286 0 0 1
1709 1 28.465612222821623 18.009097663472865 7.437604072247356 1 -1 1
3134 1 28.790425340061844 17.91406329335752 4.731355077287464 0 1 1
589 1 32.815809196462666 17.330834695948294 4.277228984202758 0 0 1
2029 1 34.0947676573467 18.261247951028572 6.971074561306228 0 0 1
276 1 37.08744226751985 16.931132484150144 4.03520677240123 0 0 0
1937 1 39.468953063064255 18.049835652609953 3.0152983163729177 0 -1 1
2150 1 41.34333697359493 17.33323334689461 4.990880843477103 0 0 0
1142 1 44.03370766126838 17.32504040909776 5.261016496106072 -1 1 1
4035 1 44.65590951042967 19.300634598757682 6.879523317486096 -2 0 0
3389 1 48.09816321512418 15.496604713300835 6.592548450201262 0 0 0
1497 1 2.4136091808543823 20.412101486989716 4.487426555853341 0 0 1
2115 1 5.198698201584896 21.73370824285829 1.0430218887202745 0 0 0
2039 1 7.063576836319347 20.14580340894478 5.191944276998491 0 0 0
266 1 12.015786829188114 18.392119778285714 8.051061764858986 1 0 0
3829 1 12.943613217169775 18.449028312156692 5.08107732634518 0 1 0
646 1 16.284667928613075 20.86855789722262 4.506968370366223 0 0 0
815 1 23.45556456516123 21.546348353362188 6.34439212436535 1 0 1
1707 1 26.64213291393782 21.836587144973205 6.082520102077776 0 0 0
2088 1 31.157249864922083 19.37314738405974 4.361854727335103 0 0 1
865 1 34.31724708426355 20.504613924975367 5.137859652581559 -1 0 1
2788 1 38.381608997657864 20.305235285247427 3.5885434566634977 -1 1 0
2059 1 35.70026153504728 20.52546800307469 2.8895397099195432 0 0 1
2066 1 42.3287907461647 20.129160809348644 3.7922464242356675 -1 0 1
2944 1 45.94043811920592 20.63676486137161 4.809918902222963 0 0 1
3034 1 48.77412359049764 20.44187138244633 4.370035729495396 -1 1 0
1568 1 49.19049466979476 18.17889227044772 6.070346095670103 1 0 0
114 1 1.8158999067836308 23.832663073568963 3.6182675453006743 1 0 1
1317 1 46.61667903297109 13.305615921850144 16.397494045451836 0 0 0
1478 1 4.707540703511534 21.59369590050276 5.546339738569635 0 0 1
1332 1 8.733487464407784 22.746601624521368 4.618250876613507 0 0 0
2575 1 10.369325753784832 20.924119372934044 5.853763120898321 0 0 0
2612 1 12.372204083990164 22.894073159225748 5.832610136450029 0 0 0
1422 1 20.126523301930668 23.058839638737666 4.67018380488435 0 0 1
2727 1 22.678223831910053 22.675347582944934 3.6260099487944397 0 1 0
4049 1 31.680689193740545 21.93746205606356 5.527487685298261 1 0 0
2782 1 29.021548156870768 22.83180163228673 4.688259083235341 0 0 0
2126 1 0.20671843336070694 9.674434066836733 15.034184282215694 0 1 0
1578 1 13.862165686085856 0.8297187849601135 4.000519607684129 0 0 1
4086 1 45.00485538330362 23.481259792736708 4.99549537529234 0 1 1
2845 1 9.843786937915938 0.4563087569540666 1.0593008189474835 1 1 0
3754 1 0.4693977453918784 22.21641161554048 5.470044697553483 1 0 0
3905 1 6.771743178769882 1.9954552263394563 11.213549681709434 1 1 1
1437 1 12.605392141827952 1.2052616596615737 8.436144557883138 1 -1 1
466 1 14.283530293021665 0.7937265555215441 10.750564071287261 -1 1 0
792 1 17.28863333799615 1.402386371699156 7.32046124805731 1 0 1
34 1 21.199033951807554 3.1509527798302623 10.030295585873102 0 0 0
644 1 23.192660401601454 1.240945633818713 9.321902481782837 1 0 0
1052 1 32.54681433877835 23.444922992162994 15.96886431669073 0 0 0
3589 1 11.602964248758509 12.569685461098809 16.072001234308424 1 1 0
669 1 34.04782908729013 1.416879710597002 6.760640316872486 0 0 0
2819 1 33.22299576983647 2.025698262125116 9.412915105867445 -2 1 1
1214 1 36.46470447327241 1.4702158881078136 4.364683201342764 0 1 0
519 1 38.18671494467361 3.572706718873867 8.919048652837622 1 1 0
544 1 44.931089089858794 23.494960796617608 14.901109020274458 -1 0 -1
3591 1 40.138457661139654 1.7359106404762752 7.915842329001263 0 0 1
2046 1 45.264607885075755 0.9848747469239236 10.359238868576824 0 0 1
3794 1 49.57418187273422 0.3830130905517317 9.18383577796991 -1 1 1
2938 1 47.263014824812736 1.6757549726003667 8.007788581033006 0 1 0
1982 1 0.5330019489385237 3.2253257855830455 9.421166175880845 0 0 1
3368 1 49.99743047404106 6.412664332254351 7.93904799044949 -1 1 1
3247 1 1.0692227340707972 5.13054969550784 11.584695873399742 0 1 0
341 1 4.483297305185497 4.575527129387127 9.148610797564583 1 0 0
1384 1 6.675108019866964 6.406130120306602 8.920830218600177 0 0 1
3287 1 12.429258903686396 5.422190620133409 8.953296847952203 0 0 0
2127 1 10.71805053028678 3.152137501027601 9.118835290113987 -1 1 1
672 1 15.230926970186971 5.142709927357838 8.387581601160903 -1 0 0
3264 1 17.67243299830972 6.086980782364592 7.315177917441281 1 0 0
24 1 19.161838538236346 3.8170470508394096 7.994725026431997 0 0 1
103 1 23.4897112757496 3.7108655029360027 7.735134919872072 0 1 0
3057 1 24.788343046684698 5.674220946516557 9.326583028242716 0 1 1
3171 1 25.886511217938068 3.4995208334433476 6.07678419613474 -1 2 0
3508 1 30.27952464762431 2.9974806707693507 7.668097678060886 0 1 1
3600 1 27.509891166385568 2.711722211401777 8.441748906898805 0 1 1
449 1 31.775960655193682 4.977660712626041 8.695755648490358 0 -1 0
2142 1 34.21622892355085 5.048761368049267 7.195901727878006 -1 0 0
754 1 36.334705215771415 3.6983036494645845 6.676776734856383 0 -1 1
3353 1 39.80350316669324 6.695990345323998 6.158545074128933 0 1 0
1053 1 39.237956294360224 6.141256223390983 8.684485727678554 -1 0 0
2416 1 42.185113407100175 3.4162552206706693 6.767672197541082 -1 0 0
4137 1 48.142997464899885 4.280509178405595 8.587473991336761 0 1 1
186 1 0.6550970000394825 9.443329276654863 5.272615093739075 0 0 -1
4148 1 3.5174662584411984 6.854999246161208 7.465155181668358 1 1 1
3102 1 6.759026735483642 10.143905626413083 9.529210276461878 0 1 0
3758 1 5.903003584930012 8.5353895203836 7.23994639403986 2 0 1
2837 1 8.847379149978917 11.128816996753114 6.549173173952341 0 1 1
2285 1 10.92819218581523 7.922281222662312 9.295322795593677 0 1 -1
3799 1 14.589830440204906 8.163917743539926 7.365640880547689 0 1 1
321 1 19.054694368321936 7.894682882994564 9.04512992119726 -1 1 0
3593 1 21.775165116463683 8.270566817100153 8.189967915318093 0 1 1
720 1 28.56359399096887 7.3814991215954855 10.234010026501165 0 -1 0
2918 1 26.527428193876247 7.451031406740245 7.806225351222339 -1 0 1
531 1 30.850376207434454 7.616756036921321 8.781266471777487 -1 0 0
1892 1 34.85855154949801 7.6951273033789045 8.035126177289268 0 0 1
2576 1 38.38458399335016 9.295355981099362 5.941321898183275 1 1 0
235 1 37.5881146918241 8.637202050223118 8.649491630673225 0 0 1
3521 1 44.762403874818176 5.231314285371891 5.927872908705657 0 1 1
3303 1 48.313588863838014 5.3019870827669715 5.482675116249728 -1 1 0
3743 1 4.451715013093982 10.96276163823221 6.686621173877302 0 1 1
3177 1 7.987922895534721 13.48392683728699 5.692203218342749 0 0 0
1280 1 16.180274716186887 10.20114241868478 6.829279862541869 0 0 1
470 1 18.04834803334795 10.58819188967647 8.534764581673413 0 0 0
3139 1 19.84151685540639 12.064000725547222 6.513269950771786 0 0 1
1885 1 21.985083607610832 10.926153890274431 7.768410053276239 0 0 1
1922 1 26.30828074886463 10.094394559385654 8.211109893113097 -1 0 0
776 1 30.33489610871482 10.202390215124781 6.578853357162915 0 0 1
622 1 28.653136172386326 11.524010861957928 8.565592095284048 0 1 0
220 1 33.03522896071556 8.645341577742329 10.11929550543343 0 0 -1
2513 1 33.25924511115234 13.698584564549506 6.0269565719350355 0 0 0
4145 1 40.795388148013 10.690772332859948 5.678657491670005 -1 0 1
1038 1 45.653821203993964 10.886386289400097 7.991804745647951 0 0 1
1016 1 48.47265869895238 9.009318945421672 8.647571854640335 -1 0 0
4119 1 48.83324009884401 12.144789636593096 8.066182377127072 0 2 0
1032 1 0.7685855759757617 13.990378134297961 10.038573742147912 1 -1 0
2252 1 1.6153873282348075 11.118046298548343 7.527078182577273 0 0 1
2570 1 2.6798791099242196 13.873261277106094 8.052224816158507 0 0 1
3306 1 5.342817921664723 12.539473137544736 8.625365897718847 0 1 0
356 1 10.220591071516491 13.577172898814124 8.975196432974377 0 0 1
2265 1 14.657999991221525 12.384912983059447 7.675043879569828 0 0 0
2055 1 18.08198946765065 13.925040460575943 8.17980488667489 0 0 0
3132 1 22.762044956625818 15.580977320003665 8.745972441221344 0 0 0
2479 1 27.640988728436668 14.19153302172882 7.671995546846162 0 0 1
4132 1 32.662179290466725 15.977119505268071 7.903615046229156 -1 0 1
498 1 36.347298898415445 15.392971448774691 8.975299593279825 0 0 0
3526 1 39.98144893744196 13.218870577555274 6.714999713608258 0 0 1
1040 1 37.37667643515328 13.055943808582516 7.953477410892754 0 0 0
1624 1 42.2741969496425 13.949905911803853 8.29723155269291 1 0 1
4106 1 46.71647232039448 13.9553337775875 8.644487569491703 0 1 1
3014 1 47.479556727362045 16.623343197529422 10.081719193662972 0 1 0
1947 1 -0.06647478872644386 16.464395775168825 8.445595433652215 0 -1 0
107 1 2.8861042989414956 17.077685517409694 8.072522721537409 0 0 0
3746 1 5.557739432357028 16.500379305546478 7.264392593486456 1 1 1
4092 1 8.238075297846327 15.592074202801449 10.802171749424183 0 0 1
2747 1 7.116183481660815 14.537213154060103 8.124870264363045 0 1 0
3427 1 15.459022477492843 14.791295718292657 7.031075879215459 0 1 0
7 1 14.657988752267594 16.246602831269726 9.03518335910944 0 1 0
2644 1 19.80847301738714 16.10027993127005 8.724427757496695 0 0 0
3240 1 20.316115577367707 17.913308709847346 6.448497997813167 -1 0 0
3892 1 26.114053336043497 17.015000784878403 7.828683546148197 1 1 0
1256 1 25.005754683631004 19.18235484800098 9.52255549469945 0 -1 0
1131 1 30.092397791943736 16.82330137382208 9.610767461692323 -1 0 0
2999 1 36.514431679361266 17.096943282267336 6.73708778147346 0 0 0
1699 1 41.484906971737324 16.56606647095222 9.458305594717737 -1 0 1
2573 1 40.90789984671622 18.496789267235055 7.475211799063452 0 0 0
3532 1 43.59797592807781 18.385025326428828 10.544699715962668 0 0 1
538 1 46.11978270172867 18.66267486137691 9.341150611366503 0 0 0
1952 1 3.239686360716766 17.615179394160133 10.685993363464569 0 0 1
2027 1 6.773049191582906 19.452967877053336 10.43049233600461 1 0 0
4101 1 9.50534672041407 20.84023686871941 8.597720227766384 0 0 1
3094 1 13.655977549201424 22.09667410768144 10.135539875745861 0 1 1
4105 1 14.624767909745739 19.017246712990456 8.431214045873949 0 1 1
567 1 16.48227598119698 20.7227772755112 7.2386546033572134 1 -1 1
2339 1 19.24482206924895 20.15800896400424 7.7646066345646005 -1 0 1
3765 1 23.01440175017725 18.003706499920128 6.835434023710986 1 0 0
777 1 21.902736434340706 20.749834824253963 11.901517026682107 0 0 1
230 1 28.54016546243535 20.641576012184554 8.082914204166087 -1 0 1
749 1 31.281591024220788 21.270117096720195 8.114307618998346 0 0 1
2139 1 33.47725807551081 19.75987860315343 9.137502734989033 0 0 -1
3189 1 38.26380659976255 19.18108166459195 7.47046485313262 0 0 0
2365 1 37.598224933758566 20.36605476393379 9.831056867924769 1 0 0
2107 1 40.79813849987637 22.571127469150323 6.727332759863588 -1 0 0
1427 1 42.13062234012421 20.63077445752696 8.320034335816027 0 0 1
1774 1 47.08096738117224 21.08183881313448 10.19005172489563 -1 0 1
2670 1 44.65649770919137 22.029081749464684 8.523407818835654 0 0 -1
455 1 3.5454942236671547 22.626495871716475 8.328251611357446 1 0 0
1887 1 0.7912482185689305 22.773409752761232 8.216021577886298 1 0 1
3467 1 45.66747474429945 2.5714275578958294 0.19258479325633987 0 1 0
2750 1 6.568903257780023 23.48250365400426 7.985950544823604 0 1 0
2289 1 8.798892638801172 23.336948316109158 9.549654112531591 1 1 0
2213 1 13.851634400036641 23.71863731130565 7.775986908164998 0 0 0
2594 1 16.778117852267936 23.539020101941354 7.660008301578745 0 0 -1
795 1 21.17842178530066 22.268331358914526 7.445342350114523 -1 -1 1
1418 1 22.455851306329723 24.673508151035332 8.723445518269935 -1 0 0
3779 1 25.35873475141937 23.955065786716204 7.277711651553372 1 1 1
703 1 24.51384784675344 24.110383256052433 10.416915686662527 0 0 0
3740 1 34.413760387280284 14.479433353910704 0.07430726048395458 -1 1 1
316 1 30.889262336345965 24.132268725263174 9.217190774293702 -1 0 0
3551 1 35.59405992566938 21.728488653253248 9.120365791938454 0 0 0
4034 1 38.30137402942344 21.33961050179192 5.974591282907288 0 0 0
2401 1 35.77980033660714 22.579763500780203 6.40989538915259 0 1 0
348 1 6.319727744887512 24.50630338464805 15.33524605160231 0 0 0
3486 1 36.351871945159395 23.39209656024095 13.284015736270511 0 0 0
2959 1 42.24519671245714 22.630506731911524 4.644457674181931 0 0 1
2099 1 39.6833809428928 18.500176971546068 0.0013961881679387111 0 -1 0
2578 1 34.668707283608796 12.664539756576211 16.18116219067965 0 1 0
2349 1 49.924442036186406 21.997667900114905 10.556593298676463 -1 0 0
2200 1 42.21666138656212 20.12446208032921 15.555698184193353 0 0 -1
689 1 3.3692545963889318 -0.09155758160963469 10.663667670196277 0 0 0
1215 1 4.919147683013801 1.5478679334256493 8.990078265642397 0 1 1
2307 1 5.816067211297502 2.9551854735224437 15.939008713439257 1 0 0
4068 1 12.23688972321255 1.3533896867987014 12.86608267273577 0 1 1
3997 1 15.966309555380032 2.3987150457227164 12.199887075661705 0 0 1
1356 1 18.224305578828066 2.192902206973057 14.219506118449036 0 0 0
1123 1 34.70628311518701 22.039469325548968 15.221558036229686 0 -1 0
1679 1 24.45298173273404 0.8102204781343779 11.745288610282895 0 0 0
2290 1 31.098985035680563 1.4556306539089403 11.98926193909977 0 0 0
3501 1 36.801755447095466 2.0499654283562867 10.992745148849554 -1 1 1