
# Create simulation box of size 50 x 50 x 50 Angstrom
#
lattice	            sc 1
Lattice spacing in x,y,z = 1.0000000 1.0000000 1.0000000
region 	            all block 0 50 0 50 0 50 units box
create_box          1 all
Created orthogonal box = (0.0000000 0.0000000 0.0000000) to (50.000000 50.000000 50.000000)
  1 by 2 by 3 MPI processor grid

# fill box with 4175 randomly distributed atoms
#
create_atoms        1 random 4175 63782 all
Created 4175 atoms
  create_atoms CPU = 0.001 seconds
mass                1 18.015

# Define potential
#
pair_style          sw
pair_coeff          * * ML_mW.sw mW
Reading sw potential file ML_mW.sw with DATE: 2019-02-27

# Run minimization
#
minimize            1.0e-8 1.0e-8 10000 1000
WARNING: Using 'neigh_modify every 1 delay 0 check yes' setting during minimization (../min.cpp:187)
Neighbor list info ...
  update every 1 steps, delay 0 steps, check yes
  max neighbors/atom: 2000, page size: 100000
  master list distance cutoff = 6.0032907
  ghost atom cutoff = 6.0032907
  binsize = 3.0016454, bins = 17 17 17
  1 neighbor lists, perpetual/occasional/extra = 1 0 0
  (1) pair sw, perpetual
      attributes: full, newton on
      pair build: full/bin/atomonly
      stencil: full/bin/3d
      bin: standard
Per MPI rank memory allocation (min/avg/max) = 4.255 | 4.258 | 4.261 Mbytes
Step Temp E_pair E_mol TotEng Press 
       0            0    7792709.3            0    7792709.3    5898794.3 
     630            0   -45180.336            0   -45180.336   -154.07449 
Loop time of 1.14726 on 6 procs for 630 steps with 4175 atoms

99.0% CPU use with 6 MPI tasks x no OpenMP threads

Minimization stats:
  Stopping criterion = max force evaluations
  Energy initial, next-to-last, final = 
      7792709.32924461  -45180.0188663597   -45180.336116598
  Force two-norm initial, final = 2.0191930e+08 4.9721331
  Force max component initial, final = 1.0948746e+08 0.73126211
  Final line search alpha, max atom move = 0.053306038 0.038980685
  Iterations, force evaluations = 630 1000

MPI task timing breakdown:
Section |  min time  |  avg time  |  max time  |%varavg| %total
---------------------------------------------------------------
Pair    | 0.87398    | 0.99001    | 1.0448     |   6.0 | 86.29
Neigh   | 0.02378    | 0.024758   | 0.025529   |   0.4 |  2.16
Comm    | 0.057541   | 0.11237    | 0.22985    |  18.0 |  9.79
Output  | 0          | 0          | 0          |   0.0 |  0.00
Modify  | 0          | 0          | 0          |   0.0 |  0.00
Other   |            | 0.02013    |            |       |  1.75

Nlocal:        695.833 ave         704 max         685 min
Histogram: 1 1 0 0 1 0 0 1 0 2
Nghost:        1494.17 ave        1515 max        1468 min
Histogram: 1 1 0 0 0 0 1 1 1 1
Neighs:        0.00000 ave           0 max           0 min
Histogram: 6 0 0 0 0 0 0 0 0 0
FullNghs:      19997.0 ave       20462 max       19320 min
Histogram: 1 1 0 0 0 0 0 2 0 2

Total # of neighbors = 119982
Ave neighs/atom = 28.738204
Neighbor list builds = 26
Dangerous builds = 0

# Add velocity/set timestep
#
velocity            all create ${TEMP} 120598 rot yes dist gaussian
velocity            all create 220 120598 rot yes dist gaussian
timestep            5.0

# Define output
#
compute	            1 all msd
thermo	            100
thermo_style        custom step temp press vol etotal ke pe c_1[4] density

# Neighbor lists
#
neigh_modify        delay 0 every 1 check yes

# Set fixes
#
fix                 1 all momentum 10 linear 1 1 1 rescale
fix                 2 all nve
fix                 3 all temp/csvr ${TEMP} ${TEMP} 500.0 928347
fix                 3 all temp/csvr 220 ${TEMP} 500.0 928347
fix                 3 all temp/csvr 220 220 500.0 928347
fix                 4 all press/berendsen iso ${PRES} ${PRES} 1000.0 modulus 20000
fix                 4 all press/berendsen iso 300 ${PRES} 1000.0 modulus 20000
fix                 4 all press/berendsen iso 300 300 1000.0 modulus 20000

# Run 0.5 ns equilibration
#
dump                1 all custom 1000 eq.${NAME}.dump id type x y z vx vy vz
dump                1 all custom 1000 eq.liquid_density_MLmW.dump id type x y z vx vy vz
run                 100000
Per MPI rank memory allocation (min/avg/max) = 3.506 | 3.508 | 3.511 Mbytes
Step Temp Press Volume TotEng KinEng PotEng c_1[4] Density 
     630          220    846.92133       125000   -42443.118    2737.2183   -45180.336 2.7295415e-33   0.99914793 
     700     140.1967    202.50564    125213.88    -41603.33    1744.3135   -43347.643   0.25854223   0.99744127 
     800    174.24884    21.499609    125097.61   -40841.552    2167.9869   -43009.539   0.61134398   0.99836829 
     900    189.88115    280.14622    124914.63   -40424.139    2362.4825   -42786.622    1.0567186   0.99983076 
    1000    203.52466    514.00626    124862.36   -40159.277    2532.2337   -42691.511    1.4480643    1.0002494 
    1100     213.9243    462.09291    125074.23   -39989.888    2661.6251   -42651.513    1.9160175   0.99855494 
    1200    209.22302    151.30351    125058.95   -40022.563    2603.1321   -42625.695    2.3044224   0.99867695 
    1300     212.0244    569.72923    125133.99   -39999.002    2637.9866   -42636.988    2.7928773   0.99807805 
    1400    213.71896     466.1772    125487.89   -39993.749    2659.0702   -42652.819    3.2081075   0.99526333 
    1500    212.98514    389.35855    125529.86   -39941.904    2649.9401   -42591.844    3.5120417   0.99493052 
    1600    220.69766    254.43612    125604.17   -39844.828    2745.8984   -42590.727    3.9759233   0.99434192 
    1700     219.6163    325.01128    125719.34   -39897.213    2732.4442   -42629.658    4.3766174   0.99343098 
    1800    217.97256    207.60593    125538.81   -39989.717     2711.993    -42701.71     4.651213   0.99485963 
    1900    219.71722    233.88843    125437.59   -39973.982    2733.6999   -42707.682    4.9414497   0.99566236 
    2000    218.62703    310.47666    125559.35   -39916.445    2720.1359   -42636.581    5.2433479   0.99469685 
    2100     222.1404     408.0961    125637.09   -39871.544    2763.8489   -42635.393    5.6755901    0.9940814 
    2200    219.77526    256.63742    125642.22   -39912.354     2734.422   -42646.776    6.0581197   0.99404076 
    2300    223.49887    277.27212    125640.93   -39907.746    2780.7508   -42688.496    6.3667442   0.99405099 
    2400     221.6706     435.2925    125727.14   -39944.508    2758.0037   -42702.511    6.6864633    0.9933694 
    2500    222.87021    135.37505    125776.75   -39909.942    2772.9292   -42682.871    7.0104505    0.9929776 
    2600     224.5276    275.21564    125554.91    -39882.86    2793.5502    -42676.41    7.3748675   0.99473206 
    2700    227.42424    491.53128    125754.97   -39894.139    2829.5899   -42723.729    7.6837491   0.99314954 
    2800    223.41018    458.60846     125758.1   -39880.696    2779.6474   -42660.344    8.0140906   0.99312484 
    2900    226.42019    264.37473    125737.77   -39953.236    2817.0977   -42770.334    8.3714017   0.99328538 
    3000    219.69091     486.2801    125735.71   -39981.468    2733.3726    -42714.84    8.7209631   0.99330168 
    3100    218.38414    169.47376    125780.56   -39963.378    2717.1139   -42680.492    9.0280511   0.99294751 
    3200    220.92558    512.30099     125885.8   -40002.014    2748.7342   -42750.748    9.3958279   0.99211742 
    3300    225.53751    251.34569    126057.96   -40005.109    2806.1154   -42811.225    9.6169467    0.9907624 
    3400    223.35472    305.93905    125908.55   -40057.105    2778.9573   -42836.062    10.098287   0.99193816 
    3500    222.25657    415.66377    126051.67   -40093.577    2765.2943   -42858.871     10.32476   0.99081185 
    3600    220.03515    84.128356    125947.29    -40142.31    2737.6556   -42879.965    10.646741   0.99163302 
    3700    213.30261    185.09468    125853.81   -40195.346      2653.89   -42849.236    10.950119   0.99236954 
    3800    219.54609     366.3537    125826.39   -40126.046    2731.5707   -42857.617    11.102104   0.99258579 
    3900    219.30825    258.65849    125924.39   -40154.187    2728.6116   -42882.799    11.398264   0.99181334 
    4000    215.94882    509.20741    125941.57   -40152.089    2686.8138   -42838.903    11.530516   0.99167802 
    4100    216.34783     243.1366     125997.6   -40140.403    2691.7783   -42832.182    11.622402   0.99123704 
    4200    219.00561    287.35529    126133.38   -40164.066    2724.8461   -42888.912    11.940452   0.99017001 
    4300    218.43681    158.35331    126222.46   -40170.149    2717.7692   -42887.918    12.271695   0.98947121 
    4400    221.79111    464.88337    126309.33   -40162.766     2759.503   -42922.269    12.541212   0.98879071 
    4500     224.4715    470.02475    126423.52   -40160.598    2792.8522    -42953.45    12.798961   0.98789762 
    4600    215.80818    144.70456    126378.44   -40215.028    2685.0641   -42900.092    12.914251      0.98825 
    4700    223.11655    88.575069    126548.03   -40149.055    2775.9941   -42925.049    13.220142   0.98692558 
    4800    218.89104     280.1614    126612.44    -40216.67    2723.4207   -42940.091    13.427458   0.98642358 
    4900    221.61078    378.43325    126624.77   -40100.429    2757.2595   -42857.688    13.750708   0.98632753 
    5000    225.01842    197.67391    126660.58     -40053.2    2799.6569   -42852.857    13.838603   0.98604866 
    5100    223.04462    475.95285    126451.63    -40123.19    2775.0991   -42898.289    14.013491     0.987678 
    5200    220.26148    257.36555    126413.51   -40186.771    2740.4716   -42927.243    14.379502   0.98797579 
    5300    221.63817    450.81709    126383.92   -40159.348    2757.6002   -42916.948    14.677195   0.98820716 
    5400    218.61741    136.19752    126433.39   -40191.639    2720.0162   -42911.655    14.911001   0.98782045 
    5500    216.75333    69.725858    126250.82   -40192.144    2696.8236   -42888.968    14.983029   0.98924892 
    5600    220.46734     350.8269    126208.98   -40184.189    2743.0328   -42927.222    15.246804   0.98957687 
    5700    218.22746    105.56552    125994.22   -40178.456    2715.1644   -42893.621    15.554885   0.99126363 
    5800    215.43919    383.55232    125939.84   -40205.069    2680.4731   -42885.542    15.993402   0.99169168 
    5900    214.32773    162.50993    126026.36   -40223.209    2666.6445   -42889.853    16.141361   0.99101084 
    6000    222.50957    297.90104    126191.37   -40233.972    2768.4421   -43002.414    16.352045   0.98971497 
    6100     221.8084    218.03952    126007.34   -40193.296    2759.7181   -42953.014    16.557138   0.99116041 
    6200    215.73212    280.09954    126145.59   -40259.401    2684.1177   -42943.519    16.751753   0.99007418 
    6300    221.43931    305.27798    126052.16   -40240.115     2755.126   -42995.241    17.175241   0.99080802 
    6400    216.19833    400.09954    126214.43   -40218.584    2689.9183   -42908.503    17.391104   0.98953421 
    6500    220.98319    212.26337    126072.07   -40141.949     2749.451     -42891.4    17.442639   0.99065151 
    6600     219.3295     180.7732    126064.75    -40202.99    2728.8759   -42931.866    17.651927   0.99070909 
    6700    217.51678    423.80315    125978.48   -40268.758    2706.3223   -42975.081    17.844312   0.99138751 
    6800     219.1349     357.3758    126168.49   -40185.286    2726.4547   -42911.741    18.080689    0.9898945 
    6900    220.63509    321.31039    126060.53   -40136.179      2745.12   -42881.299    18.394318   0.99074222 
    7000    221.35222    373.56386    126378.05   -40138.402    2754.0424   -42892.444    18.634524   0.98825301 
    7100    220.63634     184.8179       126502   -40170.578    2745.1355   -42915.713    18.915103   0.98728471 
    7200    221.02162     164.2112    126464.55   -40239.023    2749.9292   -42988.952    19.133789   0.98757709 
    7300    217.73663    439.87902    126407.66   -40303.957    2709.0576   -43013.015    19.587098   0.98802155 
    7400    217.11743    290.95343    126556.06   -40321.851    2701.3536   -43023.205    19.873633   0.98686295 
    7500    217.99029    330.47301    126684.29   -40291.453    2712.2136   -43003.666    20.105698   0.98586411 
    7600    214.96427    197.53756    126786.17   -40377.244    2674.5642   -43051.808    20.054215   0.98507187 
    7700    221.25678    61.320665    126631.03   -40276.343    2752.8549   -43029.198    20.240341   0.98627872 
    7800    221.14864     319.0116    126623.83   -40255.737    2751.5096   -43007.247    20.478077   0.98633481 
    7900    214.91883    286.30006    126700.87   -40317.132    2673.9989   -42991.131    20.813532   0.98573507 
    8000    219.98135    634.36132    126744.81   -40276.747    2736.9863   -43013.733    21.015141   0.98539333 
    8100    216.49436     383.1422    126839.89   -40349.136    2693.6015   -43042.737    21.362023   0.98465468 
    8200    215.26241    306.43358    126721.96   -40366.174    2678.2737   -43044.448    21.444912     0.985571 
    8300    219.04099    534.69095    126661.69   -40348.786    2725.2863   -43074.073    21.498907   0.98603999 
    8400    220.65706    235.64365    126939.48   -40309.642    2745.3934   -43055.036    21.857716   0.98388216 
    8500    223.32495    208.34773    127052.08   -40242.428     2778.587   -43021.015    22.024734   0.98301019 
    8600    218.62882    260.34165     126995.5   -40258.793    2720.1582   -42978.952    22.246346   0.98344818 
    8700     219.0592     253.8239    126841.55   -40251.037    2725.5129    -42976.55    22.469622    0.9846418 
    8800     216.7939    220.25813    126803.87   -40289.198    2697.3283   -42986.527    22.785976   0.98493436 
    8900    215.40474    259.65327    126746.54   -40377.188    2680.0445   -43057.232    22.894013   0.98537986 
    9000    219.51269    365.57964     126621.5   -40323.053    2731.1552   -43054.209     23.21616   0.98635293 
    9100    215.76118    385.14288    126668.44    -40377.67    2684.4793   -43062.149    23.333302   0.98598746 
    9200    219.72491    128.42395    126812.76   -40277.107    2733.7957   -43010.903    23.650822   0.98486536 
    9300    220.22411    224.75019    126866.03   -40334.593    2740.0066   -43074.599    23.901009   0.98445178 
    9400    219.55556    352.74629    126897.81   -40290.074    2731.6886   -43021.763    24.207787   0.98420524 
    9500    219.32642    347.17082    126951.01   -40303.903    2728.8376   -43032.741    24.327824   0.98379278 
    9600    221.00516    352.23382    126971.24   -40287.504    2749.7244   -43037.229    24.428977   0.98363606 
    9700    221.24148     331.3578    127005.85   -40232.852    2752.6646   -42985.516    24.502891   0.98336801 
    9800    221.50919    479.59936    127118.28   -40324.997    2755.9955   -43080.992    24.798263   0.98249828 
    9900    214.19098    437.41149    127231.33   -40411.682     2664.943   -43076.625    25.084397    0.9816253 
   10000    215.15645    270.11404     127158.7   -40423.122    2676.9552   -43100.077    25.175761     0.982186 
   10100    214.62982    284.81568    127121.53   -40379.696     2670.403   -43050.099    25.300336   0.98247315 
   10200    217.29154    349.42971    127092.07   -40430.839    2703.5199   -43134.358    25.417289   0.98270093 
   10300    217.18997    87.625987    126937.44   -40418.282    2702.2561   -43120.538    25.635385     0.983898 
   10400    217.67552    382.30644    126933.47     -40345.2    2708.2973   -43053.497    25.845217   0.98392873 
   10500    220.72731    302.20108    127079.02   -40318.104    2746.2673   -43064.371    26.032985   0.98280184 
   10600    225.02128     121.2873    127198.04   -40252.313    2799.6926   -43052.005    26.166804    0.9818822 
   10700    223.32314     285.3049    127330.84    -40240.44    2778.5644   -43019.005    26.282333   0.98085816 
   10800     221.0877     402.5665    127151.45   -40232.466    2750.7513   -42983.217    26.649687   0.98224195 
   10900    219.28125     230.6643    127126.64   -40258.491    2728.2756   -42986.766    26.987421   0.98243365 
   11000    218.37483    331.80823    127074.33   -40247.607     2716.998   -42964.605     27.23358   0.98283808 
   11100    216.95611    440.83875    126957.99   -40286.255    2699.3465   -42985.601    27.380518   0.98373871 
   11200    220.45296    439.87636    127065.15   -40293.309    2742.8539   -43036.163    27.533965   0.98290911 
   11300    220.03693    295.09134    127114.21   -40289.649    2737.6778   -43027.327    27.609301    0.9825297 
   11400    220.10719      563.959    127361.11   -40289.576    2738.5519   -43028.127    27.766655   0.98062502 
   11500    218.89584    238.78518    127476.71   -40324.028    2723.4804   -43047.508    28.035878   0.97973576 
   11600    218.42771     353.2519    127356.24   -40316.481    2717.6559   -43034.137    28.281983   0.98066251 
   11700    221.80479    76.918234    127492.92   -40216.239    2759.6733   -42975.912    28.623193   0.97961122 
   11800     219.1471    242.48982     127424.1   -40285.661    2726.6065   -43012.268    28.997756   0.98014029 
   11900     217.0175    377.56763    127350.67   -40295.067    2700.1103   -42995.177    29.125382   0.98070544 
   12000    218.92624    296.33648    127553.87   -40288.724    2723.8586   -43012.582    29.426112   0.97914308 
   12100    216.76258    335.02974    127561.27   -40240.487    2696.9386   -42937.425    29.741103   0.97908627 
   12200    221.84593    54.976777    127717.81   -40239.587    2760.1852   -42999.772    29.945584   0.97788623 
   12300    221.65367    151.95147    127424.05   -40273.761     2757.793   -43031.554    29.949939   0.98014062 
   12400    220.23975    315.51526    127533.14   -40260.201    2740.2012   -43000.402    30.295114   0.97930222 
   12500    219.25356    302.59251     127500.2   -40354.403    2727.9311   -43082.334    30.589858   0.97955524 
   12600     221.2037    205.57794    127486.42   -40281.106    2752.1946     -43033.3    30.919905   0.97966114 
   12700    222.71082    289.91559    127496.72   -40281.655    2770.9461   -43052.601    30.818903   0.97958201 
   12800    223.26445    260.84548    127415.34   -40255.033    2777.8342   -43032.867    31.161556   0.98020765 
   12900    220.42677     401.9549    127369.94   -40311.264    2742.5281   -43053.792    31.364793   0.98055703 
   13000    221.62561    149.69354    127265.24    -40245.14    2757.4439   -43002.584    31.637866   0.98136372 
   13100    217.66886    163.72383    127015.83   -40241.969    2708.2144   -42950.184    31.692167   0.98329073 
   13200    225.87471    295.29308    126919.72   -40154.732    2810.3108   -42965.043    31.994591   0.98403534 
   13300    220.41204     379.7818    127141.05   -40197.731    2742.3449   -42940.076    32.170603   0.98232233 
   13400    219.18591    380.34185    127028.69   -40262.536    2727.0894   -42989.625    32.250988   0.98319121 
   13500    218.10452    205.89549    127031.94   -40286.618    2713.6349   -43000.253    32.550514   0.98316604 
   13600    216.43595    386.17513    127154.23   -40311.776    2692.8747   -43004.651    32.717116   0.98222054 
   13700    214.29433    209.42995    127133.49   -40315.109    2666.2288   -42981.337    32.893544   0.98238076 
   13800    219.44321    323.28663    127004.67   -40213.396    2730.2907   -42943.686    33.171166   0.98337712 
   13900    218.36262    173.56722    126885.51   -40244.558    2716.8461   -42961.404    33.709369   0.98430069 
   14000    220.04878     217.1859    126857.31   -40217.699    2737.8252   -42955.524    33.921053    0.9845195 
   14100    217.08055    471.06472    126875.64   -40216.655    2700.8947    -42917.55    34.112097   0.98437719 
   14200    218.33999    332.52851    126870.37   -40254.649    2716.5646   -42971.213    34.214875   0.98441808 
   14300    219.51169    145.55321    126796.05   -40309.445    2731.1428   -43040.588    34.414976   0.98499516 
   14400    221.22524    349.93581    126916.12   -40279.328    2752.4625   -43031.791     34.51894   0.98406326 
   14500    220.32498    382.53529    126998.89   -40234.977    2741.2616   -42976.238    35.007031    0.9834219 
   14600    220.67865    228.19545    127119.68   -40261.046    2745.6619   -43006.708    35.176591   0.98248742 
   14700    217.22278     164.7073    127115.76   -40318.698    2702.6644   -43021.362    35.207136   0.98251779 
   14800    218.25444    228.11334    126785.38   -40375.073    2715.5001   -43090.573     35.65444   0.98507799 
   14900    218.80149     249.6448    126763.64   -40460.967    2722.3065   -43183.273    36.022943   0.98524699 
   15000     212.6814    268.36823    126908.81   -40457.675     2646.161   -43103.836    36.400156   0.98411994 
   15100     215.9511     371.5812    126880.28   -40477.061    2686.8422   -43163.903    36.436129   0.98434123 
   15200    219.69763    310.89338    126962.88   -40406.192    2733.4562   -43139.648    36.353932   0.98370084 
   15300    220.78238    341.53806    127000.85   -40408.873    2746.9525   -43155.826    36.497019   0.98340671 
   15400    218.47392    292.98697    127218.06     -40395.8     2718.231   -43114.031    36.838597   0.98172771 
   15500    217.89419    74.500439    127029.25    -40372.74     2711.018   -43083.758    37.072554   0.98318689 
   15600    219.73447    313.76936    126946.05   -40293.303    2733.9146   -43027.218    36.996172   0.98383122 
   15700    211.35845    309.57125    127161.59   -40371.347     2629.701   -43001.048    37.065512   0.98216367 
   15800    216.44331    143.25725    127108.96   -40357.112    2692.9662   -43050.079    37.258207   0.98257029 
   15900    216.90481    102.33255    126976.97   -40405.213    2698.7082   -43103.921    37.484797   0.98359167 
   16000    221.10746    138.19432    126964.73   -40350.187    2750.9972   -43101.184    37.795909   0.98368648 
   16100    221.23437    329.87464    127045.45   -40291.623    2752.5762   -43044.199    37.980328   0.98306152 
   16200     218.6502     316.5459    127149.42   -40345.628    2720.4242   -43066.052    38.418963   0.98225766 
   16300    214.52938    341.52251    127193.63   -40361.308    2669.1533   -43030.462    38.747535    0.9819162 
   16400    219.29066    293.14831    127388.36   -40264.829    2728.3927   -42993.221    38.986759   0.98041522 
   16500    220.40066    163.09339    127403.99   -40245.333    2742.2032   -42987.537    39.251499   0.98029499 
   16600    225.32129    290.57741    127311.15   -40239.436    2803.4252   -43042.861    39.368871   0.98100982 
   16700    219.77176    189.18317    127412.81   -40277.678    2734.3785   -43012.057    39.370474   0.98022713 
   16800    222.87678    295.05969    127500.04   -40275.314    2773.0108   -43048.325    39.569855   0.97955646 
   16900     219.2275    544.38172    127725.25    -40235.93    2727.6069   -42963.537    39.924585    0.9778293 
   17000    217.94398    258.57017     127650.1   -40265.661    2711.6374   -42977.299    40.218089   0.97840497 
   17100    222.87062    235.25587    127469.63   -40192.825    2772.9342   -42965.759    40.195116   0.97979015 
   17200    219.78421    400.01372    127660.95   -40206.619    2734.5334   -42941.152    40.489281   0.97832178 
   17300    222.82834    458.45439    127907.07   -40272.249    2772.4082   -43044.658    40.517961   0.97643929 
   17400    220.77237    509.27068    127916.05     -40296.4     2746.828   -43043.228    40.661993   0.97637077 
   17500    221.47285    198.83997    127622.81   -40277.065    2755.5433   -43032.608    40.899116   0.97861416 
   17600    221.74483    295.28691    127520.51   -40263.125    2758.9273   -43022.053    41.298482   0.97939924 
   17700    215.85348    234.28277    127253.96   -40270.017    2685.6277   -42955.645    41.357413   0.98145076 
   17800    220.37585    33.115487    127247.36   -40271.879    2741.8945   -43013.774    41.561998   0.98150161 
   17900    224.62743     173.3918    127078.32   -40239.234    2794.7923   -43034.026    41.721697   0.98280724 
   18000    220.87765    329.21236    126912.34   -40165.958    2748.1379   -42914.096    41.800803   0.98409258 
   18100    220.18828    209.90941     126886.5   -40257.559    2739.5608    -42997.12    41.981772   0.98429295 
   18200    219.55083    178.96748     126955.4   -40235.551    2731.6297    -42967.18    42.060445    0.9837588 
   18300    222.98734    306.94115    126822.69   -40150.459    2774.3865   -42924.845    42.279017   0.98478822 
   18400    219.19203    145.77135    126943.93    -40216.26    2727.1656   -42943.425    42.527895   0.98384767 
   18500    219.41783    366.14375       126909   -40165.583     2729.975   -42895.558    42.600226   0.98411847 
   18600    219.62063    231.67539    126913.65   -40215.831    2732.4982   -42948.329    42.985617   0.98408241 
   18700    221.18553    442.53009     126937.9   -40189.157    2751.9685   -42941.126    43.031624   0.98389442 
   18800     222.1868    182.92424    126817.74   -40164.008    2764.4262   -42928.434    43.211744   0.98482669 
   18900    222.30376    340.05188    126741.17   -40205.606    2765.8814   -42971.487    43.582038   0.98542165 
   19000     225.1282     283.7029    126782.17   -40180.254    2801.0229   -42981.277    43.901684   0.98510293 
   19100    217.01671    314.47449    127020.61   -40233.044    2700.1004   -42933.145    44.162571   0.98325372 
   19200    220.38798    298.96665    126961.67    -40202.13    2742.0455   -42944.175     44.33656   0.98371023 
   19300    221.01363    418.08994    127102.17   -40147.022    2749.8297   -42896.851    44.676764   0.98262278 
   19400    222.32761    403.62159    127098.56   -40168.972    2766.1781    -42935.15    44.800531   0.98265069 
   19500    220.27051    301.34726    127048.55   -40168.583    2740.5839   -42909.166    45.115554    0.9830375 
   19600    220.63239    341.05854    127146.89   -40206.361    2745.0864   -42951.447    45.272659    0.9822772 
   19700    224.42175    385.85476    126910.87   -40191.724    2792.2333   -42983.957    45.391207   0.98410396 
   19800    222.66709    277.11372    126892.18   -40240.443    2770.4019   -43010.845    45.618262   0.98424889 
   19900    222.89037    496.50287    127068.03    -40255.44    2773.1799    -43028.62    45.932745   0.98288682 
   20000    221.72513    285.61622    127187.12   -40313.332    2758.6822   -43072.014    46.201121    0.9819665 
   20100    221.08707     380.3343    127045.32   -40274.496    2750.7435   -43025.239     46.41028   0.98306248 
   20200    219.37206    303.90051    126830.31   -40321.498    2729.4055   -43050.903     46.52966   0.98472902 
   20300    214.74124     429.2588    126856.67   -40346.249    2671.7892   -43018.038    46.508772   0.98452441 
   20400    218.50185    233.68031    127007.49   -40357.646    2718.5784   -43076.224     46.63235    0.9833553 
   20500     220.4249    239.00058    126896.27    -40316.87    2742.5048   -43059.375    46.838434   0.98421717 
   20600    220.42162    386.07644    126860.12   -40353.665     2742.464   -43096.129    46.930284   0.98449765 
   20700    217.31902    258.01447    126813.83   -40289.257    2703.8617   -42993.119     47.24123   0.98485699 
   20800    219.42075    462.08677    126706.17   -40289.654    2730.0113   -43019.665    47.444648   0.98569381 
   20900    220.36178    372.80946    126731.88   -40331.191    2741.7195    -43072.91    47.707061   0.98549389 
   21000    219.60816     334.3734     126843.1   -40426.879     2732.343   -43159.222    47.846065   0.98462972 
   21100    214.37568    366.60916    127134.44    -40465.28    2667.2411   -43132.521     48.13346   0.98237341 
   21200    213.44208    283.96488     127066.1   -40436.219    2655.6253   -43091.844    48.302225   0.98290176 
   21300    217.51718    224.56793    127020.76   -40439.658    2706.3272   -43145.986    48.529726   0.98325262 
   21400    220.24306    323.78665    127021.76   -40419.662    2740.2424   -43159.904    48.816958   0.98324486 
   21500    221.62158    188.35547    126979.48    -40417.33    2757.3938   -43174.724    48.870423   0.98357222 
   21600    221.83918    557.58377    127173.59    -40372.25    2760.1012   -43132.351    49.123179   0.98207098 
   21700    221.64268    397.71383    127498.15   -40354.889    2757.6563   -43112.546    49.556478   0.97957104 
   21800    217.52305    291.64774    127251.21   -40335.499    2706.4003   -43041.899      49.5226   0.98147193 
   21900    218.94613    184.72028    127175.43   -40347.705    2724.1062   -43071.811    49.553641    0.9820568 
   22000    220.14387    426.48453    127120.83   -40375.528    2739.0083   -43114.536    49.662911   0.98247857 
   22100    223.47403    493.80118     126958.7   -40320.954    2780.4417   -43101.395    49.739348   0.98373324 
   22200    221.47864    331.99238    127141.88    -40367.03    2755.6153   -43122.646    50.200339    0.9823159 
   22300    222.43193     454.5999    127092.98   -40357.395    2767.4761   -43124.871    50.591668   0.98269387 
   22400    223.68215    306.91824    127120.19   -40318.213    2783.0312   -43101.244    50.902105   0.98248353 
   22500    221.42089    341.80873    127159.94   -40321.956    2754.8968   -43076.853    51.187471   0.98217637 
   22600    221.54173    349.94216    127203.45   -40289.388    2756.4003   -43045.788    50.945926   0.98184047 
   22700    223.14193     390.7052    127370.59   -40284.278    2776.3098   -43060.588     50.83833   0.98055201 
   22800    218.81078    282.31097    127421.97    -40252.63    2722.4221   -42975.052    51.194792   0.98015668 
   22900    224.50889    213.16306    127342.32    -40294.25    2793.3175   -43087.568    51.541511    0.9807697 
   23000    221.19477    460.15316    127228.72   -40282.223    2752.0834   -43034.307    51.501787   0.98164542 
   23100    219.70383    218.19969    127163.67   -40390.183    2733.5334   -43123.716    51.466023   0.98214762 
   23200    219.27473    355.68144    127073.37   -40325.358    2728.1945   -43053.553    51.653065   0.98284552 
   23300    217.72354    237.62999    127079.98   -40360.759    2708.8947   -43069.654    51.931134   0.98279437 
   23400    220.92393     357.0618    126999.73   -40285.623    2748.7137   -43034.337    52.053192   0.98341538 
   23500    213.42826    212.71655    127167.43   -40312.254    2655.4533   -42967.707    52.421482   0.98211854 
   23600    219.46701    88.533351    127094.46   -40291.747    2730.5869   -43022.334    52.438198   0.98268239 
   23700     217.5886    286.81097    127135.35       -40324    2707.2158   -43031.216    52.590612   0.98236639 
   23800    221.88665    372.05728    127213.35   -40394.625    2760.6918   -43155.317    52.828433   0.98176402 
   23900    218.66326    323.27083    127202.49   -40408.245    2720.5866   -43128.832    53.040871   0.98184786 
   24000    222.15167     212.8389    127239.19   -40340.303    2763.9891   -43104.293    53.254627   0.98156464 
   24100    220.28892    154.28342    127419.48   -40348.117    2740.8129    -43088.93    53.317078   0.98017583 
   24200    218.92698    146.75523     127329.4   -40407.414    2723.8678   -43131.282     53.35028   0.98086927 
   24300    221.51489     340.6836    127235.74   -40380.985    2756.0664   -43137.051    53.492651   0.98159127 
   24400    213.44829    251.53685    127346.99   -40408.473    2655.7025   -43064.176    53.851822   0.98073372 
   24500    223.38768    275.54195    127540.32   -40359.445    2779.3674   -43138.812    54.050927    0.9792471 
   24600    218.42261     398.6938     127719.3   -40349.205    2717.5925   -43066.797    54.259405   0.97787483 
   24700    217.23502    117.51083    127718.31   -40387.353    2702.8167    -43090.17    54.649976    0.9778824 
   24800    218.13103    404.92101    127652.65   -40386.819    2713.9647   -43100.784    54.739582   0.97838543 
   24900    217.67837    329.38726    127942.94   -40336.757    2708.3327    -43045.09    55.003877   0.97616556 
   25000    218.67093    281.16628    127669.53    -40308.26    2720.6821   -43028.942    54.998454   0.97825603 
   25100    220.75904    266.59864    127550.62   -40300.344    2746.6622   -43047.007    55.064478   0.97916805 
   25200    221.30014    227.20478    127394.93   -40342.283    2753.3944   -43095.677    55.292746   0.98036471 
   25300    224.09356    318.53791    127303.36   -40360.669    2788.1499   -43148.819    55.359005   0.98106991 
   25400    222.38544     410.2345    127523.89   -40359.433    2766.8976    -43126.33    55.395319   0.97937328 
   25500    221.04548    363.07494    127624.63   -40317.745    2750.2261   -43067.971    55.592551   0.97860021 
   25600    217.76189    261.02734    127774.28   -40379.304    2709.3719   -43088.676    55.978368    0.9774541 
   25700    218.29016     475.5781    127829.98   -40391.129    2715.9446   -43107.073    56.195678   0.97702814 
   25800    217.33392     238.4919    127650.18   -40365.704    2704.0471   -43069.751    56.271996   0.97840432 
   25900    219.49252    114.73179    127515.87   -40309.907    2730.9042   -43040.811    56.487415   0.97943487 
   26000    223.10092    337.80712    127500.75   -40247.757    2775.7996   -43023.557    56.525041   0.97955103 
   26100    218.13058    321.43791    127597.02   -40344.657    2713.9592   -43058.616    56.513154   0.97881195 
   26200    218.46802    176.40704    127538.25   -40337.836    2718.1575   -43055.994    56.530566     0.979263 
   26300    221.16223    370.98057    127695.31   -40319.424    2751.6786   -43071.103    56.756412   0.97805858 
   26400    218.96535    256.18422    127539.38    -40306.68    2724.3453   -43031.025    56.956524   0.97925431 
   26500    221.98752    280.39318    127500.66   -40367.062    2761.9468   -43129.009    57.200524   0.97955176 
   26600    217.94954    169.24504    127224.39   -40416.615    2711.7067   -43128.322    57.274871   0.98167881 
   26700    217.38241    271.09519    127341.35   -40436.777    2704.6505   -43141.428    57.645918   0.98077722 
   26800    221.46552     284.2818    127304.14   -40381.965    2755.4521   -43137.417    57.950373   0.98106387 
   26900    219.87891    226.21983     127334.3   -40387.388    2735.7117     -43123.1    58.124161    0.9808315 
   27000    218.10336    305.48766    127305.52   -40444.713    2713.6205   -43158.333    58.073433   0.98105324 
   27100    218.19565    299.58004    127518.39    -40451.64    2714.7687   -43166.408    58.343783   0.97941553 
   27200    218.62975    269.65117    127585.08   -40482.746    2720.1698   -43202.916    58.610152   0.97890358 
   27300    215.19688    302.36696    127534.87   -40500.848    2677.4583   -43178.306    58.664767   0.97928894 
   27400    220.87799    213.49874    127496.96   -40435.088    2748.1421    -43183.23    58.888583   0.97958013 
   27500    223.10496    361.47064       127529   -40368.915    2775.8498   -43144.765    59.236737   0.97933408 
   27600    223.63135    375.59433    127448.55   -40422.538    2782.3992   -43204.937    59.353692   0.97995225 
   27700    218.43156     319.3571    127667.71   -40423.396    2717.7039     -43141.1    59.782939   0.97827004 
   27800    220.90906    403.79956    128003.05   -40365.858    2748.5286   -43114.386    60.144693   0.97570717 
   27900    221.22436    180.73226       127756   -40384.224    2752.4516   -43136.676    60.100289   0.97759391 
   28000    223.04678    456.29491    127694.83     -40408.2     2775.126   -43183.326    59.922364   0.97806224 
   28100    220.58741    253.75904     127599.6    -40374.09    2744.5268   -43118.617    60.063466   0.97879216 
   28200    217.62066    397.05217    127402.52   -40417.482    2707.6147   -43125.096    60.225704   0.98030625 
   28300    218.15153    436.14608    127394.08    -40393.95    2714.2198    -43108.17    60.532179   0.98037123 
   28400    214.95698    157.04956    127402.16   -40425.569    2674.4735   -43100.043    60.457288   0.98030905 
   28500    215.77977    483.61825    127426.89   -40441.893    2684.7106   -43126.603    61.049171   0.98011882 
   28600    220.52238    202.88731    127492.06   -40413.725    2743.7176   -43157.443    61.301811   0.97961778 
   28700    216.67985    166.77481    127415.52    -40414.79    2695.9093   -43110.699     61.64302   0.98020628 
   28800    219.18221    197.25465    127367.07    -40378.11    2727.0433   -43105.153    61.883815   0.98057914 
   28900    219.96252    383.88815    127549.94   -40343.792    2736.7519   -43080.544    62.544343   0.97917323 
   29000    217.05678    149.38423    127629.42    -40419.47     2700.599   -43120.069    62.791959    0.9785635 
   29100    218.55991    255.83273    127807.69   -40372.145    2719.3008   -43091.446    63.020984   0.97719853 
   29200    219.41615     166.5714    127829.47   -40342.639     2729.954   -43072.593    63.137103   0.97703204 
   29300    218.03198    313.92453    127420.65   -40398.454    2712.7323   -43111.186    63.212739   0.98016679 
   29400    219.13172    345.46725    127622.99   -40445.486    2726.4153   -43171.902     63.40684   0.97861283 
   29500    213.72044    315.27889    127860.83   -40476.757    2659.0886   -43135.846    63.973504   0.97679242 
   29600    220.95357    214.41169    127668.24   -40407.817    2749.0825     -43156.9    64.173752   0.97826596 
   29700    221.74014    364.56388    127703.46    -40449.48    2758.8689   -43208.348    64.559311   0.97799613 
   29800    218.63213    329.65658    127686.34   -40424.221    2720.1994    -43144.42    64.922911   0.97812728 
   29900     218.8652    485.47182    127841.28   -40446.114    2723.0992   -43169.213    65.099358   0.97694184 
   30000    220.71922    279.45311    127886.87    -40430.75    2746.1668   -43176.917    65.097994   0.97659354 
   30100    217.75215    359.76739    128013.75   -40430.807    2709.2508   -43140.058    65.466731   0.97562559 
   30200     219.0276    313.23032    127984.23   -40445.183    2725.1197   -43170.303    65.719539   0.97585059 
   30300    220.93757    265.68276    127783.51   -40399.843    2748.8835   -43148.726    65.917492   0.97738351 
   30400    215.04225    447.89946    127817.92   -40379.603    2675.5344   -43055.137    66.057677   0.97712035 
   30500     218.8386    173.39378    127593.06   -40373.935    2722.7682   -43096.703    65.962265   0.97884232 
   30600    221.65138    174.60304     127560.7   -40364.832    2757.7645   -43122.596    66.294958   0.97909069 
   30700    221.44934    277.23383    127589.23   -40386.575    2755.2508   -43141.826     66.52547   0.97887172 
   30800    227.26444    253.82492    127582.59   -40324.149    2827.6017    -43151.75    66.549312   0.97892267 
   30900    212.80762    315.43112    127625.17   -40436.835    2647.7314   -43084.566    66.681807   0.97859609 
   31000    215.19889    210.84196    127527.76   -40465.422    2677.4833   -43142.905    67.160007    0.9793436 
   31100    215.08234    229.12791    127533.29   -40460.709    2676.0333   -43136.742    67.489634    0.9793011 
   31200    220.09735    248.36949    127458.11   -40459.812    2738.4295   -43198.241    67.883817   0.97987872 
   31300    216.14377    244.94557    127285.51   -40415.223    2689.2394   -43104.462    67.681039   0.98120745 
   31400    217.51732    358.11747    127557.61    -40385.84     2706.329   -43092.169    67.944947   0.97911436 
   31500     215.4407    331.76015    127501.56   -40442.269    2680.4919   -43122.761    67.808772   0.97954484 
   31600    220.89268    188.19758    127517.81   -40353.201    2748.3248   -43101.525    68.002405      0.97942 
   31700    222.56849    301.83609    127530.27   -40376.177    2769.1752   -43145.352    68.525109   0.97932427 
   31800     224.6225    225.73984    127424.71   -40319.419     2794.731    -43114.15    68.559261   0.98013554 
   31900    221.52239    380.84476    127482.58   -40313.717    2756.1597   -43069.877    68.852119   0.97969063 
   32000    222.94633    218.51233    127521.98   -40317.367    2773.8762   -43091.243    69.124755   0.97938798 
   32100    219.30946    264.86995    127658.58   -40317.769    2728.6267   -43046.396    69.228554   0.97833999 
   32200    223.22917    364.59072    127762.86   -40318.218    2777.3952   -43095.614    69.398907   0.97754147 
   32300    223.57084    302.47739    127916.15   -40307.115    2781.6462   -43088.761    69.941629   0.97637003 
   32400    222.32618    222.98531    127862.88   -40370.685    2766.1603   -43136.845    70.102075   0.97677675 
   32500    218.76398    144.47878    127798.61   -40373.089    2721.8398   -43094.929    70.683046   0.97726796 
   32600    225.00037    402.18622    127947.24   -40318.514    2799.4324   -43117.946    70.604612   0.97613275 
   32700    222.27756    357.88486     127955.1   -40393.354    2765.5554   -43158.909    70.713406    0.9760728 
   32800    218.33431    412.71439    128016.37    -40436.64     2716.494   -43153.134    70.694015   0.97560564 
   32900    218.80948    213.80014    128002.03   -40451.929    2722.4059   -43174.335    71.086974   0.97571493 
   33000    216.22422    299.78177    128011.97   -40508.695    2690.2403   -43198.936    71.287433   0.97563915 
   33100    216.87157    253.45913     128032.8   -40448.912    2698.2946   -43147.206    71.538777   0.97548042 
   33200    222.31431    491.46384    128007.03   -40486.448    2766.0127   -43252.461    71.618321   0.97567684 
   33300    219.38057    249.39411    127822.37   -40423.714    2729.5113   -43153.225    71.688661   0.97708636 
   33400    216.39158    351.87366    127732.37   -40506.058    2692.3226   -43198.381    71.892386    0.9777748 
   33500    218.16798    230.25194    127687.63   -40471.803    2714.4244   -43186.227    71.980432   0.97811735 
   33600    219.13984     310.5143    127446.26   -40429.701    2726.5163   -43156.217    72.330319   0.97996984 
   33700    221.58043    253.69285     127570.5   -40411.102    2756.8818   -43167.984      72.5526   0.97901542 
   33800    218.60314    372.56854    127494.67   -40401.893    2719.8387   -43121.731    72.881874   0.97959772 
   33900    222.01782    75.126328     127455.5   -40409.966    2762.3238    -43172.29     73.09154   0.97989878 
   34000    221.25242    497.28937    127399.49   -40375.058    2752.8007   -43127.859    73.277076   0.98032964 
   34100    218.35497    393.10668    127556.85     -40415.9     2716.751   -43132.651    73.454119   0.97912022 
   34200    223.41544     241.3174    127593.88   -40423.349    2779.7128   -43203.062    73.528282   0.97883605 
   34300    215.28161    526.79793    127643.51   -40453.183    2678.5126   -43131.696    73.538412   0.97845544 
   34400    215.95871    322.69644    127529.11   -40372.606     2686.937   -43059.543    73.918061   0.97933323 
   34500    221.13467    313.00792     127486.4   -40410.104    2751.3357    -43161.44    73.927175   0.97966127 
   34600    222.02846    208.83935    127251.01   -40395.222    2762.4562   -43157.678    74.234463   0.98147348 
   34700    220.70542    191.50832    127213.58   -40474.155     2745.995    -43220.15    74.422099   0.98176226 
   34800    221.06198    251.02402    127588.58   -40461.677    2750.4313   -43212.108    74.797311    0.9788767 
   34900    217.22264    414.54057    127815.48   -40469.276    2702.6626   -43171.938    75.354961   0.97713901 
   35000    218.62778    287.77444     127656.9   -40536.955    2720.1452     -43257.1    75.358992   0.97835286 
   35100    216.72844    470.76668    127713.73    -40473.48    2696.5138   -43169.994    75.423427   0.97791748 
   35200    222.33389    320.44068    127661.87   -40485.873    2766.2563   -43252.129    75.564791   0.97831477 
   35300    218.29629    278.36432    127916.19   -40495.363    2716.0209   -43211.384    75.962042   0.97636971 
   35400    218.60423    543.81042    127862.43   -40535.449    2719.8522   -43255.301    76.044747   0.97678024 
   35500    220.45411     208.3169    128179.27    -40439.95    2742.8683   -43182.818     76.30554   0.97436578 
   35600    218.49448    314.83816    128095.91   -40488.433    2718.4867    -43206.92    76.535421   0.97499984 
   35700    223.42883    134.18549    128069.89   -40451.342    2779.8794   -43231.221    76.513041   0.97519793 
   35800    220.58251    186.81936     127878.5   -40482.982    2744.4658   -43227.448    76.441321   0.97665747 
   35900    218.85822    185.43841    127987.01   -40433.998    2723.0124    -43157.01    76.626844   0.97582945 
   36000    222.37989    235.85535    127944.58   -40388.995    2766.8287   -43155.824    76.958864   0.97615301 
   36100    220.37488    229.31741    127955.51   -40412.749    2741.8825   -43154.631    77.187715   0.97606964 
   36200    219.11014    255.13829     128032.5   -40437.132    2726.1467   -43163.278    77.228321   0.97548275 
   36300    215.81074    486.90668    128089.05   -40477.767    2685.0959   -43162.863    77.279475   0.97505203 
   36400    222.27896    267.70211    128073.39   -40422.151    2765.5728   -43187.724    77.407939   0.97517128 
   36500     223.1822    322.55953    128075.13   -40409.073    2776.8108   -43185.884    77.780258     0.975158 
   36600    216.91941    276.16606    128045.26   -40537.492    2698.8898   -43236.382     77.94305   0.97538552 
   36700    219.23152     406.3026    128207.55    -40477.89    2727.6569   -43205.547    78.350876   0.97415083 
   36800    216.61699    423.49023    128116.46    -40483.05    2695.1271   -43178.177    78.357383   0.97484344 
   36900    216.46019    60.934217     128019.8   -40519.484    2693.1763    -43212.66    78.586105   0.97557951 
   37000    220.60644    259.02244    128326.13   -40458.632    2744.7635   -43203.395    78.950891   0.97325063 
   37100    221.88872    72.834121    128260.45   -40443.852    2760.7175   -43204.569     79.03933   0.97374902 
   37200    220.90494    270.03251    128118.25   -40503.103    2748.4774    -43251.58    79.269147   0.97482981 
   37300    218.38626    392.43072    128209.29   -40519.391    2717.1403   -43236.532    79.705202    0.9741376 
   37400    216.02414    338.12947     128085.2   -40543.035     2687.751   -43230.786    79.762181   0.97508139 
   37500    217.85605    314.85031    128146.97   -40545.161    2710.5434   -43255.704    79.881812   0.97461138 
   37600    220.72858    394.79422    128206.19    -40503.57    2746.2832   -43249.853    80.161111   0.97416116 
   37700    222.93597    118.65553    128190.47   -40515.256    2773.7473   -43289.003     80.26527   0.97428064 
   37800    218.45476    506.51678    128405.02   -40628.669    2717.9925   -43346.662    80.361761   0.97265271 
   37900    218.55679    274.75069    128520.09   -40600.454    2719.2619   -43319.716    80.653877   0.97178182 
   38000    220.53164      311.049    128468.22   -40587.936    2743.8328   -43331.769    80.908051   0.97217423 
   38100    217.50723    345.52299    128425.72   -40547.929    2706.2034   -43254.133    81.176652    0.9724959 
   38200    220.66283    290.70706    128526.89    -40545.25    2745.4651   -43290.716     81.33329   0.97173047 
   38300     225.4041    322.36809    128650.67   -40499.298    2804.4555   -43303.753    81.272864   0.97079553 
   38400    220.82933    295.30303    128497.76   -40575.621    2747.5367   -43323.157     81.57318   0.97195075 
   38500    220.52949    198.93754    128457.11   -40590.692    2743.8061   -43334.498    81.618382   0.97225834 
   38600    219.16878    329.89558    128235.21   -40536.807    2726.8763   -43263.683    81.769192   0.97394068 
   38700    220.66877    365.44398    128336.79   -40547.308    2745.5391   -43292.847    81.862036    0.9731698 
   38800     219.8517     443.0157    128302.33   -40576.253    2735.3731   -43311.626    82.164078   0.97343116 
   38900    222.15501     255.0371    128380.28   -40515.631    2764.0307   -43279.662    82.133251   0.97284018 
   39000    217.95944    367.11719    128445.67   -40558.941    2711.8297   -43270.771    82.346811   0.97234489 
   39100    216.76581    328.52855    128388.69   -40514.928    2696.9787   -43211.906    82.698463   0.97277645 
   39200    217.79015    202.00402    128413.42   -40553.755    2709.7236   -43263.479     82.89918   0.97258907 
   39300    217.71749    512.26953     128290.6   -40545.013    2708.8195   -43253.832    83.194353   0.97352021 
   39400    220.31321    370.61827    128249.03   -40506.151    2741.1152   -43247.266     83.33807   0.97383573 
   39500    223.94379    396.42081    128400.81   -40499.582    2786.2865   -43285.868    83.632935    0.9726846 
   39600    217.11078    167.53081    128487.65   -40547.278    2701.2709   -43248.549    83.580469   0.97202719 
   39700    219.42763      403.814    128407.34   -40487.154    2730.0969   -43217.251    83.578353   0.97263512 
   39800    218.73349    346.20736    128620.95   -40557.794    2721.4605   -43279.254    84.067681    0.9710198 
   39900    215.51938     385.2522    128555.14   -40595.034    2681.4708   -43276.505    84.381276   0.97151686 
   40000    215.42909    261.15664    128527.68   -40614.316    2680.3474   -43294.664    84.389518   0.97172445 
   40100    223.73086    256.40478    128648.72    -40521.09    2783.6373   -43304.727    84.679187   0.97081023 
   40200    217.99822    388.87851     128665.2   -40551.079    2712.3122   -43263.391    84.789823    0.9706859 
   40300    218.58905    323.14737    128730.29   -40522.981    2719.6634   -43242.644    84.963453   0.97019506 
   40400    229.51113    222.23421    128881.32    -40422.36    2855.5548   -43277.915     85.19489    0.9690581 
   40500     223.8071    211.95149    128878.48   -40453.241    2784.5859   -43237.827    85.173461   0.96907951 
   40600    220.63099    282.29856    128764.56   -40492.346     2745.069   -43237.415    85.219249   0.96993686 
   40700    221.95962    362.64092    128580.25   -40552.897    2761.5996   -43314.497    85.172048    0.9713272 
   40800    217.69133    505.10776    128546.01   -40589.908     2708.494   -43298.403     85.24994   0.97158588 
   40900    218.93309    388.59675    128669.09    -40629.15    2723.9439   -43353.094    85.367259   0.97065651 
   41000    219.03413    315.15301    128557.04   -40537.559     2725.201    -43262.76    85.754084   0.97150255 
   41100    220.60604    121.99848    128494.29   -40519.997    2744.7585   -43264.755    85.487334   0.97197698 
   41200    219.21915     298.8691     128613.7    -40543.54    2727.5029   -43271.043    85.631206   0.97107458 
   41300      215.883     270.4766    128687.26    -40699.42     2685.995   -43385.415    85.876687   0.97051945 
   41400    214.88977    364.30072    128799.11   -40650.088    2673.6373   -43323.725     86.23566   0.96967667 
   41500    217.42265    207.78542     128797.1   -40657.958    2705.1511   -43363.109    86.295861   0.96969178 
   41600    219.05566    265.17545     128839.3   -40620.724    2725.4688   -43346.193    86.337704   0.96937422 
   41700    222.67243    304.90843    128921.54   -40599.939    2770.4684   -43370.408    86.820326    0.9687558 
   41800    222.13882     243.1687    128815.02   -40608.239    2763.8292   -43372.068    86.954839   0.96955692 
   41900    220.95429      254.541    128816.07   -40578.779    2749.0914    -43327.87    87.361449   0.96954898 
   42000    219.12943    237.85226     128593.1   -40573.428    2726.3867   -43299.814    87.173108   0.97123009 
   42100    219.00615    304.78324    128712.86   -40572.064    2724.8528   -43296.917    87.265053   0.97032642 
   42200    221.95623    180.28849    128602.34   -40511.754    2761.5575   -43273.311    87.185634    0.9711603 
   42300    226.49782    357.06417    128595.92   -40487.236    2818.0635   -43305.299    87.302115   0.97120882 
   42400    221.42942     331.2133     128430.9    -40544.61     2755.003   -43299.613    87.456614   0.97245669 
   42500    218.55019    179.24168    128458.23   -40532.559    2719.1799   -43251.739     87.99161   0.97224984 
   42600    223.60763    252.12097    128485.52    -40520.04    2782.1041   -43302.144    87.811334   0.97204332 
   42700    221.43563    243.25789    128499.38   -40528.167    2755.0802   -43283.247    87.787629   0.97193847 
   42800     217.9466    230.80616    128499.88   -40474.466    2711.6701   -43186.136    88.100332   0.97193465 
   42900    219.68442    226.37568    128457.14    -40535.97    2733.2918   -43269.262    88.167251   0.97225809 
   43000      221.261    249.39399    128451.15   -40554.662    2752.9074   -43307.569    88.212741   0.97230341 
   43100    222.01118     426.3421    128335.35   -40530.749    2762.2411    -43292.99    88.408584   0.97318075 
   43200    221.88873     345.1113    128304.65   -40489.392    2760.7176    -43250.11    88.664974    0.9734136 
   43300    221.40964     185.8937    128462.86    -40505.52    2754.7569   -43260.277    88.906271   0.97221479 
   43400    220.97011    193.91472    128426.81   -40461.126    2749.2882   -43210.414    89.171793   0.97248772 
   43500    223.69773    211.19239    128237.35   -40462.023    2783.2251   -43245.248    89.312516   0.97392443 
   43600    225.91318    238.11866    128090.07   -40372.417    2810.7895   -43183.206    89.275686   0.97504431 
   43700    227.15472    246.74459     127836.3    -40401.72    2826.2366   -43227.957    89.311956   0.97697988 
   43800    223.04992    305.95151    127897.67   -40381.809    2775.1651   -43156.974    89.667162   0.97651104 
   43900    219.23153    208.28668    127816.67    -40430.15     2727.657   -43157.807    89.517847   0.97712988 
   44000    221.54051    289.26142    127806.76   -40466.909    2756.3851   -43223.294    89.688297   0.97720567 
   44100    217.22319    272.36308    127699.44   -40460.767    2702.6694   -43163.436    89.726398   0.97802696 
   44200    222.41121    437.00945    127516.99   -40499.264    2767.2182   -43266.482    89.961733   0.97942627 
   44300    218.61585     391.8316    127579.26   -40494.407    2719.9968   -43214.403    90.071451   0.97894821 
   44400    219.86784    87.941655    127792.04   -40455.401    2735.5739   -43190.975    90.286127   0.97731827 
   44500    217.61762    474.89539    128036.64   -40486.897    2707.5769   -43194.474    90.264272   0.97545114 
   44600    218.44052     211.4558    128088.43   -40570.203    2717.8154   -43288.018    90.649943   0.97505676 
   44700     216.2578    281.09825    127941.85   -40556.827    2690.6582   -43247.485    90.519408   0.97617388 
   44800    223.35512    369.26666    128046.02   -40526.473    2778.9623   -43305.436    90.762454   0.97537973 
   44900     221.8081    248.41182    128181.12   -40478.422    2759.7145   -43238.136    91.044505    0.9743517 
   45000    219.22338     345.4118     128069.1    -40479.36    2727.5557   -43206.916    91.131784   0.97520395 
   45100    222.46502    125.68177    127922.44   -40424.778    2767.8878   -43192.665    91.189593   0.97632199 
   45200    220.32393    127.45909    127812.59   -40480.037    2741.2485   -43221.286    91.220311   0.97716109 
   45300    217.65518    361.60634     127558.4   -40482.184    2708.0443   -43190.229     91.09205    0.9791083 
   45400    217.88855    150.16774    127676.12   -40445.567    2710.9477   -43156.514    91.442431   0.97820559 
   45500    222.03482    163.25625    127763.58    -40442.12    2762.5353   -43204.656    91.683732   0.97753596 
   45600    223.34124     226.1381    127860.14   -40435.699    2778.7896   -43214.489    91.694581    0.9767977 
   45700    219.82435    376.47197    128014.46   -40451.184    2735.0328   -43186.217    92.118617    0.9756202 
   45800    224.84452    410.23624    128034.17   -40390.142    2797.4933   -43187.635    91.946199   0.97546996 
   45900    224.05155    294.52419    128020.44   -40331.829    2787.6272   -43119.456    92.152392   0.97557463 
   46000    222.97004    315.78632    127933.46   -40313.542    2774.1712   -43087.713    92.246698    0.9762379 
   46100    226.78605    412.39111    127918.24   -40271.587    2821.6496   -43093.237     92.13512   0.97635401 
   46200    225.58172     444.5288    127805.65   -40263.361    2806.6654   -43070.026    92.303802   0.97721416 
   46300    224.94582    430.86644    127771.07   -40278.884    2798.7537   -43077.637    92.769987   0.97747861 
   46400    223.32601    338.65371    127619.44   -40299.633    2778.6002   -43078.233    92.997446      0.97864 
   46500    225.15776    245.13939    127413.87   -40316.929    2801.3906    -43118.32    92.967083   0.98021896 
   46600    220.51968    271.07253    127392.36   -40288.769     2743.684   -43032.453    93.105241   0.98038443 
   46700    213.66217    238.54677    127220.48   -40346.926    2658.3636   -43005.289    93.212012   0.98170904 
   46800    217.23019    490.68433    127325.87   -40377.467    2702.7565   -43080.223     93.50499   0.98089643 
   46900    223.63821     307.2942    127316.65   -40289.273    2782.4845   -43071.757    93.557864   0.98096749 
   47000    221.85814    271.27839    127385.71    -40273.43     2760.337   -43033.767    93.601606   0.98043565 
   47100    220.54927    428.57677    127340.24   -40256.092    2744.0522   -43000.144    94.122392   0.98078571 
   47200     219.2909    396.46867    127343.34   -40308.766    2728.3957   -43037.161    94.043174   0.98076185 
   47300    217.71552    345.36771    127379.02   -40325.057    2708.7949   -43033.852     94.22965   0.98048714 
   47400    219.21862    145.03628     127217.6    -40284.78    2727.4964   -43012.277    94.303795   0.98173123 
   47500    225.60477    200.27566    127272.99   -40218.862    2806.9522   -43025.815    94.814447   0.98130397 
   47600    227.60434    281.36374    127257.58    -40181.61    2831.8307    -43013.44    95.161421   0.98142283 
   47700    220.43827    226.12018    127304.96   -40217.689    2742.6711    -42960.36     95.37375   0.98105754 
   47800      222.725    125.56098    127296.75   -40227.557    2771.1224    -42998.68     95.59999   0.98112085 
   47900    222.45811    415.23893    127197.45   -40316.701    2767.8018   -43084.502     95.70909   0.98188679 
   48000     214.9609    444.50048     127344.8   -40342.178    2674.5223     -43016.7    96.348581   0.98075059 
   48100    221.41087    312.32924     127464.7   -40330.171    2754.7721   -43084.943    96.546558   0.97982806 
   48200    216.04073    308.55268    127446.65    -40364.56    2687.9574   -43052.517    96.759847   0.97996684 
   48300    220.22395    357.61635    127352.08   -40351.201    2740.0046   -43091.205    96.795075   0.98069452 
   48400    222.87518    167.71113    127181.01   -40285.009     2772.991       -43058    96.885029   0.98201371 
   48500    223.90405    348.14301    127147.46   -40357.173     2785.792   -43142.965    97.150191   0.98227282 
   48600    221.37397    426.97214    127437.31   -40376.351     2754.313   -43130.664    97.542692    0.9800387 
   48700    221.14467    337.59447    127361.92    -40356.33    2751.4601    -43107.79    97.922068    0.9806188 
   48800     220.5171     217.3037     127545.7   -40397.644    2743.6519   -43141.296    98.157024    0.9792058 
   48900    218.04197    361.39698    127581.13   -40387.492    2712.8567   -43100.349    98.110524   0.97893385 
   49000    219.73634    375.07345    127576.82   -40416.539    2733.9378   -43150.476    97.957697   0.97896695 
   49100    216.28636    326.15091    127568.35   -40397.041    2691.0135   -43088.055    98.199227   0.97903192 
   49200     218.4368    470.39913    127529.72   -40414.008    2717.7691   -43131.777    98.444623   0.97932854 
   49300    221.47088    160.87292    127617.02   -40367.108    2755.5188   -43122.627    98.786925   0.97865861 
   49400    218.20669    228.40714    127488.69   -40333.044     2714.906    -43047.95    98.964546   0.97964368 
   49500    218.19002    209.47619       127569   -40339.413    2714.6987   -43054.111     99.21021   0.97902694 
   49600    220.38276    455.22876    127595.96   -40331.527    2741.9805   -43073.508    99.409162   0.97882008 
   49700    219.71078    284.33988    127797.01   -40340.698    2733.6198   -43074.318    99.735943   0.97728025 
   49800    217.80315      190.448    127861.34   -40387.999    2709.8852   -43097.884    100.13678   0.97678857 
   49900    224.85202    147.01347    127823.26   -40268.087    2797.5866   -43065.673    100.29438   0.97707952 
   50000    221.46495    260.26537    127718.69   -40317.733     2755.445   -43073.178    100.62356    0.9778795 
   50100    221.99978    375.61871    127785.39   -40330.024    2762.0993   -43092.123    100.81918    0.9773691 
   50200    220.88943    142.39125    127618.75   -40377.478    2748.2845   -43125.763    100.89325   0.97864527 
   50300    224.21401    265.44071    127754.36   -40347.488    2789.6485   -43137.136    100.93089   0.97760652 
   50400    218.62693    287.22318     127777.4   -40370.609    2720.1347   -43090.743    100.81585    0.9774302 
   50500    215.31184      299.298    127643.91   -40396.818    2678.8886   -43075.706    101.20876   0.97845242 
   50600    215.56409    131.76648    127359.92   -40419.872     2682.027   -43101.899    101.36355   0.98063419 
   50700    220.17323    138.07079    127483.16   -40420.365    2739.3736   -43159.739    101.94375   0.97968622 
   50800    217.96877    256.09405    127627.12   -40417.156    2711.9459   -43129.102    101.61067   0.97858116 
   50900    222.62911    249.16629    127547.09   -40342.707    2769.9294   -43112.637    101.74592   0.97919514 
   51000    217.27739    209.77034    127548.17   -40377.761    2703.3438   -43081.104    102.01993   0.97918689 
   51100    212.63385    354.91062    127550.68   -40404.693    2645.5693   -43050.262     102.0778   0.97916761 
   51200    216.08886    330.41979    127559.06   -40377.404    2688.5562    -43065.96    102.01247   0.97910329 
   51300    218.01024    317.67213    127459.93   -40428.934    2712.4619   -43141.396    101.98566   0.97986472 
   51400    219.25014    276.30508    127585.47   -40430.303    2727.8886   -43158.192     101.9119    0.9789006 
   51500    217.30125    154.88174    127522.28   -40432.006    2703.6406   -43135.646    102.50246   0.97938563 
   51600    219.85788    279.31499    127500.21   -40376.341      2735.45   -43111.791    102.94205   0.97955516 
   51700    219.44033    320.28317    127393.67   -40363.741    2730.2549   -43093.995    103.02161   0.98037442 
   51800    217.99796    400.83022    127395.46   -40395.569    2712.3091   -43107.878     102.8867   0.98036061 
   51900    215.82045    362.42859    127257.35    -40439.24    2685.2167   -43124.456    103.07537   0.98142459 
   52000    216.46354    360.31992    127330.22   -40460.654     2693.218   -43153.872    103.16779   0.98086294 
   52100    217.45016    196.49915    127354.94   -40400.275    2705.4934   -43105.768    103.53344   0.98067253 
   52200    218.19788    315.45223    127096.12   -40416.389    2714.7964   -43131.186    103.60635   0.98266958 
   52300    216.14931    101.18113    127089.29   -40389.481    2689.3083   -43078.789    104.17528   0.98272239 
   52400     220.3906    375.89151    127118.96   -40327.349     2742.078   -43069.427    104.65394   0.98249302 
   52500    217.44156    206.82229    127190.77    -40328.76    2705.3864   -43034.146    104.58229   0.98193831 
   52600    218.78058    365.82774    127154.47   -40344.878    2722.0463   -43066.925    104.66609   0.98221867 
   52700    217.21194    555.70098    127273.89   -40351.729    2702.5295   -43054.259    104.76729   0.98129707 
   52800    222.37308    219.01308    127534.21   -40304.981    2766.7439   -43071.725    105.01108   0.97929403 
   52900    218.16492     308.8285    127492.41   -40306.107    2714.3864   -43020.494    105.18002   0.97961511 
   53000    222.27312    211.87796    127460.79   -40286.196    2765.5001   -43051.696    105.36357   0.97985811 
   53100    218.68015    480.05976    127384.28   -40329.402    2720.7968   -43050.199    105.73856   0.98044662 
   53200    218.12023    357.25378    127551.63   -40333.122    2713.8303   -43046.952    105.96642   0.97916028 
   53300    218.40615    125.24987    127522.56   -40328.018    2717.3878   -43045.406    106.42137   0.97938346 
   53400    220.89694    289.54366    127533.66   -40414.786    2748.3778   -43163.164    106.52353    0.9792983 
   53500    220.96117     341.6512    127522.08   -40428.264    2749.1771   -43177.441    106.57367   0.97938717 
   53600    214.42554     299.7753    127533.64   -40429.567    2667.8614   -43097.429    106.96071   0.97929844 
   53700    215.77892     424.6153    127468.57   -40455.871       2684.7   -43140.571    107.13462   0.97979831 
   53800    215.32861    483.29344    127589.27   -40335.341    2679.0972   -43014.438    107.76548   0.97887145 
   53900    220.22805    162.30061    127524.58   -40391.893    2740.0557   -43131.948    108.33119   0.97936801 
   54000    221.63168    263.57174    127380.95   -40369.904    2757.5194   -43127.424     108.3593   0.98047227 
   54100     220.7748     355.0602    127530.78   -40397.967    2746.8583   -43144.826    108.34742   0.97932041 
   54200    221.48006    421.05276    127543.57   -40391.748     2755.633   -43147.381     108.4677    0.9792222 
   54300    220.70817    362.84887    127570.39   -40364.324    2746.0292   -43110.354    108.53481   0.97901632 
   54400    217.72468    218.91815    127573.11   -40384.779     2708.909   -43093.688     108.8247    0.9789954 
   54500    219.32293     431.2321    127434.03   -40358.749    2728.7942   -43087.543    109.15129   0.98006387 
   54600    223.21017    445.10596    127337.48   -40280.987    2777.1589   -43058.146    108.73136   0.98080697 
   54700    221.10586    540.43414     127486.1   -40288.963    2750.9773    -43039.94    109.17582   0.97966358 
   54800    219.69485    167.37815    127548.25   -40360.708    2733.4216   -43094.129    109.59994   0.97918625 
   54900    219.07686    370.43339    127541.74   -40398.086    2725.7326   -43123.819    110.02216    0.9792362 
   55000    217.20158    317.63652    127369.98   -40443.939    2702.4006   -43146.339     109.7742   0.98055674 
   55100    217.89011    327.31762    127535.11   -40410.128    2710.9673   -43121.096    110.13792   0.97928711 
   55200    219.65319    442.30257    127460.07   -40420.001    2732.9033   -43152.904    110.47078   0.97986369 
   55300    217.57575    257.70685    127628.34   -40369.016     2707.056   -43076.072    110.55263   0.97857176 
   55400    216.15983    363.10877    127492.37   -40346.855    2689.4392   -43036.294    110.63512   0.97961539 
   55500    226.66256    281.99483    127456.65   -40291.116    2820.1132   -43111.229    110.87754   0.97988992 
   55600    216.42278     304.1913    127565.28   -40336.141    2692.7109   -43028.852    111.22577   0.97905551 
   55700    220.75294    250.44347    127378.65   -40333.819    2746.5863   -43080.406    111.45762   0.98049002 
   55800    220.56018    194.59427    127421.59    -40325.48    2744.1879   -43069.668    111.86582   0.98015955 
   55900    221.68714    261.58871    127457.52   -40286.888    2758.2095   -43045.097    111.80804   0.97988323 
   56000    222.60977    230.95702    127471.79   -40283.573    2769.6887   -43053.262    112.04728   0.97977361 
   56100    223.90539    127.66699    127484.59   -40255.425    2785.8088   -43041.234    112.05961   0.97967519 
   56200    221.23997    169.16899    127547.62   -40265.792    2752.6458   -43018.438    112.12574   0.97919106 
   56300    220.56421    366.72277     127425.6   -40315.679    2744.2381   -43059.917    112.28247   0.98012872 
   56400    220.88951    194.40696    127318.52   -40301.185    2748.2854    -43049.47    112.52225   0.98095306 
   56500    212.85265     257.2779    127141.42   -40366.581    2648.2916   -43014.873    112.36221   0.98231947 
   56600     216.4583    516.12206    127198.42   -40363.284    2693.1527   -43056.436    112.63855   0.98187928 
   56700    219.46975    232.85051    127446.96   -40401.245    2730.6209   -43131.866    112.69042   0.97996449 
   56800    217.47995    92.058385    127415.81   -40332.438    2705.8641   -43038.302    113.03853   0.98020402 
   56900    219.43723    152.25468    127371.87   -40302.325    2730.2163   -43032.541    113.41679   0.98054216 
   57000    218.03585    165.60359    127616.29   -40242.816    2712.7806   -42955.597    113.69773   0.97866414 
   57100    218.95543    136.93649    127486.78   -40302.069    2724.2218    -43026.29    114.25419   0.97965836 
   57200    214.88611    277.99579    127339.23   -40339.459    2673.5918   -43013.051    114.64223    0.9807935 
   57300    218.65018    156.62606    127385.03   -40393.827    2720.4239   -43114.251    114.64485    0.9804409 
   57400    213.66444    445.79806    127336.45   -40384.844    2658.3919   -43043.236    114.73463   0.98081494 
   57500    215.71567    293.07002    127375.36   -40435.779     2683.913   -43119.692    115.00019   0.98051531 
   57600    216.04222    363.50401     127408.6   -40403.169     2687.976   -43091.145    115.35598   0.98025952 
   57700    212.84248    83.285977    127484.66   -40448.515    2648.1652    -43096.68    115.67084   0.97967469 
   57800    213.98265    461.25146    127415.95   -40490.636     2662.351   -43152.987    115.81907   0.98020296 
   57900    215.71587    292.02097    127301.35   -40464.397    2683.9155   -43148.312    115.76991   0.98108536 
   58000    217.27869    367.82573    127502.21   -40468.347      2703.36   -43171.707    116.00854   0.97953979 
   58100     219.2434    239.71166     127701.8   -40407.841    2727.8047   -43135.645    116.46427   0.97800889 
   58200    222.45404    312.55611    127604.57   -40351.487    2767.7512   -43119.238    116.51438   0.97875409 
   58300    224.58972    282.20855     127473.6    -40275.55    2794.3231   -43069.873      116.888   0.97975968 
   58400    221.04083    254.19343    127341.81   -40289.633    2750.1682   -43039.801    117.10759   0.98077366 
   58500     220.2872    247.09384    127643.62   -40293.147    2740.7916   -43033.939     117.7176   0.97845464 
   58600    220.22508    154.21182    127662.53   -40254.569    2740.0187   -42994.588    117.87319   0.97830969 
   58700    222.69548    279.98519    127502.78   -40255.333    2770.7552   -43026.088    118.19646   0.97953547 
   58800    225.09698    280.21825    127587.48   -40311.928    2800.6344   -43112.562    118.32405   0.97888515 
   58900     219.3813    306.63298    127682.02   -40364.499    2729.5204   -43094.019    118.61382   0.97816034 
   59000    218.89738    282.34444    127590.66    -40356.57    2723.4996    -43080.07    118.76296   0.97886074 
   59100    216.99413    135.41011     127333.8   -40351.641    2699.8195   -43051.461    118.77859   0.98083537 
   59200    220.39614    479.90528    127384.61   -40362.216     2742.147   -43104.363    118.98691   0.98044411 
   59300    217.07493    298.52246    127580.29   -40350.584    2700.8249   -43051.409    119.36241    0.9789403 
   59400    218.90408    381.56703    127738.54   -40408.691     2723.583   -43132.274    119.68229   0.97772756 
   59500    218.73969    459.25756    127707.23   -40395.872    2721.5376    -43117.41      120.139   0.97796727 
   59600    218.94335    58.223004    127686.75   -40395.487    2724.0716   -43119.558    120.37831   0.97812414 
   59700    221.17424    367.62628    127550.22   -40418.839    2751.8281   -43170.667    120.24836   0.97917112 
   59800    218.24457     92.92147    127301.05   -40428.408    2715.3773   -43143.785    120.22967   0.98108767 
   59900    220.81332    370.67663    127187.35   -40399.871    2747.3375   -43147.208    120.49076   0.98196476 
   60000    217.79289    373.68574    127272.11   -40441.088    2709.7576   -43150.846    120.64405   0.98131074 
   60100    218.51134    269.25657    127296.34   -40383.346    2718.6965   -43102.043    120.72987   0.98112394 
   60200    216.32857    390.58193    127392.67   -40350.353    2691.5387   -43041.892    120.90718   0.98038207 
   60300    220.98727    153.28684    127188.72   -40315.279    2749.5017   -43064.781    121.29031   0.98195413 
   60400    228.13889    348.09695    127169.43   -40283.137    2838.4816   -43121.619    121.66699   0.98210312 
   60500    219.72218    230.26217    127119.97   -40311.973    2733.7616   -43045.735    121.56645   0.98248522 
   60600    218.96803    299.91191    127302.21   -40360.948    2724.3786   -43085.326    122.03469    0.9810787 
   60700    216.15384    246.72183     127198.3   -40381.965    2689.3647   -43071.329    121.94683   0.98188021 
   60800    218.97993     354.6473    127219.41   -40336.749    2724.5267   -43061.276    122.02267    0.9817173 
   60900     220.6175    302.80663    127345.88   -40305.707    2744.9012   -43050.609    122.28779    0.9807423 
   61000    221.69355    99.400201    127592.69   -40348.419    2758.2893   -43106.708    122.39864   0.97884518 
   61100    219.50674    318.54599     127540.6   -40389.372    2731.0812   -43120.453    122.37869   0.97924497 
   61200    218.67606    161.50616    127537.79   -40390.428     2720.746   -43111.174    122.95041   0.97926657 
   61300    218.32894    337.35267    127578.69   -40378.884    2716.4272   -43095.311    123.30707    0.9789526 
   61400    217.25424      313.458    127502.08   -40408.479    2703.0558   -43111.535      123.336   0.97954078 
   61500    219.98722     359.7792    127356.06   -40413.357    2737.0593   -43150.416    123.41808   0.98066393 
   61600    216.06307    420.38138    127429.79   -40364.788    2688.2353   -43053.024    123.33038   0.98009652 
   61700    216.39377    388.96387    127458.64   -40431.476    2692.3499   -43123.826    123.62073   0.97987468 
   61800    211.99401    276.71699    127393.35   -40518.334    2637.6085   -43155.943    123.51861   0.98037683 
   61900    213.50674    221.19956    127547.47   -40454.813    2656.4297   -43111.243     123.6869   0.97919221 
   62000    218.88559    358.11286    127532.36   -40421.071    2723.3529   -43144.423    123.74163   0.97930826 
   62100    221.32549    226.46112    127297.84   -40452.929    2753.7098   -43206.638    124.06999   0.98111243 
   62200    217.36314    429.71125    127323.51   -40386.249    2704.4107   -43090.659    124.39621   0.98091462 
   62300    217.77376    437.65824    127517.73     -40424.9    2709.5196    -43134.42    124.23933   0.97942056 
   62400    219.96785     75.83843    127616.08   -40368.185    2736.8183   -43105.004     124.7537    0.9786658 
   62500    221.11361    300.08242    127507.44   -40375.209    2751.0737   -43126.283    124.57561   0.97949965 
   62600    220.23891    356.88551    127619.82   -40371.074    2740.1907   -43111.265    124.73042   0.97863713 
   62700    215.83118    385.91476    127839.62   -40381.028    2685.3501   -43066.378    124.87063   0.97695446 
   62800    219.20736    386.36493    127940.64   -40366.593    2727.3563    -43093.95    125.08446   0.97618308 
   62900    221.43308    429.32735    127855.16   -40309.264    2755.0484   -43064.313    125.04546   0.97683572 
   63000    226.40484    474.35394    127844.46   -40270.328    2816.9067   -43087.234    125.53012   0.97691754 
   63100    221.49364    208.43997    127774.44   -40261.922     2755.802   -43017.724    125.70854   0.97745288 
   63200    222.58115    145.63755     127881.2   -40300.115    2769.3327   -43069.447    125.92279   0.97663682 
   63300    218.58178    227.99519    127703.81    -40349.48    2719.5729   -43069.053    126.22795   0.97799349 
   63400    222.96126     295.6439    127758.59   -40267.241    2774.0619   -43041.303    126.31152   0.97757412 
   63500    217.90727     419.5308    127657.25   -40362.324    2711.1807   -43073.504    126.58249   0.97835019 
   63600    215.99291     340.9368     127765.4   -40367.235    2687.3624   -43054.598    126.97672   0.97752198 
   63700     221.4352    273.36921    127518.05   -40376.384    2755.0748   -43131.459    126.68185   0.97941816 
   63800    213.40485    410.11739    127624.81   -40497.085     2655.162   -43152.247     127.2698   0.97859881 
   63900    219.53268    205.42463    127737.64   -40488.234    2731.4039   -43219.637    127.33645   0.97773442 
   64000    218.28078    278.54354    127659.86   -40468.244    2715.8278   -43184.072    127.37926   0.97833015 
   64100    217.82659    465.29377    127731.34   -40376.048    2710.1769   -43086.225    127.49016   0.97778265 
   64200    222.66517    327.04958    127788.19   -40380.617     2770.378   -43150.995    127.76784   0.97734766 
   64300    225.57305    139.65826    127912.06   -40300.723    2806.5576   -43107.281    128.07681   0.97640124 
   64400     226.2203    374.75025    127994.66   -40338.267    2814.6106   -43152.878    128.61335   0.97577111 
   64500    227.56848    302.02206     128067.7   -40330.135    2831.3845   -43161.519    128.68375   0.97521462 
   64600    218.64642    323.04161    127943.91   -40381.363    2720.3772    -43101.74    128.74896   0.97615813 
   64700    221.91838    309.58184    127833.01   -40398.846    2761.0866   -43159.932    128.82358   0.97700498 
   64800    220.32666    300.94395    127861.45   -40409.104    2741.2825   -43150.387    128.83475   0.97678773 
   64900    217.10152    212.33957    127575.43   -40387.155    2701.1557   -43088.311    128.91888   0.97897766 
   65000    223.26259    302.42716    127375.71   -40357.938    2777.8111    -43135.75    128.87473    0.9805126 
   65100    217.91542    363.17029    127565.38   -40380.647    2711.2821   -43091.929    129.34346   0.97905472 
   65200    221.07796    399.60999    127743.14   -40360.874    2750.6301   -43111.504    129.79593   0.97769238 
   65300    220.57423    250.93408    127669.07   -40358.013    2744.3628   -43102.376    129.96354    0.9782596 
   65400    219.47427    387.27126    127678.79    -40309.91    2730.6771   -43040.587    129.77135   0.97818513 
   65500    222.63931    299.29752    127782.61   -40376.735    2770.0563   -43146.792    129.60111   0.97739038 
   65600    220.12906    212.53917     127500.1   -40421.452     2738.824   -43160.276    129.71801   0.97955602 
   65700    219.04172    392.12776    127421.48   -40459.623    2725.2954   -43184.918    130.16487   0.98016042 
   65800    218.39427    345.65255    127574.77   -40478.201    2717.2399    -43195.44    130.87984   0.97898269 
   65900    217.15038    364.57911    127708.33   -40451.322    2701.7636   -43153.085    131.00872   0.97795884 
   66000    219.36701    246.98664    127658.31     -40349.2    2729.3426   -43078.542    131.08729   0.97834206 
   66100     220.7622    344.69258    127570.54   -40277.128    2746.7014   -43023.829    130.84925   0.97901518 
   66200    225.89809    5.0782178    127503.59     -40249.7    2810.6017   -43060.302    130.91964   0.97952923 
   66300    221.71301     370.2371    127618.87   -40296.548    2758.5313   -43055.079     131.3614    0.9786444 
   66400    222.83462    270.92515    127609.86   -40345.359    2772.4864   -43117.846    131.85791   0.97871345 
   66500    222.22252    269.13386    127397.43   -40357.931    2764.8706   -43122.802    131.97149   0.98034543 
   66600    221.81281    366.42766    127292.43   -40364.462     2759.773   -43124.235    132.14518   0.98115407 
   66700    217.59641    420.93628    127315.72   -40376.048     2707.313   -43083.361    132.25334   0.98097465 
   66800    220.85764    574.92869    127602.93   -40315.288     2747.889   -43063.177    132.81604   0.97876664 
[...]
   84600    215.89054    318.13541    127118.21   -40451.783    2686.0888   -43137.872    169.44564   0.98249881 
   84700     215.5164    354.99281    126992.75   -40466.584    2681.4337   -43148.018    169.41696   0.98346947 
   84800    216.76932    139.71317    126810.28   -40428.323    2697.0225   -43125.345    169.61607   0.98488456 
   84900    215.80833     294.4611    126740.88   -40395.549     2685.066   -43080.615    169.62969   0.98542387 
   85000     223.1044    157.54727    126963.66   -40336.251    2775.8429   -43112.094    170.00012   0.98369482 
   85100    217.76195    412.25121    127000.35   -40332.785    2709.3727   -43042.157    170.36605   0.98341057 
   85200    216.64494    326.97361    126984.99   -40338.553    2695.4749   -43034.028    170.80585   0.98352956 
   85300    215.75105    323.97287    127066.47   -40380.723    2684.3533   -43065.077     170.8137    0.9828989 
   85400    219.99756    284.91985    127020.31   -40366.251    2737.1879   -43103.439    170.63126   0.98325609 
   85500    220.08781    385.53413    127337.34   -40327.504    2738.3107   -43065.814    170.84209   0.98080809 
   85600     218.8945    330.39733    127353.32   -40301.094    2723.4637   -43024.557    171.57626   0.98068498 
   85700     219.6919    304.62833    127260.67    -40339.44    2733.3849   -43072.825    171.78003   0.98139899 
   85800     219.5421    353.65461    127151.35   -40343.476    2731.5211   -43074.997     172.0263   0.98224274 
   85900    223.83455    200.37519    127194.14   -40238.323    2784.9273    -43023.25    171.89128   0.98191233 
   86000    222.43147    281.51128    127013.09    -40271.39    2767.4703    -43038.86    171.50903   0.98331193 
   86100    221.49795    446.71451    126974.62   -40266.318    2755.8556   -43022.174    172.18458   0.98360989 
   86200    222.56928    329.35789    127251.36   -40234.499     2769.185   -43003.684    172.85419   0.98147076 
   86300    221.57604    127.14531    127425.54   -40270.845    2756.8271   -43027.672       173.45   0.98012922 
   86400    217.57927    290.29231    127159.16   -40278.046    2707.0998   -42985.146    173.31936   0.98218241 
   86500    221.84834    318.67921    127269.88   -40265.984    2760.2151   -43026.199    173.60335   0.98132798 
   86600    222.86515    360.79232    127389.31   -40213.976    2772.8661   -42986.842    173.86292    0.9804079 
   86700    226.46955    310.80485    127173.46   -40219.409    2817.7117    -43037.12    174.26314   0.98207198 
   86800    220.47959    324.17549    127207.49   -40293.894    2743.1852   -43037.079    174.19766   0.98180924 
   86900    223.12714    307.35078    127171.01    -40266.66    2776.1259   -43042.786    174.67791   0.98209092 
   87000    222.34361     333.2675    127086.91   -40266.925    2766.3772   -43033.303    174.49499   0.98274081 
   87100    216.13137     535.8298    127221.07   -40300.333    2689.0851   -42989.418    174.97008   0.98170447 
   87200    219.07304    258.05653    127133.85   -40304.445    2725.6851   -43030.131    174.85691   0.98237792 
   87300    221.10088    347.82428    127063.46   -40314.997    2750.9152   -43065.912    174.96655    0.9829222 
   87400    219.67539    251.15729    127217.33   -40328.696    2733.1795   -43061.876    175.58309   0.98173328 
   87500    219.43143    467.19963    127317.03   -40336.211    2730.1442   -43066.355    175.67513   0.98096456 
   87600    218.67838    93.822925    127592.22   -40360.337    2720.7748   -43081.112     176.1136   0.97884883 
   87700     220.4004    306.42013     127619.4   -40377.091       2742.2   -43119.291    176.07864   0.97864031 
   87800    218.75299    233.53985     127614.7   -40368.742    2721.7031   -43090.445    176.66312   0.97867635 
   87900    220.77087    254.83554    127779.06    -40396.89    2746.8093   -43143.699    176.87051   0.97741751 
   88000    219.54566    262.59576    127669.22    -40424.43    2731.5654   -43155.995    177.36555   0.97825847 
   88100    222.36042    236.43224    127728.46   -40344.875    2766.5863   -43111.462     177.6406   0.97780469 
   88200    219.66572     466.7426    127969.72   -40316.037    2733.0592   -43049.096    178.25562   0.97596126 
   88300    219.20377      385.445     127870.9   -40349.353    2727.3117   -43076.665    178.21186   0.97671548 
   88400    216.62424    422.55269    127972.85   -40454.247    2695.2174   -43149.464    178.39274   0.97593742 
   88500    220.03245    287.64884    127761.96   -40370.644     2737.622   -43108.266    178.61772   0.97754835 
   88600    219.92974    266.12837    127849.54   -40344.659     2736.344   -43081.003    178.64332    0.9768787 
   88700    225.12499     299.8324    127871.97   -40328.452    2800.9829   -43129.435    178.67373   0.97670733 
   88800    224.16468    298.43065     127915.3   -40271.817    2789.0347   -43060.852    178.70213   0.97637646 
   88900    222.34353     284.3014    127924.85    -40328.07    2766.3762   -43094.446    179.12226   0.97630359 
   89000    222.10542    319.09663    127968.11   -40313.526    2763.4137   -43076.939    179.30235   0.97597356 
   89100     216.6962    251.80003    127924.27   -40398.428    2696.1127   -43094.541    179.30015   0.97630801 
   89200    218.96932    329.29033    127817.33   -40431.598    2724.3947   -43155.992    179.25984   0.97712489 
   89300    219.42838    232.20666    127795.85   -40447.288    2730.1062   -43177.394    179.49469   0.97728907 
   89400    218.41543    353.91253    127617.83   -40472.943    2717.5031   -43190.446    179.41015   0.97865234 
   89500    218.93343    416.40194    127807.08   -40511.077     2723.948   -43235.025    179.57873   0.97720323 
   89600    214.25706    472.93159    127619.08   -40559.549    2665.7651   -43225.314    179.50431   0.97864276 
   89700    214.72446    315.04332    127760.93   -40535.082    2671.5806   -43206.662    179.54421    0.9775562 
   89800    216.67331    351.02396    127728.37   -40500.346    2695.8278   -43196.174    179.91104   0.97780538 
   89900    216.59652    343.43956    127635.32   -40553.822    2694.8725   -43248.695    179.99364   0.97851829 
   90000    220.63061    284.85448    127778.04   -40467.407    2745.0643   -43212.471    180.19649   0.97742535 
   90100    219.51406    191.07469    127712.08   -40482.589    2731.1722   -43213.761    180.85782   0.97793017 
   90200    214.28297    114.12665    127775.29   -40516.185    2666.0875   -43182.272    181.05935   0.97744636 
   90300    218.32179    220.60791    127670.62   -40535.454    2716.3381   -43251.792    181.07449   0.97824771 
   90400    219.91763    286.33813    127496.08   -40526.222    2736.1935   -43262.415    181.23219   0.97958691 
   90500    217.98257    249.57443    127454.72   -40478.262    2712.1176   -43190.379     181.5697   0.97990481 
   90600    224.11049    264.25543    127459.74   -40379.867    2788.3606   -43168.227    181.94859   0.97986623 
   90700    219.73035     365.8878    127411.66   -40378.137    2733.8633       -43112    181.98724   0.98023594 
   90800    222.08656    376.94019    127360.95   -40409.037     2763.179   -43172.216    181.89568   0.98062626 
   90900    218.00385    192.36886    127434.15   -40505.914    2712.3823   -43218.296    181.52069   0.98006298 
   91000    213.88716    170.91778    127311.82   -40513.675    2661.1629   -43174.838    181.62843    0.9810047 
   91100    219.11869    582.91897    127449.13    -40504.35    2726.2531   -43230.603    181.72488   0.97994778 
   91200    219.74801    312.12707    127672.69   -40467.003    2734.0831   -43201.086    182.22234   0.97823188 
   91300    219.33083    244.28256    127707.18   -40361.352    2728.8926   -43090.245    182.29398   0.97796762 
   91400    224.91387    399.38816    127684.74   -40331.105    2798.3562   -43129.461    182.52876   0.97813954 
   91500    222.00818    208.97002    127548.17    -40348.71    2762.2038   -43110.913    182.69112   0.97918685 
   91600    219.75594    246.48496    127351.38    -40405.45    2734.1816   -43139.632    182.91859   0.98069997 
   91700    217.06489    253.80166    127424.04   -40480.322    2700.6999   -43181.022    183.10694   0.98014073 
   91800     218.3019    410.45518    127270.55   -40443.905    2716.0906   -43159.995    182.81498    0.9813228 
   91900    220.27102    177.69433    127129.25   -40443.086    2740.5902   -43183.677    182.53625   0.98241349 
   92000    216.84644    417.45821     127312.4   -40450.715     2697.982   -43148.697    182.96284   0.98100019 
   92100    215.65547    302.62031    127344.14   -40490.871     2683.164   -43174.035     182.9828   0.98075567 
   92200    218.95981    370.55367    127522.51   -40414.823    2724.2764     -43139.1     183.8337   0.97938391 
   92300    219.29137    242.65512     127470.6   -40338.918    2728.4015   -43067.319    183.63638   0.97978274 
   92400    221.39811    162.33598    127521.22   -40332.198    2754.6134   -43086.811    184.22549   0.97939378 
   92500     217.6822    200.12428    127420.83   -40369.168    2708.3804   -43077.548    183.91511   0.98016542 
   92600    221.74184    189.79386    127492.18   -40331.691    2758.8901   -43090.582    184.33357   0.97961689 
   92700     223.3204    219.36112    127500.61   -40323.384    2778.5303   -43101.914    184.54589   0.97955207 
   92800    219.85034     423.7698    127335.21   -40382.069    2735.3562   -43117.425    184.63371   0.98082449 
   92900    219.77323    261.64882    127518.56    -40331.69    2734.3968   -43066.087    185.10814   0.97941425 
   93000    218.30761    209.97327    127420.35   -40372.993    2716.1617   -43089.155    185.09624   0.98016911 
   93100    224.26422    186.30713    127571.22   -40337.652    2790.2733   -43127.925    185.54222   0.97900991 
   93200    220.79674     524.0708    127616.12   -40358.537    2747.1312   -43105.668    185.92195   0.97866545 
   93300     219.8274    280.69179    127739.21    -40390.97    2735.0708   -43126.041    186.14453   0.97772246 
   93400    218.78735    52.480723    127673.52   -40434.578    2722.1306   -43156.709    186.27528   0.97822551 
   93500    217.35366    145.45562    127701.59   -40486.335    2704.2928   -43190.628    186.56607    0.9780105 
   93600    216.17122    280.95616     127651.5   -40563.055     2689.581   -43252.636    186.40298   0.97839422 
   93700    213.36608     568.6297    127811.81   -40525.946    2654.6797   -43180.626    186.84359   0.97716708 
   93800    218.13637    298.91078    127821.53   -40487.025    2714.0312   -43201.056     187.5002   0.97709274 
   93900    218.79687    246.83175    127981.96   -40478.865    2722.2491   -43201.114    187.36529   0.97586791 
   94000    214.76741    176.04025       127790   -40481.451    2672.1149   -43153.565     187.1121   0.97733386 
   94100    221.45121    371.64334    127786.35   -40484.941    2755.2741   -43240.215    187.08523   0.97736174 
   94200    219.49432     213.0495    127620.26   -40496.686    2730.9267   -43227.612    187.38759   0.97863374 
   94300    223.23611    262.56346    127657.34    -40464.55    2777.4817   -43242.031    187.71611   0.97834944 
   94400    223.29401    377.47849    127612.63   -40459.924    2778.2019   -43238.126     187.8327   0.97869227 
   94500    223.32765    335.64689    127767.84   -40398.344    2778.6205   -43176.965    188.39487   0.97750337 
   94600    220.46612    278.06394    127933.18   -40439.568    2743.0177   -43182.586     188.6883   0.97624006 
   94700    221.55564    226.39197    127859.54   -40478.476    2756.5733   -43235.049    188.77596   0.97680232 
   94800    218.74033     412.6588    127863.95    -40470.03    2721.5456   -43191.575    188.43215   0.97676864 
   94900    223.04285    306.71095    127886.49   -40444.683    2775.0771    -43219.76    188.24328   0.97659646 
   95000    225.27698    224.30404    127883.03   -40446.453    2802.8739   -43249.327    188.77053   0.97662285 
   95100     222.9667    417.94818    127847.22    -40444.52    2774.1296   -43218.649    188.68948   0.97689645 
   95200    220.37916      373.434    128047.76   -40458.904    2741.9357    -43200.84    188.70149   0.97536648 
   95300    223.03938    148.90981    127932.17    -40346.38    2775.0339   -43121.414    188.78829   0.97624775 
   95400    223.78352    131.52234    127629.35    -40392.48    2784.2924   -43176.772    188.36494   0.97856404 
   95500    221.42344    91.768769    127639.66   -40386.139    2754.9286   -43141.067    188.89083   0.97848498 
   95600    220.85321    285.62921    127554.49    -40355.56    2747.8338   -43103.394    188.56503   0.97913836 
   95700    221.51685    356.34183    127456.86   -40408.673    2756.0908   -43164.764    188.61487   0.97988837 
   95800    221.38814    40.357166    127591.79   -40462.542    2754.4893   -43217.031    189.08371   0.97885207 
   95900     218.8972     374.4507     127368.2   -40412.385    2723.4974   -43135.883    188.93135   0.98057045 
   96000    215.51318    376.72755    127481.31   -40482.615    2681.3937   -43164.009     188.9284   0.97970042 
   96100    219.53191    374.02537     127399.8   -40429.747    2731.3943   -43161.142    189.02106   0.98032719 
   96200    215.88203    125.86229    127464.44   -40461.226    2685.9829   -43147.208    189.25059   0.97983008 
   96300    220.05128    431.20464    127456.82   -40411.625    2737.8563   -43149.482     189.7715   0.97988867 
   96400    217.28882    315.06823    127468.54   -40382.503     2703.486   -43085.989    190.17587   0.97979859 
   96500    217.91855    256.76804    127389.87   -40417.926     2711.321   -43129.248    190.10776   0.98040362 
   96600      220.124    408.27197    127546.65   -40417.851    2738.7611   -43156.612    190.35801    0.9791985 
   96700    215.40337     359.4976    127682.43    -40500.74    2680.0274   -43180.767    190.48605   0.97815724 
   96800    212.90681    349.68407    127500.33   -40543.877    2648.9655   -43192.843    190.76048   0.97955427 
   96900    217.80291    295.46886    127693.65   -40473.533    2709.8823   -43183.415    191.12658   0.97807126 
   97000    214.92666    365.62534     127665.5   -40478.138    2674.0962   -43152.235    190.99376   0.97828691 
   97100    215.37034    306.54689    127890.96   -40467.068    2679.6165   -43146.684    191.36659   0.97656233 
   97200    214.29464    267.70553    127769.41   -40469.589    2666.2327   -43135.821    191.59306   0.97749131 
   97300    213.41452    326.16272    127895.99   -40482.769    2655.2824   -43138.052     192.0944   0.97652394 
   97400    217.83814    307.01843    127842.16   -40493.146    2710.3206   -43203.466    192.22069   0.97693506 
   97500    220.00649    274.16667     127894.2    -40393.08     2737.299   -43130.379    192.65485   0.97653754 
   97600    220.44718     265.7669    127786.75   -40463.556    2742.7821   -43206.338    192.98625   0.97735871 
   97700    221.26207    356.36987    127733.03   -40416.995    2752.9208   -43169.916    192.98407   0.97776975 
   97800     219.1446    123.24456    127676.82   -40400.527    2726.5755   -43127.102    193.24489   0.97820021 
   97900    220.14175     344.7355     127721.8   -40354.792    2738.9819   -43093.774     193.5091   0.97785569 
   98000    219.79726    281.73107    127769.76   -40375.006    2734.6957   -43109.701    193.33415   0.97748865 
   98100    217.73331    295.84497    127762.07    -40443.74    2709.0163   -43152.756    193.25258   0.97754748 
   98200    216.93911    294.15426    127788.29   -40421.077     2699.135   -43120.212    193.60959   0.97734688 
   98300    217.56137     291.8854    127698.57   -40441.369    2706.8771   -43148.246    193.55003   0.97803362 
   98400    222.09895    336.83638    127862.93    -40455.67    2763.3332   -43219.003    193.87582   0.97677636 
   98500    214.64144    473.58539    127906.39   -40473.487    2670.5476   -43144.035     193.7888   0.97644447 
   98600    220.32044    191.24118    127844.05   -40494.111    2741.2052   -43235.316    194.18242   0.97692066 
   98700    216.28756    556.21645    127692.15   -40554.166    2691.0284   -43245.194    194.68718   0.97808275 
   98800    217.67372    299.49754    127893.65   -40534.698    2708.2749   -43242.972     194.9843   0.97654173 
   98900    215.73369    314.62203     127609.9   -40546.442    2684.1372   -43230.579    195.06369   0.97871321 
   99000    214.78183    329.50566    127891.05   -40578.456    2672.2943    -43250.75    195.50345   0.97656162 
   99100    215.78491    223.00043    127737.46   -40486.998    2684.7745   -43171.773    195.05919   0.97773584 
   99200    218.21946    328.44952     127713.2   -40480.919    2715.0649   -43195.984    195.62514   0.97792152 
   99300    218.76093    210.06204    127634.82   -40420.874    2721.8019   -43142.676    195.38993   0.97852211 
   99400    224.88683    258.66389    127504.28   -40398.244    2798.0197   -43196.264    195.28156   0.97952392 
   99500    227.98347    333.68296    127453.69   -40268.831    2836.5478   -43105.379    195.04175   0.97991268 
   99600    223.16907    239.26733    127357.57   -40289.399    2776.6475   -43066.046    195.69313   0.98065226 
   99700     224.2237    290.81841    127344.91   -40275.522    2789.7691   -43065.291    195.81142   0.98074978 
   99800    223.80849    264.49206    127340.33   -40267.728    2784.6031   -43052.331    196.38667   0.98078501 
   99900    218.65354    446.06177    127357.71   -40298.735    2720.4657     -43019.2    196.79757    0.9806512 
  100000    218.28077    432.76703    127368.19   -40299.066    2715.8277   -43014.894    196.85488   0.98057052 
  100100    223.87195     172.6023    127462.48   -40222.665    2785.3927   -43008.058    197.08601    0.9798451 
  100200    225.09787    239.36407    127286.83   -40223.387    2800.6454   -43024.032    197.26863    0.9811973 
  100300    220.70794    338.95307    127293.34   -40199.556    2746.0264   -42945.582    197.23139   0.98114707 
  100400    223.69409     274.9937    127426.03   -40234.381    2783.1797   -43017.561     197.3361    0.9801254 
  100500    221.33823    201.10388    127620.86   -40153.297    2753.8684   -42907.165    198.01317   0.97862913 
  100600    223.51315    360.54313    127501.08   -40239.381    2780.9285   -43020.309     198.1089   0.97954846 
  100630    222.69538    290.52877    127531.43   -40227.401     2770.754   -42998.155     198.1339    0.9793154 
Loop time of 92.3086 on 6 procs for 100000 steps with 4175 atoms

Performance: 467.996 ns/day, 0.051 hours/ns, 1083.323 timesteps/s
98.7% CPU use with 6 MPI tasks x no OpenMP threads

MPI task timing breakdown:
Section |  min time  |  avg time  |  max time  |%varavg| %total
---------------------------------------------------------------
Pair    | 74.795     | 76.202     | 77.593     |  12.3 | 82.55
Neigh   | 5.1444     | 5.1568     | 5.1786     |   0.5 |  5.59
Comm    | 6.9765     | 8.3686     | 9.8139     |  37.3 |  9.07
Output  | 0.15991    | 0.16073    | 0.16439    |   0.4 |  0.17
Modify  | 1.7618     | 1.7894     | 1.8244     |   1.9 |  1.94
Other   |            | 0.6309     |            |       |  0.68

Nlocal:        695.833 ave         707 max         682 min
Histogram: 1 0 0 0 0 3 1 0 0 1
Nghost:        1488.00 ave        1497 max        1472 min
Histogram: 1 1 0 0 0 0 0 0 2 2
Neighs:        0.00000 ave           0 max           0 min
Histogram: 6 0 0 0 0 0 0 0 0 0
FullNghs:      19775.7 ave       20341 max       19176 min
Histogram: 1 0 0 0 2 1 1 0 0 1

Total # of neighbors = 118654
Ave neighs/atom = 28.420120
Neighbor list builds = 5575
Dangerous builds = 0

undump              1
unfix               2
unfix               3
unfix               4


################################################
#######         Run Simulation         #########
################################################

reset_timestep      0
log                 log.run_${NAME}
log                 log.run_liquid_density_MLmW
