
# Create simulation box of size 50 x 50 x 50 Angstrom
#
lattice	            sc 1
Lattice spacing in x,y,z = 1.0000000 1.0000000 1.0000000
region 	            all block 0 50 0 50 0 50 units box
create_box          1 all
Created orthogonal box = (0.0000000 0.0000000 0.0000000) to (50.000000 50.000000 50.000000)
  1 by 2 by 3 MPI processor grid

# fill box with 4169 randomly distributed atoms
#
create_atoms        1 random 4169 63782 all
Created 4169 atoms
  create_atoms CPU = 0.001 seconds
mass                1 18.015

# Define potential
#
pair_style          sw
pair_coeff          * * ML_mW.sw mW
Reading sw potential file ML_mW.sw with DATE: 2019-02-27

# Run minimization
#
minimize            1.0e-8 1.0e-8 10000 1000
WARNING: Using 'neigh_modify every 1 delay 0 check yes' setting during minimization (../min.cpp:187)
Neighbor list info ...
  update every 1 steps, delay 0 steps, check yes
  max neighbors/atom: 2000, page size: 100000
  master list distance cutoff = 6.0032907
  ghost atom cutoff = 6.0032907
  binsize = 3.0016454, bins = 17 17 17
  1 neighbor lists, perpetual/occasional/extra = 1 0 0
  (1) pair sw, perpetual
      attributes: full, newton on
      pair build: full/bin/atomonly
      stencil: full/bin/3d
      bin: standard
Per MPI rank memory allocation (min/avg/max) = 4.255 | 4.258 | 4.261 Mbytes
Step Temp E_pair E_mol TotEng Press 
       0            0    7783778.6            0    7783778.6    5891538.7 
     630            0   -45100.671            0   -45100.671   -33.645425 
Loop time of 1.2953 on 6 procs for 630 steps with 4169 atoms

99.0% CPU use with 6 MPI tasks x no OpenMP threads

Minimization stats:
  Stopping criterion = max force evaluations
  Energy initial, next-to-last, final = 
       7783778.6045464  -45100.6138394717  -45100.6714481628
  Force two-norm initial, final = 2.0191929e+08 1.9154294
  Force max component initial, final = 1.0948746e+08 0.55224559
  Final line search alpha, max atom move = 0.074060414 0.040899537
  Iterations, force evaluations = 630 1001

MPI task timing breakdown:
Section |  min time  |  avg time  |  max time  |%varavg| %total
---------------------------------------------------------------
Pair    | 0.92317    | 1.0177     | 1.0652     |   5.2 | 78.57
Neigh   | 0.024653   | 0.025235   | 0.02572    |   0.3 |  1.95
Comm    | 0.18083    | 0.22817    | 0.32234    |  11.0 | 17.62
Output  | 0          | 0          | 0          |   0.0 |  0.00
Modify  | 0          | 0          | 0          |   0.0 |  0.00
Other   |            | 0.02418    |            |       |  1.87

Nlocal:        694.833 ave         711 max         678 min
Histogram: 1 2 0 0 0 0 0 1 0 2
Nghost:        1484.33 ave        1523 max        1464 min
Histogram: 2 1 0 1 0 1 0 0 0 1
Neighs:        0.00000 ave           0 max           0 min
Histogram: 6 0 0 0 0 0 0 0 0 0
FullNghs:      19864.7 ave       20554 max       18883 min
Histogram: 1 0 0 2 0 0 0 0 1 2

Total # of neighbors = 119188
Ave neighs/atom = 28.589110
Neighbor list builds = 26
Dangerous builds = 0

# Add velocity/set timestep
#
velocity            all create ${TEMP} 120598 rot yes dist gaussian
velocity            all create 215 120598 rot yes dist gaussian
timestep            5.0

# Define output
#
compute	            1 all msd
thermo	            100
thermo_style        custom step temp press vol etotal ke pe c_1[4] density

# Neighbor lists
#
neigh_modify        delay 0 every 1 check yes

# Set fixes
#
fix                 1 all momentum 10 linear 1 1 1 rescale
fix                 2 all nve
fix                 3 all temp/csvr ${TEMP} ${TEMP} 500.0 928347
fix                 3 all temp/csvr 215 ${TEMP} 500.0 928347
fix                 3 all temp/csvr 215 215 500.0 928347
fix                 4 all press/berendsen iso ${PRES} ${PRES} 1000.0 modulus 20000
fix                 4 all press/berendsen iso 1 ${PRES} 1000.0 modulus 20000
fix                 4 all press/berendsen iso 1 1 1000.0 modulus 20000

# Run 0.5 ns equilibration
#
dump                1 all custom 1000 eq.${NAME}.dump id type x y z vx vy vz
dump                1 all custom 1000 eq.liquid_215K_1atm_ML.dump id type x y z vx vy vz
run                 100000
Per MPI rank memory allocation (min/avg/max) = 3.506 | 3.508 | 3.511 Mbytes
Step Temp Press Volume TotEng KinEng PotEng c_1[4] Density 
     630          215     943.1943       125000   -42429.508    2671.1635   -45100.671 2.1849767e-33   0.99771203 
     700    136.87216    288.09203    125592.77   -41598.716    1700.5019   -43299.218   0.23017415   0.99300303 
     800    167.35913    73.085412    125690.71   -40840.696    2079.2725   -42919.969   0.54917731   0.99222925 
     900    184.85906    17.338434    125870.52    -40396.05     2296.692   -42692.742   0.91778796   0.99081189 
    1000    199.90075   -135.18675    125716.68   -40133.664    2483.5702   -42617.234    1.2673419   0.99202435 
    1100    211.34675   -57.676621    125554.59   -39973.814    2625.7755    -42599.59    1.7393215     0.993305 
    1200    210.56388    51.295194    125472.98   -40022.906     2616.049   -42638.955    2.2164906   0.99395109 
    1300    209.81801   -26.384678    125384.78   -40024.549    2606.7824   -42631.332    2.6452171   0.99465027 
    1400    207.20035    96.371956    125494.73   -40064.197    2574.2605   -42638.458    3.0683527    0.9937788 
    1500    212.00969   -119.56848    125687.79   -40035.786    2634.0118   -42669.798    3.3386254   0.99225235 
    1600    217.69022   -175.87265    125838.79   -39962.543    2704.5868    -42667.13    3.7091807   0.99106167 
    1700    218.21109   -118.05361    125914.74   -40006.671    2711.0581   -42717.729    3.9644178   0.99046387 
    1800    211.78374    -54.10121    125965.42   -40109.872    2631.2046   -42741.076    4.2562053   0.99006539 
    1900    212.52138    107.84319    126028.33   -40125.223    2640.3691   -42765.592    4.5736423    0.9895712 
    2000    217.19617   -132.56759    126142.79   -40087.073    2698.4488   -42785.522    4.8351446   0.98867324 
    2100    213.96322    32.357235    126104.89   -40048.939    2658.2825   -42707.221    5.2023595   0.98897039 
    2200    215.68001    -178.5831    126099.81   -40096.717    2679.6119   -42776.329    5.5057436   0.98901026 
    2300    217.99064   -44.369615    126195.37   -40089.568    2708.3193   -42797.887    5.6958475   0.98826135 
    2400    214.43685    106.40453     126201.5   -40120.488    2664.1669   -42784.655    5.9922152   0.98821336 
    2500    219.39304    106.96351    126409.88   -40087.933    2725.7427   -42813.676    6.2454507   0.98658428 
    2600      219.569   -53.797063    126292.33   -40042.985    2727.9288   -42770.913     6.519497   0.98750258 
    2700    217.85609   -104.58349    126337.93   -40077.533    2706.6476   -42784.181    6.8658818   0.98714614 
    2800    222.29292    87.154713    126539.77   -40063.629    2761.7708   -42825.399     7.131683   0.98557161 
    2900    216.64448   -88.025884    126668.02   -40140.465    2691.5946    -42832.06      7.53578   0.98457371 
    3000    216.17585   -34.069582    126788.12   -40172.548    2685.7723    -42858.32    7.9057634    0.9836411 
    3100    216.34989    61.106687    126540.56   -40137.665    2687.9346   -42825.599    8.1466773   0.98556544 
    3200    214.88961   -12.616289    126649.92   -40179.071     2669.792   -42848.863    8.2220867   0.98471444 
    3300    216.26569    178.31532    126824.42   -40174.089    2686.8885   -42860.977    8.4396531   0.98335951 
    3400    218.03763   -23.699602    126894.01   -40223.878     2708.903   -42932.781    8.6480463   0.98282024 
    3500    216.48178   -158.20166    126809.14   -40267.206    2689.5731   -42956.779    8.8834329   0.98347805 
    3600     214.2289    37.888619    126961.53   -40325.073    2661.5834   -42986.656    9.0372631   0.98229759 
    3700     213.0919    95.877943    126788.49   -40400.727    2647.4572   -43048.185    9.2612886   0.98363821 
    3800    216.12812   -14.995382    126858.61   -40355.975    2685.1793   -43041.154    9.4348738   0.98309449 
    3900    213.69843   -32.940268    126813.03   -40387.784    2654.9927   -43042.777    9.7147136   0.98344786 
    4000     213.3455    39.835782    126818.64   -40373.757     2650.608   -43024.365    10.018253   0.98340432 
    4100    216.68585    219.42158    126954.01   -40350.155    2692.1086   -43042.264    10.248331   0.98235577 
    4200    214.53003   -84.774044    126986.16   -40352.238    2665.3246   -43017.562    10.376827   0.98210705 
    4300    214.40876    75.812768    127001.84   -40355.629    2663.8179   -43019.447    10.481281   0.98198576 
    4400    216.22351   -8.9574793    127096.71   -40339.117    2686.3644   -43025.481    10.647106   0.98125277 
    4500    218.30676    61.621981    127184.55   -40352.074    2712.2467   -43064.321      10.8404   0.98057508 
    4600    209.25046    86.989075    127033.57   -40402.494    2599.7312   -43002.225    11.114535   0.98174053 
    4700    214.20144    100.34181     127181.9   -40323.357    2661.2422   -42984.599    11.434286   0.98059556 
    4800    213.42181    25.618005    127257.24   -40390.703    2651.5561    -43042.26    11.716016   0.98001502 
    4900    217.69773    85.824537    127240.03   -40273.462    2704.6801   -42978.142    11.902522   0.98014751 
    5000    221.12028    71.053613    127320.47   -40243.404     2747.202   -42990.606    12.022892   0.97952827 
    5100    219.95187    13.896985    127440.14   -40327.149    2732.6856   -43059.835    12.237738   0.97860846 
    5200      216.735   -30.573487    127295.98   -40386.875    2692.7191   -43079.594    12.387318   0.97971672 
    5300    211.68471   -73.375414    127253.73   -40367.929    2629.9743   -42997.904    12.533797   0.98004201 
    5400     217.2503   -123.37126    127370.46   -40415.548    2699.1213    -43114.67    12.743406   0.97914384 
    5500    212.55487    144.13541    127152.14   -40425.124    2640.7851   -43065.909    12.906228   0.98082505 
    5600     214.7784    7.2126402    127309.87   -40428.804    2668.4103   -43097.214    13.137961   0.97960984 
    5700    214.83084     97.29565    127470.61   -40424.928    2669.0618    -43093.99    13.413373   0.97837457 
    5800    212.82306    10.880569    127482.01   -40463.625    2644.1172   -43107.742    13.461253   0.97828707 
    5900     213.2303   -55.349151    127731.83   -40497.142    2649.1767   -43146.319    13.700386   0.97637376 
    6000    210.82448   -40.649829    127618.34   -40512.545    2619.2868   -43131.832    13.969762   0.97724201 
    6100    216.13629   -16.482013     127707.6   -40457.221    2685.2808   -43142.502    14.096923   0.97655895 
    6200    216.46058   -34.150822    127810.97   -40529.877    2689.3098   -43219.187    14.267722   0.97576915 
    6300     210.7465   -39.824961    127906.51    -40502.28     2618.318   -43120.598    14.372663   0.97504034 
    6400     218.0021    32.904417    128091.76   -40487.575    2708.4616   -43196.037     14.56859   0.97363016 
    6500    215.74342   -2.7377989    128403.61   -40437.958    2680.3998   -43118.358    14.887389   0.97126554 
    6600    212.43114    186.22956    128415.46   -40505.925    2639.2479   -43145.173    15.016572   0.97117593 
    6700    211.75178   -82.099377    128499.48   -40566.347    2630.8075   -43197.155    15.155885   0.97054092 
    6800    213.13668   -61.753336    128382.33   -40488.312    2648.0136   -43136.325    15.370833   0.97142656 
    6900    214.63391    168.56415    128419.06   -40442.099    2666.6152   -43108.714    15.465351   0.97114869 
    7000    217.53593    50.459209    128345.54   -40435.369    2702.6699   -43138.039    15.584428   0.97170501 
    7100    217.27964    114.06437    128507.13   -40473.784    2699.4858   -43173.269    15.533838   0.97048316 
    7200    212.96483    23.568861    128633.79   -40541.144    2645.8786   -43187.022     15.75029   0.96952759 
    7300    211.63132   -79.403933    128669.57   -40609.068    2629.3109   -43238.379    15.819639   0.96925795 
    7400    215.29411   -249.57938    128699.43   -40650.227    2674.8175   -43325.044    15.891513    0.9690331 
    7500    214.75136    21.537367    128496.41   -40615.121    2668.0745   -43283.195     15.97231   0.97056412 
    7600    212.07664    130.04686    128618.53   -40690.883    2634.8437   -43325.726    16.071387   0.96964255 
    7700    217.47091    38.633328    128986.85   -40602.555    2701.8621   -43304.417    16.289264   0.96687379 
    7800    219.56183   -63.260183     128899.4    -40594.46    2727.8397     -43322.3     16.38614   0.96752974 
    7900    214.02333     112.8583    128904.18   -40667.846    2659.0293   -43326.876    16.645539   0.96749387 
    8000    215.36319   -27.790579    128923.93   -40648.089    2675.6758   -43323.765    16.887555   0.96734563 
    8100    212.42768   -10.617431    128963.51   -40724.454     2639.205   -43363.659    16.886607   0.96704879 
    8200    210.30664    13.744206    128858.74   -40745.215    2612.8531   -43358.068    16.855203   0.96783504 
    8300    213.25037    48.088413    128891.61   -40732.573    2649.4261   -43381.999     16.92772   0.96758824 
    8400    216.30282   -70.920417    128816.87   -40688.139    2687.3498   -43375.489    17.173689   0.96814961 
    8500    216.93125   -3.4361268    128842.22   -40625.594    2695.1574   -43320.751    17.483435   0.96795911 
    8600    215.36995   -57.517758    129058.17   -40644.782    2675.7598   -43320.542    17.613134   0.96633946 
    8700    214.88886   -118.68173    128936.03   -40622.137    2669.7827   -43291.919    17.934355   0.96725484 
    8800    212.97814    -197.3669    128814.08   -40660.729    2646.0439   -43306.772    17.945845    0.9681706 
    8900    213.82686   -98.354547    129057.42   -40739.972    2656.5883    -43396.56    18.128732   0.96634512 
    9000    215.56719    23.723027    129266.61   -40703.295    2678.2103   -43381.505    18.359451   0.96478124 
    9100     212.1638   -77.531685    129372.33   -40773.267    2635.9265   -43409.194    18.570925   0.96399284 
    9200    216.15803   -14.440392    129451.59   -40691.151    2685.5509   -43376.702    18.672007   0.96340261 
    9300    213.66954     236.6037    129358.35   -40740.448    2654.6339   -43395.082    18.711074   0.96409707 
    9400    215.61546   -16.247241    129381.87   -40712.349    2678.8099   -43391.159    18.848153   0.96392179 
    9500    214.45299    7.8738553    129433.77   -40724.682    2664.3674   -43389.049    19.163459   0.96353528 
    9600    214.40614     138.3696    129475.02   -40709.527    2663.7853   -43373.312    19.410236   0.96322833 
    9700    214.24078    187.10303    129606.52   -40650.419     2661.731    -43312.15    19.598187   0.96225098 
    9800    216.47373   -143.13984    129511.95   -40734.939    2689.4732   -43424.413     19.58833   0.96295363 
    9900    215.65309    71.727923    129442.28   -40818.325    2679.2775   -43497.603    19.564277   0.96347195 
   10000    214.38071   -149.40333    129562.06   -40822.179    2663.4694   -43485.648    19.610981   0.96258121 
   10100    213.87417   -4.0781616    129428.56   -40787.038    2657.1761   -43444.214    19.721931   0.96357409 
   10200    212.62306    3.8665982    129467.33   -40841.656    2641.6324   -43483.288    19.668259   0.96328552 
   10300    208.99201   -203.80622    129372.58   -40831.259    2596.5201   -43427.779    19.786995   0.96399098 
   10400    211.32369   -151.68626    129528.91   -40773.853     2625.489   -43399.342    19.955235   0.96282759 
   10500     216.0935   -44.768973    129577.87    -40756.04    2684.7491   -43440.789    20.085919   0.96246374 
   10600    218.15603   -19.677397    129754.91   -40701.539     2710.374   -43411.913    20.234826   0.96115052 
   10700    219.69284   -128.76145    129607.19   -40683.945    2729.4675   -43413.412    20.228486   0.96224604 
   10800    215.39581   -25.852116    129351.92   -40668.939    2676.0811    -43345.02    20.284494   0.96414497 
   10900    219.97926   -151.31879    129373.77   -40693.028    2733.0258   -43426.054    20.468177    0.9639821 
   11000    219.89343    43.036983    129357.97   -40676.924    2731.9596   -43408.884    20.521634   0.96409985 
   11100     210.5178   -21.564972    129304.38   -40711.571    2615.4766   -43327.048    20.693939   0.96449944 
   11200    217.05865    56.065255    129205.82   -40702.226    2696.7402   -43398.966    20.700217   0.96523515 
   11300    218.14003    -137.9084    129211.22    -40691.83    2710.1752   -43402.005    20.872619   0.96519486 
   11400    219.23369   -151.38819    129372.31   -40694.923     2723.763   -43418.686     21.04685   0.96399303 
   11500    213.12347    33.577569    129377.45   -40727.431    2647.8494    -43375.28    21.094468   0.96395475 
   11600     216.0173    31.396946    129502.28   -40737.284    2683.8024   -43421.087    21.256852   0.96302555 
   11700    220.29454   0.52105354    129595.63   -40644.213    2736.9429   -43381.156    21.267507   0.96233189 
   11800     213.8101   -36.573057    129735.78   -40726.061    2656.3802   -43382.442    21.507235   0.96129229 
   11900    214.16631   -9.4923554    129543.07   -40749.282    2660.8057   -43410.088     21.77618   0.96272234 
   12000    214.61955    17.205203    129549.54   -40763.417    2666.4367   -43429.854    21.818052   0.96267424 
   12100    216.46909    133.88214    129573.98   -40722.094    2689.4155   -43411.509    21.845054   0.96249268 
   12200    215.97978    35.903313    129831.69   -40721.119    2683.3363   -43404.455    22.019183   0.96058213 
   12300    214.85196    53.015757    129720.24   -40747.014    2669.3242   -43416.338    22.125873   0.96140744 
   12400    217.20883   -120.27521    129701.34   -40729.778    2698.6061   -43428.384    22.245834   0.96154755 
   12500    213.22515    95.112344    129666.34   -40826.072    2649.1128   -43475.185    22.276772   0.96180708 
   12600    213.64874    4.8660341    129746.62   -40751.325    2654.3754   -43405.701    22.377558   0.96121196 
   12700    213.22397   -71.952277    129765.46   -40722.143    2649.0981   -43371.241    22.412177   0.96107243 
   12800     216.2965   -10.868201     129738.6   -40697.125    2687.2712   -43384.396    22.632773   0.96127135 
   12900    215.48035   -125.81483    129777.14   -40748.728    2677.1314   -43425.859    22.783893    0.9609859 
   13000    217.26373    108.16084    129925.11   -40696.498    2699.2881   -43395.786    22.731156   0.95989145 
   13100    218.10043   -66.047774    129619.48   -40701.465    2709.6832   -43411.149    22.876968    0.9621548 
   13200     219.9397    71.781682    129683.04   -40618.521    2732.5344   -43351.056    22.923082   0.96168326 
   13300    218.88105   -64.854981    129822.72   -40676.576    2719.3817   -43395.958     23.09115   0.96064849 
   13400    217.48772   -158.51656    129760.86   -40757.472     2702.071   -43459.543    23.253729   0.96110647 
   13500     212.3136   -195.03954    129755.57   -40794.484    2637.7877   -43432.272    23.236361   0.96114564 
   13600    212.47845   -56.841959    129679.69   -40837.877    2639.8357   -43477.713    23.477266   0.96170809 
   13700    212.49016   -77.097946    129551.46   -40838.128    2639.9812   -43478.109    23.676889   0.96265996 
   13800    218.23124    38.165837    129611.71   -40755.645    2711.3085   -43466.953    23.869256   0.96221248 
   13900    214.70989    240.99302    129641.83   -40803.913    2667.5592   -43471.472     24.08594   0.96198888 
   14000    213.38957    100.23211    129663.35   -40805.224    2651.1555    -43456.38    24.041494   0.96182924 
   14100    213.03888    98.357859    129914.82   -40809.332    2646.7985    -43456.13    24.031787   0.95996749 
   14200    213.74081    108.00785    129943.77   -40848.045    2655.5193   -43503.564    24.262622   0.95975364 
   14300    213.09247   -142.24661    129874.59   -40902.086    2647.4644    -43549.55    24.222237   0.96026485 
   14400    212.72592   -57.258326    129744.94   -40869.312    2642.9103   -43512.222    24.307619   0.96122442 
   14500    215.62144    -37.76404    129629.47   -40808.679    2678.8843   -43487.564      24.5135   0.96208065 
   14600    214.05898   -65.402101    129585.86   -40813.237    2659.4722   -43472.709     24.35798   0.96240443 
   14700    213.25308    88.833945    129702.15    -40855.52    2649.4597    -43504.98    24.592447   0.96154151 
   14800    215.60436   0.93443683     129812.8    -40908.63    2678.6721   -43587.302    24.897503   0.96072191 
   14900    208.81243    101.30056    129819.91   -40987.656     2594.289   -43581.945    24.902559   0.96066934 
   15000    212.22377    16.697185    130000.26   -40985.433    2636.6716   -43622.104     24.99451   0.95933658 
   15100    210.54334     -55.9761    130047.32   -41017.976    2615.7939    -43633.77    25.116605   0.95898941 
   15200    211.75032    88.752343    129990.92    -40952.36    2630.7894   -43583.149    25.116825   0.95940553 
   15300    211.63489    74.326565    129956.75   -40961.329    2629.3553   -43590.684     25.44887   0.95965775 
   15400    212.28252   -1.0477004    129797.88   -40946.425    2637.4015   -43583.826     25.38833   0.96083238 
   15500    215.38672   -18.368049    130018.39   -40929.058    2675.9681   -43605.026    25.568098   0.95920282 
   15600    215.20557    119.87021    130156.75   -40856.246    2673.7175   -43529.963    25.663346   0.95818318 
   15700    209.65191    74.098922    130036.15   -40932.402    2604.7187   -43537.121    26.012574   0.95907182 
   15800    210.93946   -133.17974    130143.45   -40940.138    2620.7153   -43560.854    25.952022   0.95828104 
   15900    209.94944    146.89778    130165.11   -40978.411    2608.4152   -43586.826    25.939102   0.95812158 
   16000    216.12877   -44.941677    130291.91    -40920.81    2685.1874   -43605.997    26.182133   0.95718917 
   16100    216.42447   -58.575882    130274.25   -40877.092    2688.8612   -43565.954    26.199162   0.95731893 
   16200    216.73868    69.457262    130323.41   -40927.171    2692.7649   -43619.935    26.314966   0.95695782 
   16300    214.05221   -182.22689     130285.1   -40947.445    2659.3881   -43606.833    26.481256    0.9572392 
   16400    215.43876   -103.05021    130303.19   -40865.199    2676.6146   -43541.814    26.643175    0.9571063 
   16500    217.85218   -121.17141    130248.85   -40860.457    2706.5991   -43567.056    26.652418   0.95750563 
   16600    218.55121     16.69013    130190.01   -40847.494    2715.2838   -43562.778    26.733068   0.95793834 
   16700    213.66852   -16.265008    130116.44   -40866.192    2654.6212   -43520.813    26.719977   0.95848002 
   16800    219.69268   -33.613553    130265.23   -40849.291    2729.4655   -43578.757    26.684898   0.95738518 
   16900    217.90201   -77.043141    130325.02   -40823.534    2707.2181   -43530.753    26.764606   0.95694596 
   17000    215.66707    47.678966    130152.05   -40855.157    2679.4512   -43534.608      26.8345   0.95821774 
   17100    215.72546    55.803083    130140.23   -40781.959    2680.1766   -43462.136    26.935213   0.95830479 
   17200    215.06688    203.48206    130059.81   -40790.365    2671.9945   -43462.359    26.883523    0.9588973 
   17300    215.26654    35.880757    130150.47   -40846.873     2674.475   -43521.348     26.99279   0.95822941 
   17400    217.08656   -47.288344    130194.98   -40866.868     2697.087   -43563.955    27.378802   0.95790182 
   17500     215.8556   -172.35565    130063.59   -40853.941    2681.7935   -43535.734    27.404398   0.95886946 
   17600    212.87998    40.714078    130166.12    -40817.07    2644.8243   -43461.895    27.410745   0.95811418 
   17700    217.12366   -43.843559    130232.13   -40841.411    2697.5479   -43538.959    27.419809   0.95762856 
   17800    214.10849   -29.744564    130159.48   -40847.822    2660.0874   -43507.909    27.577494   0.95816301 
   17900     220.0558    12.562656    130146.69   -40816.492    2733.9768   -43550.469    27.637983   0.95825724 
   18000    216.26898   -32.328174    130203.84   -40775.357    2686.9294   -43462.286    27.628524   0.95783662 
   18100    213.67007    28.583779    130376.56   -40877.306    2654.6404   -43531.947    27.793304   0.95656771 
   18200    217.79262    68.664204    130386.98   -40870.037    2705.8591   -43575.896    27.805093   0.95649125 
   18300    220.43372    13.634957    130550.56   -40790.975    2738.6721   -43529.647    27.942284   0.95529271 
   18400    211.12126    61.592457    130437.25   -40859.833     2622.974   -43482.807    28.005488   0.95612258 
   18500    215.35188   -39.783124       130524   -40823.155    2675.5353   -43498.691    28.153979   0.95548716 
   18600    213.72201    109.41004    130455.56   -40869.274    2655.2858    -43524.56    28.370676   0.95598839 
   18700    218.11771   -42.726549    130541.63   -40833.606     2709.898   -43543.504    28.515119   0.95535807 
   18800    217.46079   -91.686138    130599.55    -40803.25    2701.7364   -43504.986    28.557918   0.95493438 
   18900    215.26874    57.075444    130527.93   -40842.883    2674.5024   -43517.385    28.576807    0.9554584 
   19000    215.88798   -7.1660568    130589.11   -40820.579    2682.1958   -43502.775    28.723448   0.95501076 
   19100    215.76451    -61.06568    130284.69   -40871.333    2680.6618   -43551.994     28.76094   0.95724219 
   19200     215.9138   -11.281166    130204.18   -40853.202    2682.5166   -43535.718     29.12216   0.95783409 
   19300    217.15127     79.68269    130136.88   -40793.915     2697.891   -43491.806    29.221499   0.95832945 
   19400    212.90413    177.54935    130223.28   -40796.169    2645.1243   -43441.293     29.23862   0.95769363 
   19500    219.65279   -29.786274    130252.39   -40794.412    2728.9698   -43523.382    29.307991   0.95747958 
   19600    218.94476    68.346071    130240.54   -40836.928    2720.1733   -43557.102    29.400945   0.95756668 
   19700    221.18069   -105.47948    130143.95   -40841.651    2747.9524   -43589.603    29.398951   0.95827735 
   19800    218.47312    -1.372523    130374.02   -40890.855    2714.3136   -43605.169    29.562337    0.9565863 
   19900    213.19255   -44.771758    130518.57   -40899.425    2648.7077   -43548.133     29.86524    0.9555269 
   20000    213.84512    69.986894    130453.79   -40945.118    2656.8153   -43601.933    29.910435    0.9560014 
   20100    214.20759   -77.428255    130402.94   -40908.332    2661.3186   -43569.651    30.115411   0.95637419 
   20200    213.86264    64.334272    130506.47   -40945.615    2657.0329   -43602.648    30.175161   0.95561551 
   20300    211.15451    129.93359    130423.28   -40972.443     2623.387    -43595.83    30.192314   0.95622501 
   20400    213.55863   -79.799783     130500.1   -40979.797    2653.2559   -43633.053    30.132841   0.95566213 
   20500     214.2471   -15.809718       130340    -40944.26    2661.8095    -43606.07    30.149443   0.95683601 
   20600    213.95017    95.177712     130451.4   -40981.154    2658.1204   -43639.274    30.315147    0.9560189 
   20700    215.95202    85.932447    130330.03   -40926.677    2682.9915   -43609.668     30.30763   0.95690921 
   20800    214.29126    116.01235    130220.01   -40917.148    2662.3581   -43579.506     30.23369   0.95771768 
   20900    214.36023   -6.2321899    130236.08   -40939.568     2663.215   -43602.783    30.324229   0.95759946 
   21000    209.86841  -0.03062877    130194.78   -41023.492    2607.4085   -43630.901    30.389888   0.95790326 
   21100    211.66459    34.689515    130393.17   -41041.133    2629.7243   -43670.857    30.558199   0.95644582 
   21200    216.03062   -32.823091    130437.39   -41022.003     2683.968   -43705.971    30.623966   0.95612159 
   21300    212.90929    60.029207    130427.42   -41044.257    2645.1885   -43689.446    30.867806   0.95619468 
   21400    213.15623   0.84856988    130377.45   -41000.485    2648.2565   -43648.741    30.754774   0.95656115 
   21500    214.04043   -71.130272    130419.62   -40995.541    2659.2418   -43654.783     30.83367   0.95625188 
   21600     216.6751   -16.469245     130540.9   -40937.365     2691.975    -43629.34    31.129023   0.95536346 
   21700    213.97641   -61.904126    130572.93   -40901.883    2658.4464    -43560.33    30.956658   0.95512912 
   21800    212.17176    -107.0032    130499.53    -40877.82    2636.0253   -43513.845    30.966435   0.95566631 
   21900    219.82157   -114.96139    130471.86   -40911.546    2731.0667   -43642.613    30.992834   0.95586895 
   22000    212.76719    66.264465    130405.77   -40946.974    2643.4231   -43590.397    31.093194   0.95635344 
   22100    218.49996    7.8402193    130360.07   -40893.533     2714.647    -43608.18    31.094531   0.95668868 
   22200    215.88599    -22.46102     130419.6   -40917.752     2682.171   -43599.923    31.299237   0.95625197 
   22300    219.64198   -88.304329    130471.72    -40897.06    2728.8355   -43625.895    31.220749   0.95586997 
   22400    217.76767   -85.178818    130380.31   -40867.411    2705.5491    -43572.96    31.491465   0.95654014 
   22500    219.95949     190.6923    130559.22   -40900.286    2732.7803   -43633.067     31.51196   0.95522941 
   22600    219.81943   -161.16213    130514.03    -40878.22    2731.0402    -43609.26    31.589427   0.95556013 
   22700     215.5945    41.363061       130499   -40893.131    2678.5496   -43571.681     31.76356   0.95567019 
   22800    219.26127   -73.066979    130478.37   -40864.787    2724.1056   -43588.893    31.681721   0.95582129 
   22900    217.48874   -168.24537    130348.27   -40911.958    2702.0837   -43614.041    31.569355    0.9567753 
   23000    220.26567    146.10024    130264.64   -40886.041    2736.5842   -43622.625    31.574836   0.95738953 
   23100    213.85331    152.74942    130480.72   -40990.507     2656.917   -43647.424    31.774624   0.95580404 
   23200    213.95093    50.201009    130345.55   -40933.775    2658.1299   -43591.905    32.044032   0.95679526 
   23300    216.14327    13.736781    130426.69   -40979.827    2685.3675   -43665.195     32.03329       0.9562 
   23400    218.45374   -88.820528    130420.66   -40918.693    2714.0728   -43632.766    32.149649   0.95624422 
   23500    214.82004    37.302101    130382.43   -40957.275    2668.9277   -43626.203    32.132984    0.9565246 
   23600    216.75717    8.9489504    130516.56   -40937.285    2692.9946    -43630.28    32.330917   0.95554163 
   23700    215.23956   -79.689806    130364.78   -40973.884    2674.1398   -43648.024    32.415643   0.95665409 
   23800    208.68894    -55.51642    130308.95   -41023.093    2592.7548   -43615.848    32.539463   0.95706398 
   23900     209.4445    136.03698    130367.23   -41023.627    2602.1419   -43625.769    32.769174   0.95663617 
   24000    215.10097   -26.929565    130477.81   -40951.155    2672.4179   -43623.573    32.776874   0.95582541 
   24100    215.04615   -7.2371443    130498.85   -40947.382    2671.7369   -43619.119    32.923829   0.95567132 
   24200    212.88153   -89.292709    130528.37   -41007.628    2644.8436   -43652.472    32.896385   0.95545516 
   24300    214.66547   -27.623351    130646.33   -40971.949    2667.0073   -43638.957    32.882297   0.95459246 
   24400     213.9926   -121.75495    130622.61   -41006.748    2658.6475   -43665.395    33.090128    0.9547658 
   24500    213.84825    107.41997    130589.63    -40949.05    2656.8541   -43605.904    33.461345   0.95500698 
   24600    214.88586    -4.450578    130615.01   -40931.675    2669.7455    -43601.42    33.591408   0.95482137 
   24700    216.24888   -34.962726    130563.84   -40967.471    2686.6796   -43654.151    33.730323    0.9551956 
   24800    216.08411    -176.0343    130444.77   -40964.113    2684.6325   -43648.746    33.756174    0.9560675 
   24900    216.06594   -63.729465    130393.23   -40917.938    2684.4068   -43602.345    33.920456    0.9564454 
   25000    216.78957    62.457532       130515   -40895.913    2693.3972    -43589.31    33.889639   0.95555303 
   25100    219.82529    84.432548     130637.2   -40905.622     2731.113   -43636.735    34.012676   0.95465919 
   25200    214.09633   -75.087995    130494.72   -40948.534    2659.9362   -43608.471    34.183477   0.95570156 
   25300    213.99471   -65.759838     130528.8   -40945.656    2658.6738    -43604.33    34.136924   0.95545197 
   25400    212.37527    15.099694    130412.82   -40914.072    2638.5538   -43552.626    34.185137   0.95630168 
   25500    214.75372    166.04391    130345.64   -40866.731    2668.1037   -43534.834    34.320537   0.95679459 
   25600    212.39373   -50.909866    130451.75   -40933.872    2638.7832   -43572.656    34.279302   0.95601634 
   25700    208.44076   -24.526122    130450.59   -40938.541    2589.6714   -43528.212    34.443612   0.95602485 
   25800    211.89678    30.224634    130390.44   -40916.166     2632.609   -43548.775    34.333933   0.95646587 
   25900    215.06049    4.1518398    130398.47   -40866.774    2671.9151   -43538.689    34.492859   0.95640693 
   26000     217.3992   -20.950182    130525.75   -40796.057    2700.9712   -43497.028    34.899325   0.95547434 
   26100     213.5429   -5.9543906    130471.47   -40879.558    2653.0605   -43532.618    34.940405   0.95587187 
   26200    220.28239    157.29812    130656.31   -40878.726     2736.792   -43615.518    34.816352   0.95451956 
   26300    215.05744     55.11829    130770.11   -40859.974    2671.8772   -43531.851    35.000667   0.95368894 
   26400    215.23261   -16.848948    130794.66   -40862.665    2674.0535   -43536.719    34.874592   0.95350994 
   26500    215.93185   -108.47968    130773.97   -40920.494    2682.7408   -43603.235    34.875373   0.95366079 
   26600    211.40525    88.785122    130873.14   -40969.172    2626.5023   -43595.674    35.062922    0.9529381 
   26700    208.40491   -172.05264    130979.13   -41002.902     2589.226   -43592.128    35.341965   0.95216695 
   26800    216.79604   -154.93339    131162.67    -40948.39    2693.4775   -43641.867    35.448122   0.95083456 
   26900    217.30677    16.412158    131150.46   -40957.313    2699.8228   -43657.136    35.563507   0.95092314 
   27000    216.11625    42.906406    131186.31   -41002.916    2685.0318   -43687.947    35.740805   0.95066328 
   27100    212.04948   -75.408758    131140.25   -41013.217    2634.5062   -43647.723    35.752757   0.95099714 
   27200    211.43051   -78.840835    131105.04   -41048.488    2626.8161   -43675.305    35.753173   0.95125254 
   27300    214.45483    62.483372    131111.91   -41083.577    2664.3903   -43747.967    35.895275   0.95120274 
   27400    216.15608    37.615508    131079.27   -41021.954    2685.5266   -43707.481    35.872111   0.95143956 
   27500    216.64684    6.5186992    131044.07   -40954.972    2691.6238   -43646.596    35.997847   0.95169511 
   27600    213.43402   -6.8513477    130859.57   -40987.283    2651.7077   -43638.991    36.063817   0.95303695 
   27700    211.36868    35.358703    130963.92   -40992.859    2626.0479   -43618.906    36.051597   0.95227755 
   27800    215.85121    144.80587    130882.67   -40924.276     2681.739   -43606.015    36.040987   0.95286873 
   27900    212.31904   -155.24856    130948.52   -40949.911    2637.8553   -43587.766    36.318939   0.95238959 
   28000    214.47308    89.800406    130928.72   -40990.887    2664.6171   -43655.504    36.384606   0.95253361 
   28100    217.26676    24.951933    131096.08   -40972.259    2699.3258   -43671.584    36.533543   0.95131755 
   28200    213.63907   -65.064129     131095.2   -41022.825    2654.2553    -43677.08    36.676912   0.95132392 
   28300    217.77496   -38.637103    131005.27   -41012.857    2705.6396   -43718.497    36.493868   0.95197698 
   28400    214.77217    123.57048    131032.58   -41051.638     2668.333   -43719.971    36.706137   0.95177856 
   28500    213.75798   -107.78019     131030.8   -41078.094    2655.7326   -43733.826    36.658883    0.9517915 
   28600    216.57564    40.670032    131376.21   -41037.765    2690.7392   -43728.504    36.788346   0.94928907 
   28700     216.3931    38.520844    131371.29   -41055.411    2688.4714   -43743.882    36.972437   0.94932468 
   28800    209.82711    88.707569    131254.23   -41029.539    2606.8955   -43636.435    36.891005   0.95017133 
   28900    213.64194    113.10704    131267.37     -40986.5     2654.291   -43640.791    37.159886   0.95007623 
   29000    215.28289     79.45598    131340.41    -41051.89    2674.6781   -43726.568    37.114509   0.94954788 
   29100     217.3677    -22.92078    131523.07   -41011.514    2700.5798   -43712.094    37.245886   0.94822908 
   29200    216.45841    62.777995     131304.1   -40979.349    2689.2828   -43668.632    37.357521   0.94981045 
   29300    212.96997    12.780073    131390.04   -41032.821    2645.9424   -43678.764    37.612268   0.94918915 
   29400    214.40737    24.374254    131346.24    -41082.64    2663.8007   -43746.441    37.550622   0.94950569 
   29500    211.10427   -59.845498    131335.17   -41118.524    2622.7629   -43741.287    37.468674   0.94958575 
   29600    213.08705   -135.41415    131246.14    -41048.04     2647.397   -43695.437    37.359063   0.95022984 
   29700    215.95846   -88.454034    131211.17   -41087.206    2683.0714   -43770.277    37.719519   0.95048314 
   29800    212.51526   -50.939917     131057.6   -41075.666     2640.293   -43715.959    37.896403   0.95159689 
   29900    215.49423   -20.139729    131277.53     -41106.3    2677.3038   -43783.603    37.805145   0.95000266 
   30000    214.13037    62.625384    131324.74   -41078.666    2660.3592   -43739.025    37.846498   0.94966112 
   30100    213.29125   -49.767485    131335.99   -41078.158     2649.934   -43728.092    37.989951    0.9495798 
   30200    212.67671   -230.64801    131291.06   -41096.217    2642.2989   -43738.516    38.254267   0.94990478 
   30300    215.61078   -6.8073321     131454.7   -41055.943    2678.7518   -43734.695    38.388127    0.9487223 
   30400    219.77454    130.42546    131490.79   -41042.397    2730.4825    -43772.88    38.296308   0.94846188 
   30500    215.52495   -61.922495    131444.73   -41059.219    2677.6855   -43736.904    38.352979   0.94879427 
   30600    216.72112    80.265641    131499.17   -41045.165    2692.5468   -43737.711    38.343342   0.94840148 
   30700    214.17373    25.353138    131473.93   -41074.609    2660.8979   -43735.507    38.356255   0.94858356 
   30800    219.40477    122.72599    131583.57   -41011.432    2725.8885   -43737.321     38.38009   0.94779314 
   30900    213.31114    68.153672    131524.98   -41122.431    2650.1811   -43772.613    38.619258   0.94821535 
   31000    210.78968    4.5971807    131566.36   -41169.302    2618.8544   -43788.157    38.652577   0.94791712 
   31100    209.83936    229.24367    131605.22   -41172.647    2607.0477   -43779.695    38.790295   0.94763724 
   31200    209.10166   -135.61906    131462.69    -41178.36    2597.8824   -43776.242    38.924925   0.94866466 
   31300    215.46248   -56.006162    131633.84   -41123.928    2676.9093   -43800.838    38.855157   0.94743119 
   31400    215.49015   -93.259914       131496   -41090.974    2677.2532   -43768.227    38.983927   0.94842432 
   31500    217.27212   -169.62851    131318.51   -41144.159    2699.3923   -43843.551    39.080558    0.9497062 
   31600    215.16147    40.169449    131325.71   -41099.945    2673.1697   -43773.114    39.057755    0.9496541 
   31700    214.71878    19.570003    131222.06   -41127.969    2667.6696   -43795.639    39.000091   0.95040428 
   31800    218.70362    47.000596    131144.19   -41066.749    2717.1774   -43783.926    39.290767   0.95096859 
   31900    218.12772    91.002413    131204.54   -41024.543    2710.0223   -43734.566    39.465051   0.95053118 
   32000    219.97563   -95.465002    131159.15   -41023.674    2732.9808   -43756.655     39.73229   0.95086014 
   32100     217.6793    68.722677    131298.82   -41034.452    2704.4512   -43738.904    39.844831   0.94984859 
   32200    219.89285   -32.825178    131291.06   -41029.331    2731.9524   -43761.283    39.687878   0.94990479 
   32300    217.25113   -24.804279    131327.49   -41003.408    2699.1315   -43702.539     39.83542   0.94964125 
   32400    214.10077    53.543278    131261.04   -41086.328    2659.9914   -43746.319    39.871773   0.95012198 
   32500    218.86406    3.6619925     131347.9   -41089.218    2719.1706   -43808.389    40.064636   0.94949368 
   32600    216.07167   -99.015307    131304.32   -41059.025     2684.478   -43743.503    40.155567   0.94980882 
   32700     212.6631   -41.264876     131234.2   -41115.279    2642.1298   -43757.409    40.223756   0.95031631 
   32800    214.95579   -76.213654     131163.9   -41156.889    2670.6143   -43827.503    40.147559   0.95082569 
   32900    217.14573    11.935312    131216.48   -41167.763     2697.822   -43865.585     40.08292   0.95044464 
   33000     213.4997   -39.949075       131222   -41233.133    2652.5238   -43885.657    40.147128   0.95040467 
   33100    212.32076   -15.608389    131429.55   -41172.877    2637.8765   -43810.754    40.576373    0.9489038 
   33200    212.11312    -137.3684     131406.7   -41224.585    2635.2969   -43859.882    40.609314   0.94906884 
   33300    212.31167   -147.69115    131403.74   -41157.109    2637.7636   -43794.873    40.674587   0.94909024 
   33400    210.56728    1.3389615    131426.14   -41223.784    2616.0913   -43839.875    40.666431   0.94892846 
   33500    209.39656   -8.9884616    131360.21   -41187.446    2601.5463   -43788.992    40.534001   0.94940472 
   33600    211.88284   -49.881591    131312.58   -41155.302    2632.4358   -43787.738    40.501568   0.94974908 
   33700    215.15782    36.127085    131515.77   -41131.967    2673.1243   -43805.091    40.725751   0.94828172 
   33800     214.4949   -78.463651    131538.94   -41131.794    2664.8882   -43796.682    40.832732   0.94811473 
   33900     217.8472   -13.843439     131307.8   -41155.333    2706.5372    -43861.87    40.806081   0.94978369 
   34000    217.91668     89.64645       131507   -41120.172    2707.4004   -43827.572     40.85233     0.948345 
   34100     214.2813   -53.237994    131356.49   -41153.919    2662.2344   -43816.153     40.85883   0.94943158 
   34200    214.35429    77.138136    131443.95   -41145.653    2663.1412   -43808.795    41.134163   0.94879987 
   34300    211.66061    -106.4406    131499.56    -41193.67    2629.6749   -43823.345    41.035578   0.94839862 
   34400     214.6856   -80.980681    131379.15   -41112.095    2667.2574   -43779.353    40.894728   0.94926785 
   34500    216.74451    17.299955    131329.94    -41132.62    2692.8373   -43825.458    40.933634   0.94962357 
   34600    217.50432   -48.775296    131170.81   -41135.794    2702.2772   -43838.072    40.997648   0.95077559 
   34700    212.52909   -6.3769565    131184.94   -41214.879    2640.4648   -43855.344    41.085135    0.9506732 
   34800    208.53948    95.096998    131245.04   -41193.426    2590.8979   -43784.324    41.218605   0.95023784 
   34900    212.28616    -71.23571    131372.18    -41196.43    2637.4467   -43833.876    41.130079   0.94931824 
   35000    209.92658    129.09285    131401.77   -41261.712    2608.1313   -43869.843    41.275214   0.94910444 
   35100       212.93    44.160959    131344.03   -41205.702    2645.4458   -43851.148    41.304972   0.94952165 
   35200    215.95868    54.778942    131228.08   -41208.979    2683.0742   -43892.054    41.285721   0.95036067 
   35300    216.53566   -9.4693207    131237.74   -41207.767    2690.2425    -43898.01    41.391599   0.95029072 
   35400    210.00528    -72.02371    131198.57   -41215.301     2609.109    -43824.41    41.423185   0.95057441 
   35500     215.2833   -36.806828    131315.86   -41123.285    2674.6832   -43797.969     41.50532   0.94972536 
   35600     214.2031    -39.65274    131404.35   -41156.158    2661.2628   -43817.421    41.607245    0.9490858 
   35700    221.27438    65.624086    131371.83   -41118.008    2749.1165   -43867.125    41.627938   0.94932071 
   35800     214.4533   -36.344018    131380.89   -41158.604    2664.3713   -43822.975    41.627197    0.9492553 
   35900    216.64881    89.964133    131465.62   -41118.492    2691.6483   -43810.141    41.595205   0.94864352 
   36000    217.13256    20.365613    131692.25   -41070.438    2697.6585   -43768.096    41.620531   0.94701094 
   36100    213.91469   -49.054676     131719.8   -41098.789    2657.6796   -43756.469    41.784625   0.94681289 
   36200     212.4603    51.825152    131724.28   -41130.981    2639.6103   -43770.591      42.0313    0.9467807 
   36300    212.95571     65.07925    131614.33   -41193.071    2645.7652   -43838.837    41.978445   0.94757163 
   36400    212.24972    86.892449       131668   -41136.982     2636.994   -43773.976    41.946355   0.94718539 
   36500     215.2204    5.8136506    131771.57    -41128.77    2673.9018   -43802.672    42.024038   0.94644091 
   36600    208.56014    -19.30366    131782.22   -41269.243    2591.1546   -43860.398    42.093926    0.9463644 
   36700    211.20008   -61.517425    131603.14   -41196.913    2623.9532   -43820.866    42.203234   0.94765217 
   36800    214.77873    10.229825    131519.87    -41187.12    2668.4144   -43855.535    41.966647   0.94825221 
   36900    215.74318    87.298793     131666.9   -41205.171    2680.3967   -43885.567    42.006894   0.94719329 
   37000    215.73614     160.9977    131647.64   -41151.429    2680.3094   -43831.738    42.079753   0.94733185 
   37100     214.3334    42.412844    131610.79   -41154.946    2662.8816   -43817.827    42.279479   0.94759712 
   37200    218.33009    19.743194    131675.79   -41202.262    2712.5366   -43914.798    42.516793   0.94712935 
   37300    214.05436   -9.5070651    131636.59   -41212.664    2659.4148   -43872.079    42.570878   0.94741139 
   37400     211.2243   -42.946615    131360.52   -41245.009    2624.2541   -43869.263    42.490818   0.94940249 
   37500    214.14012   -2.9264751    131580.83   -41258.388    2660.4803   -43918.868    42.627718   0.94781285 
   37600    214.36395    47.690621    131743.15   -41225.619    2663.2612    -43888.88    42.675146   0.94664504 
   37700    214.62318   -8.9992364    131789.26   -41244.492    2666.4819   -43910.974    42.864485   0.94631383 
   37800    212.32182   -40.799152    131651.87   -41337.271    2637.8898   -43975.161    42.722829   0.94730145 
   37900    214.71779    11.490064    131772.49   -41292.959    2667.6573   -43960.616      42.6825   0.94643432 
   38000    218.83131    52.013584    132063.88   -41291.654    2718.7637   -44010.418    42.635555   0.94434603 
   38100    216.75632    153.64747    132082.94   -41245.928     2692.984   -43938.912    42.789985   0.94420975 
   38200    214.41462    127.30964    132000.01   -41260.718    2663.8907   -43924.608    42.696088   0.94480302 
   38300    211.58526    1.4395943    132011.02   -41215.662    2628.7387   -43844.401    42.718883   0.94472418 
   38400    214.19816    76.443687    132077.68    -41274.31    2661.2014   -43935.511    42.987499   0.94424738 
   38500    214.55552   -92.214775    132038.45   -41269.618    2665.6412   -43935.259    43.010925   0.94452796 
   38600    217.18633   -51.713798    132030.52   -41225.882    2698.3265   -43924.208    43.305884   0.94458469 
   38700     216.1374    96.352849    132013.71   -41222.317    2685.2946   -43907.612    43.445481   0.94470495 
   38800    214.05976   -111.94473    131931.02   -41257.766     2659.482   -43917.248    43.293869   0.94529706 
   38900    214.67442    182.99738    131975.41   -41217.899    2667.1185   -43885.018    43.356432   0.94497912 
   39000    217.01791     40.02165    131983.64   -41276.252     2696.234   -43972.486    43.361386   0.94492019 
   39100    215.55411    20.836468    132024.82   -41238.122    2678.0478    -43916.17    43.352816   0.94462543 
   39200    214.12189     170.0539    132064.33   -41278.891    2660.2538   -43939.144    43.336799   0.94434282 
   39300    217.45087    83.000948    132053.36   -41276.573    2701.6132   -43978.186    43.322801   0.94442131 
   39400    217.35155    10.451008    132018.53   -41253.828    2700.3792   -43954.207     43.42289   0.94467042 
   39500    214.31512   -7.0803001    132064.15   -41226.323    2662.6545   -43888.977    43.709278   0.94434412 
   39600    214.23954    10.613452    131991.93   -41259.083    2661.7155   -43920.798    43.730736   0.94486079 
   39700    215.80721    61.329518    132073.44   -41210.523    2681.1923   -43891.715    43.784258   0.94427767 
   39800    216.45944    138.51606    132074.51   -41288.203    2689.2956   -43977.499    43.789629   0.94427002 
   39900    211.61439    147.31698    132078.48   -41329.504    2629.1006   -43958.604    43.837616   0.94424167 
   40000    209.06045   -38.265633    132029.33    -41335.11    2597.3704    -43932.48    43.749244    0.9445932 
   40100     212.4509   -57.945292    131911.38   -41242.622    2639.4935   -43882.115    43.665061   0.94543779 
   40200    217.77072    20.976972    131901.16   -41248.825     2705.587   -43954.412    43.945838   0.94551101 
   40300    213.60093     88.39774    131913.19   -41249.888    2653.7814    -43903.67    44.087332   0.94542481 
   40400    216.92111    60.525137    132142.51   -41159.225    2695.0314   -43854.256    44.028696   0.94378415 
   40500    217.11674    49.963218    132100.43   -41160.624    2697.4619   -43858.086    44.086291   0.94408475 
   40600    211.37196    4.4098273    132036.74   -41206.834    2626.0887   -43832.923    44.277149   0.94454013 
   40700    213.89217    -84.65229    131923.83   -41238.438    2657.3998   -43895.838    44.330592   0.94534859 
   40800    212.17052   -28.877746    131957.94   -41271.562      2636.01   -43907.572    44.365121   0.94510418 
   40900    213.25096    56.854359    131913.06   -41282.895    2649.4334   -43932.328    44.166001   0.94542578 
   41000    215.86277       4.1225    132207.06   -41212.277    2681.8825    -43894.16    44.351414   0.94332331 
   41100    219.06307   -60.739983    132078.32    -41202.48    2721.6431   -43924.124    44.462364   0.94424281 
   41200    215.96406   -120.24259     132107.9   -41204.124     2683.141   -43887.266    44.375277   0.94403138 
   41300    215.04844   -14.450739    132004.26   -41352.224    2671.7653    -44023.99    44.680508   0.94477257 
   41400    210.95336   -22.968573    132020.19   -41320.156     2620.888   -43941.044    44.513641    0.9446586 
   41500    211.24667    -11.23174    132138.68   -41322.089     2624.532   -43946.621    44.563554   0.94381149 
   41600    212.77779   -113.58465    132048.69   -41273.129    2643.5547   -43916.684    44.818241   0.94445469 
   41700     215.0691    105.81161    132055.03   -41237.376     2672.022   -43909.398    45.013346   0.94440936 
   41800    217.45269   -128.99874     132043.8   -41249.613    2701.6358   -43951.249    44.961899   0.94448965 
   41900    215.65793    73.444079    131991.72   -41243.335    2679.3376   -43922.673    45.032384   0.94486236 
   42000     213.3785    63.709226    132037.72   -41243.371    2651.0179   -43894.389    44.908393   0.94453315 
   42100    211.01013   -148.39863    132005.61   -41237.136    2621.5933   -43858.729    44.989263   0.94476288 
   42200    216.11994    6.7673907    131797.03   -41184.318    2685.0776   -43869.396    45.112874   0.94625806 
   42300    216.13407    14.470027    131789.76   -41159.521    2685.2532   -43844.774    45.078902   0.94631028 
   42400    214.01588   -3.9522668     131680.9   -41182.443    2658.9368    -43841.38    45.065982   0.94709261 
   42500    216.95843    65.147999    131608.02   -41183.128    2695.4951   -43878.623    45.077978   0.94761702 
   42600    213.36704    41.516639    131602.53   -41170.141    2650.8756   -43821.016    45.157546   0.94765659 
   42700    215.76778   -159.97178    131584.88   -41174.955    2680.7024   -43855.658    45.140771    0.9477837 
   42800    212.60611   -36.089292    131516.21    -41134.74    2641.4218   -43776.162    45.451186   0.94827854 
   42900    213.71171    99.776409     131569.2   -41203.837    2655.1578   -43858.995     45.54084   0.94789664 
   43000    215.75402    103.19848    131602.12   -41218.597    2680.5314   -43899.128    45.658341   0.94765956 
   43100    218.22201   -36.813741    131812.63   -41186.557    2711.1938    -43897.75    45.594238   0.94614607 
   43200    215.86211   -38.181624    131845.96   -41155.061    2681.8743   -43836.935     45.73517   0.94590692 
   43300    218.46583   -107.06515    131717.78   -41174.124     2714.223   -43888.347    45.690297   0.94682738 
   43400    215.35993   -5.6479555     131855.4   -41143.667    2675.6353   -43819.302    45.653905   0.94583921 
   43500    219.46003   -47.056323    131852.04   -41148.114     2726.575   -43874.689     45.85814   0.94586328 
   43600    218.19989   -5.1324852    131672.57   -41074.437     2710.919   -43785.356    45.882696   0.94715246 
   43700    216.83027    -21.30252     131721.3   -41099.233    2693.9027   -43793.136     46.04259   0.94680214 
   43800    219.14855   -236.38027    131636.66   -41094.621    2722.7051   -43817.326    45.801193   0.94741088 
   43900     220.0346    145.30245    131697.66   -41149.426    2733.7134   -43883.139    45.881654   0.94697204 
   44000    216.18303    12.859923    131684.71    -41178.89    2685.8615   -43864.751    46.111655   0.94706521 
   44100    213.64997    170.23988    131680.51   -41207.074    2654.3908   -43861.465     46.24443   0.94709537 
   44200    209.41952    69.266027    131817.66   -41228.895    2601.8316   -43830.727    46.191504   0.94610996 
   44300     214.1978   -82.629837    131829.33   -41227.272     2661.197   -43888.469    46.305109   0.94602624 
   44400    216.46427    166.84572    131822.37   -41191.801    2689.3556   -43881.156    46.357072   0.94607619 
   44500    215.49027   -49.268921    131567.22   -41204.226    2677.2547   -43881.481    46.089173   0.94791094 
   44600    210.69835   -32.624868    131617.17   -41259.584    2617.7198   -43877.303    46.312339   0.94755119 
   44700    214.25628    113.73202    131788.83   -41232.545    2661.9235   -43894.468    46.355856   0.94631695 
   44800    213.82374   -139.43377    131694.96   -41197.735    2656.5497   -43854.284    46.171591   0.94699147 
   44900    217.38726   -79.767378    131755.26   -41131.717    2700.8229    -43832.54    46.534143   0.94655809 
   45000     216.7034   -3.7254932    131817.86   -41119.477    2692.3266   -43811.803    46.665426   0.94610857 
   45100    217.72695   -147.29705    131885.91   -41059.388    2705.0432   -43764.431    46.748262   0.94562036 
   45200    215.69762    50.714242    131990.18   -41120.291    2679.8307   -43800.122     46.71419   0.94487333 
   45300     214.1166    99.519999    131866.11   -41122.557    2660.1881   -43782.745     46.73507   0.94576237 
   45400    213.58037   -89.941154     131745.2   -41124.588     2653.526   -43778.114     46.78889   0.94663034 
   45500    217.09223    94.267281    131582.12   -41145.406    2697.1574   -43842.563     47.00057   0.94780354 
   45600    218.18193   -9.0543275    131658.26   -41139.443    2710.6958   -43850.139    47.075169   0.94725544 
   45700     212.2518   -108.96114     131902.4   -41129.577    2637.0199   -43766.597    47.156072   0.94550215 
   45800    218.83202    28.483326    131833.64   -41105.565    2718.7726   -43824.337    47.246518   0.94599528 
   45900    220.58297   -57.967126    131875.68   -41043.677    2740.5264   -43784.204    47.314459   0.94569371 
   46000    215.56959   -45.817765    131860.56   -41028.095    2678.2402   -43706.335    47.320002   0.94580214 
   46100    224.47864   -45.637606    131737.28   -40996.149    2788.9262   -43785.075    47.126674   0.94668726 
   46200    221.76529   -49.188851     131713.2   -40979.114    2755.2156    -43734.33    47.309106    0.9468603 
   46300    218.18808   -104.36917    131617.51   -41002.817    2710.7723   -43713.589    47.356498   0.94754871 
   46400    216.68949   -63.384548    131701.14   -41067.232    2692.1538   -43759.386    47.306113     0.946947 
   46500    217.37351    175.87715    131906.49   -41055.755     2700.652   -43756.407    47.358005   0.94547287 
   46600    219.95535   -64.918753    131840.06   -41054.034    2732.7288   -43786.762    47.472816   0.94594922 
   46700    215.23467   -236.48236    131707.94   -41135.671     2674.079    -43809.75     47.43025   0.94689811 
   46800    213.77968    35.654998    131677.67   -41192.345    2656.0023   -43848.347    47.451013   0.94711585 
   46900    215.86276     19.32081    131506.95   -41138.035    2681.8825   -43819.918    47.351222   0.94834532 
   47000    215.24511    83.186199    131491.59   -41098.881    2674.2087    -43773.09     47.70946   0.94845613 
   47100     219.1629    151.12795    131483.72   -41078.351    2722.8834   -43801.235    47.774836   0.94851288 
   47200    216.38278   0.89199403     131390.3   -41139.198    2688.3431   -43827.542     47.68271   0.94918729 
   47300    213.67212    42.570434    131613.54   -41152.381    2654.6659   -43807.047    47.843241   0.94757729 
   47400    215.33439    80.672818    131741.82   -41102.142    2675.3179    -43777.46     47.99182   0.94665463 
   47500    216.97009   -145.08429    131755.73   -41026.567    2695.6399   -43722.207    48.179129   0.94655468 
   47600    216.63549    111.81491    131689.07   -40982.919    2691.4828   -43674.402     48.24791   0.94703382 
   47700    218.58009     46.73081    131881.99   -41014.636    2715.6426   -43730.279    48.228549   0.94564849 
   47800    216.97132   -55.551031    131897.82    -41045.77    2695.6552   -43741.425    48.149324   0.94553497 
   47900    217.17317   -148.39248    131756.81   -41113.709     2698.163   -43811.872     48.35968   0.94654692 
   48000    211.89452   -65.559972    131726.34   -41129.448     2632.581   -43762.029    48.469086   0.94676588 
   48100     217.8455   -77.166947    131733.53   -41095.087    2706.5161   -43801.603    48.530528   0.94671422 
   48200     216.8341    8.0857867    131670.81   -41138.269    2693.9503    -43832.22    48.553459   0.94716518 
   48300    212.89899   -174.23191    131673.98   -41134.082    2645.0606   -43779.142     48.36824   0.94714236 
   48400    216.51267    214.45368    131702.54   -41058.746     2689.957   -43748.703    48.347384   0.94693693 
   48500    212.44532   -79.769643    131507.86   -41130.175    2639.4241   -43769.599    48.323629   0.94833875 
   48600    212.84199     125.9402    131476.87   -41112.456    2644.3524   -43756.809    48.350522   0.94856233 
   48700    214.39361    136.81759    131542.02   -41076.267    2663.6297   -43739.897    48.469529   0.94809252 
   48800    214.41298    19.154411    131552.84   -41099.718    2663.8703   -43763.588     48.80157   0.94801451 
   48900    215.48966   -31.081431    131506.37    -41082.58    2677.2471   -43759.828    48.846366   0.94834954 
   49000    216.27192    35.856896    131439.02   -41125.894    2686.9658   -43812.859    48.873565   0.94883546 
   49100    217.95856   -51.309672    131461.65   -41117.363    2707.9207   -43825.284    48.695854   0.94867213 
   49200    213.26992   -18.651265    131488.72   -41127.753     2649.669   -43777.422    48.715921    0.9484768 
   49300    214.99647    13.345588    131534.11   -41074.881    2671.1196   -43746.001    48.939873   0.94814955 
   49400    218.44037    77.932774    131681.97   -41046.842    2713.9067   -43760.749    48.910058   0.94708487 
   49500    217.20731    -5.808247    131607.16   -41078.782    2698.5871   -43777.369    48.894707   0.94762327 
   49600    218.11892    61.825458    131724.95   -41072.008    2709.9131   -43781.922    49.190954   0.94677586 
   49700    216.81828   -13.132755    131728.03   -41090.878    2693.7538   -43784.632    49.250346   0.94675373 
   49800    213.16347    13.267433    131832.75   -41135.229    2648.3465   -43783.575     49.21903   0.94600166 
   49900    217.33416   -82.367806    131574.32   -41032.564    2700.1631   -43732.727    49.129176   0.94785975 
   50000    215.07706    75.470189    131732.13   -41057.582    2672.1209   -43729.703    49.278236   0.94672429 
   50100     215.2308   -8.2173667     131683.2   -41072.962     2674.031   -43746.993     49.17416   0.94707607 
   50200    211.06269    62.187532    131726.38   -41105.746    2622.2463   -43727.993    49.319891   0.94676556 
   50300    211.69851   0.82209258    131456.16    -41073.41    2630.1457   -43703.556    49.387468   0.94871174 
   50400    215.58469    -40.20265    131629.94   -41094.089    2678.4277   -43772.516    49.623216   0.94745927 
   50500     213.9116    32.391891    131454.09   -41131.403    2657.6412   -43789.044      49.5417   0.94872669 
   50600    210.21016     138.0237    131358.01   -41151.015    2611.6545    -43762.67     49.44575   0.94942065 
   50700    213.06522    88.888104    131497.58   -41163.202    2647.1257   -43810.328    49.486958   0.94841291 
   50800    215.85774    44.516581    131691.91   -41155.473    2681.8201   -43837.293    49.738812    0.9470134 
   50900    213.41129    103.35432    131670.55   -41095.396    2651.4253   -43746.822    49.833069   0.94716701 
   51000    214.87406    -42.29713    131690.72   -41124.122    2669.5988   -43793.721    50.010973   0.94702194 
   51100    214.11656   -30.795795    131653.34   -41165.017    2660.1876   -43825.205    50.007676   0.94729086 
   51200    212.43371   -72.929201    131708.95   -41128.687    2639.2798   -43767.967    49.834036   0.94689087 
   51300    213.22404    62.599829    131628.92   -41199.606     2649.099   -43848.705    49.861579   0.94746656 
   51400    210.76871   -4.6820178    131504.11   -41198.236    2618.5938    -43816.83    50.031414   0.94836583 
   51500    212.72044   -109.97289    131550.42   -41197.652    2642.8423   -43840.494    50.191274   0.94803199 
   51600    213.04005   -117.24774    131508.51   -41119.274    2646.8131   -43766.087     50.36229   0.94833409 
   51700    216.15563    18.928852    131438.56   -41125.263    2685.5211   -43810.784    50.265591   0.94883875 
   51800    214.56745    149.23283    131488.72   -41160.722    2665.7895   -43826.512    50.489886   0.94847682 
   51900    208.78501   -140.05306    131579.45   -41199.713    2593.9484   -43793.662    50.788162   0.94782282 
   52000    213.86772    265.04582    131443.06    -41200.16     2657.096   -43857.256    50.639909   0.94880629 
   52100     211.9399   -38.275566    131534.77   -41124.961    2633.1448   -43758.106    50.669232   0.94814474 
   52200     211.0271    54.407369    131582.73   -41169.518    2621.8041   -43791.323    50.807438   0.94779916 
   52300    211.91663   -132.92562    131556.11   -41160.241    2632.8557   -43793.096    50.954574   0.94799096 
   52400      213.857   -118.38308     131350.2   -41105.729    2656.9628   -43762.692    50.921644   0.94947709 
   52500     213.3642    57.219614    131500.25   -41079.206    2650.8403   -43730.046    50.994482   0.94839368 
   52600    212.01098    13.809144    131496.41   -41112.783    2634.0279   -43746.811    51.240087   0.94842138 
   52700    214.10047     -122.989    131401.15   -41135.407    2659.9878   -43795.395    51.261504   0.94910895 
   52800    214.70061    54.359936    131529.56    -41100.69    2667.4438   -43768.133    51.213096   0.94818232 
   52900    216.24872     44.97945    131505.44   -41088.114    2686.6777   -43774.792    51.193712   0.94835625 
   53000    214.67562   -81.372197    131499.36   -41065.919    2667.1334   -43733.053    51.291079   0.94840007 
   53100    211.27147    16.766758    131549.26   -41109.659    2624.8401   -43734.499    51.572593   0.94804032 
   53200    214.12911   -171.13385    131405.81   -41113.667    2660.3436   -43774.011    51.331214   0.94907527 
   53300    211.47858   -20.502576    131343.46   -41099.125    2627.4133   -43726.538    51.431388    0.9495258 
   53400    213.61393    17.031991    131340.31   -41174.539    2653.9429   -43828.482    51.390038    0.9495486 
   53500    215.56557    134.23194    131174.39   -41197.023    2678.1901   -43875.213    51.497751    0.9507496 
   53600     209.3943    91.917826    131448.58    -41189.31    2601.5182   -43790.828    51.625596   0.94876647 
   53700    212.08333     71.03873    131398.94   -41216.205    2634.9267   -43851.132    51.593131   0.94912487 
   53800    215.43971    75.994484     131412.3   -41099.872    2676.6265   -43776.499    51.790401   0.94902841 
   53900    212.88328   -130.34148    131432.55   -41161.369    2644.8653   -43806.234    51.725185   0.94888217 
   54000    213.78043    66.010885    131423.15   -41131.936    2656.0115   -43787.947    51.803951   0.94895006 
   54100    215.13825    25.402118    131362.23   -41147.452    2672.8811   -43820.333    51.904613   0.94939012 
   54200    214.88372    1.4551761    131490.92   -41123.625    2669.7189   -43793.344    52.074243   0.94846096 
   54300    214.98259    114.91896    131383.22   -41090.738    2670.9472   -43761.686    52.196836   0.94923847 
   54400    218.85394    8.1169707    131221.79   -41127.755    2719.0449     -43846.8    52.131873   0.95040619 
   54500    213.71139    -148.3421    131390.69   -41125.914    2655.1539   -43781.067    52.314684   0.94918445 
   54600    216.79368    44.614085    131327.72   -41037.798    2693.4482   -43731.246    52.304258   0.94963959 
   54700    217.74337   -46.348753    131345.59   -41049.233    2705.2471    -43754.48    52.250914   0.94951036 
   54800    215.33328   -129.11941    131415.27   -41115.181    2675.3042   -43790.485    52.347329   0.94900698 
   54900    212.55958    78.251379    131232.31   -41163.023    2640.8436   -43803.867    52.384356   0.95033002 
   55000    211.04009    186.89022    131390.63    -41211.21    2621.9655   -43833.175    52.396745   0.94918492 
   55100    211.96968   -32.313635    131415.68   -41168.809    2633.5148   -43802.324    52.414286   0.94900396 
   55200     216.3214    108.36598    131529.73   -41179.507    2687.5806   -43867.088    52.647872   0.94818111 
   55300     213.1497    -25.82041    131544.89   -41132.796    2648.1753   -43780.972    52.936051   0.94807182 
   55400    218.84397    96.627581    131681.76   -41134.315    2718.9211   -43853.237    53.320186   0.94708638 
   55500    218.94755    99.024895    131550.35    -41080.35    2720.2079   -43800.558    53.534698   0.94803249 
   55600    214.85724   -114.34349    131339.12    -41131.34    2669.3898    -43800.73    53.431648   0.94955716 
   55700    218.02471   -21.813869    131299.78   -41118.942    2708.7425   -43827.685    53.349438   0.94984166 
   55800    217.07997   -46.027587    131392.38   -41120.351     2697.005   -43817.356    53.555998   0.94917224 
   55900    213.92575      142.254    131332.98   -41083.688    2657.8171   -43741.505    53.731164   0.94960155 
   56000    218.49017   -7.0624196    131448.63   -41065.096    2714.5255   -43779.621     53.81852   0.94876609 
   56100    215.30131   -37.248608    131418.78   -41037.995     2674.907   -43712.902    53.753646   0.94898157 
   56200    215.17454   -59.354418    131488.16   -41049.487     2673.332    -43722.82    53.867348    0.9484809 
   56300    212.39429    -153.3357    131406.87   -41067.509    2638.7901   -43706.299    53.908941   0.94906759 
   56400    217.48372   -139.01429    131278.14   -41046.405    2702.0213   -43748.426    53.874382   0.94999824 
   56500    213.90954    120.33175    131459.21   -41133.192    2657.6156   -43790.808    54.098766   0.94868973 
   56600    214.42312   -51.411868    131531.37   -41156.194    2663.9964   -43820.191    53.801261   0.94816928 
   56700    214.97192    189.62893    131458.96   -41177.511    2670.8146   -43848.326    53.613432   0.94869152 
   56800    215.70037   -102.38196    131513.66   -41112.509    2679.8649   -43792.374    53.757528   0.94829697 
   56900    216.44193   -138.60293    131495.43   -41105.689    2689.0781   -43794.767    53.791067   0.94842844 
   57000    217.96698   -15.057816    131350.25   -41067.332    2708.0254   -43775.358    53.907882   0.94947674 
   57100    214.41822     37.30647    131532.86   -41106.436    2663.9354   -43770.372    54.290775    0.9481585 
   57200    212.31646    28.668441    131511.16    -41143.87    2637.8231   -43781.693     53.90549   0.94831495 
   57300    211.88786   -3.5941233    131397.13   -41190.018    2632.4982   -43822.516    53.893487   0.94913797 
   57400     210.4732   -34.853127     131410.3   -41210.171    2614.9224   -43825.094    54.047969   0.94904283 
   57500    206.85222   -71.519067    131308.63   -41253.053    2569.9354   -43822.988    54.126811   0.94977768 
   57600    208.89892   -30.001839    131066.61   -41219.562    2595.3636   -43814.925    53.883369   0.95153146 
   57700    208.08132   -108.07715    130947.21   -41254.786    2585.2057   -43839.991    53.775282   0.95239907 
   57800     212.0443    43.086599    130960.65   -41257.408    2634.4419    -43891.85    53.906826   0.95230136 
   57900    206.65951    45.488457    130863.63    -41239.42    2567.5411   -43806.961    54.067457   0.95300737 
   58000    210.43069   -28.114121    131123.08   -41214.658    2614.3943   -43829.052    54.196845   0.95112171 
   58100    216.44838    29.768509    131284.74    -41158.35    2689.1582   -43847.509    54.130436    0.9499505 
   58200    216.41953    159.48467    131464.33   -41118.337    2688.7998   -43807.137    54.130467   0.94865278 
   58300    220.51464   -83.958347    131508.42   -41069.584    2739.6775   -43809.262    54.136673   0.94833476 
   58400     215.8593    17.243336    131562.65   -41104.081    2681.8395    -43785.92    54.302353   0.94794387 
   58500    218.36835   -29.710119    131568.51   -41131.311    2713.0119   -43844.323    54.602569   0.94790161 
   58600    216.58858   -61.482161    131547.44   -41089.499    2690.9001   -43780.399    54.825517   0.94805346 
   58700    217.02229   -86.769294    131537.31   -41102.415    2696.2884   -43798.703    54.707173   0.94812644 
   58800    215.73609   -46.440761    131565.78   -41152.865    2680.3087   -43833.173    54.627759   0.94792132 
   58900    214.98639    59.213012    131607.01   -41190.817    2670.9944   -43861.811     54.47582   0.94762435 
   59000    216.36241   -92.357893    131702.79   -41192.078    2688.0901   -43880.168    54.633868   0.94693514 
   59100    215.69819    145.23284    131661.32   -41204.605    2679.8378   -43884.443    54.827169   0.94723344 
   59200     214.1671   -67.885614    131643.06    -41211.93    2660.8155   -43872.745    54.978387   0.94736481 
   59300    213.30385   -64.850102    131750.06   -41210.985    2650.0905   -43861.075    55.006451    0.9465954 
   59400    213.26942    112.14304    131713.43   -41262.809    2649.6628   -43912.472    55.026659   0.94685865 
   59500    214.60134   -100.80674    131700.78   -41216.259    2666.2106   -43882.469    54.850595   0.94694965 
   59600    212.17598    -48.20527    131770.48   -41212.352    2636.0779    -43848.43    54.962162   0.94644875 
   59700    213.33552    49.857738    131833.96   -41237.513     2650.484   -43887.997    55.280793     0.945993 
   59800    217.79753   -93.688821    131812.78   -41241.724    2705.9201   -43947.644     55.28774     0.946145 
   59900     213.9342    25.619423    131868.67   -41232.998     2657.922    -43890.92    55.281424   0.94574401 
   60000    212.71089    47.677259    131938.35   -41270.753    2642.7236   -43913.477    55.114426   0.94524456 
   60100    212.17238    35.218023    132002.71   -41239.318    2636.0331   -43875.351    55.351305   0.94478367 
   60200    218.93483   -65.264543     132046.5   -41212.525    2720.0499   -43932.575    55.526936   0.94447038 
   60300    217.63866   -2.6079103    132207.49   -41180.673    2703.9463   -43884.619    55.570554   0.94332022 
   60400    220.72413   -28.963453    132060.89   -41134.714    2742.2802   -43876.994    55.394948   0.94436742 
   60500    217.47406    -6.578183     131959.2   -41173.494    2701.9012   -43875.395    55.471178   0.94509516 
   60600    212.52341    106.81733     132019.1   -41223.474    2640.3943   -43863.869    55.649175   0.94466639 
   60700    215.47539   -116.96721    131961.13   -41258.379    2677.0698   -43935.449    55.567754   0.94508136 
   60800    214.61307   -74.711755    131916.14   -41209.011    2666.3562   -43875.368    55.480716   0.94540365 
   60900    215.06743   -49.644185     132035.1   -41204.251    2672.0013   -43876.252    55.614462   0.94455191 
   61000    216.77088   -20.045894    132046.72   -41254.411     2693.165   -43947.576    55.749005   0.94446877 
   61100    214.69843   -85.136399    132080.55   -41284.043    2667.4168    -43951.46    55.924561    0.9442269 
   61200    216.91729   -68.940025    131968.71   -41290.571     2694.984   -43985.555    55.811192   0.94502706 
   61300    217.50524    70.093292    131941.15   -41281.054    2702.2886   -43983.343    55.756754   0.94522449 
   61400    210.78629   -34.561482    131948.73    -41315.86    2618.8123   -43934.672    55.713976   0.94517019 
   61500    213.02453   -176.46917    132021.26   -41305.909    2646.6202   -43952.529    55.773925   0.94465088 
   61600    213.20679    103.74179       131905    -41274.13    2648.8847   -43923.015    55.862107   0.94548355 
   61700    211.26127   -58.889186     131926.1   -41345.272    2624.7135   -43969.985    55.938648   0.94533233 
   61800    213.52868    129.93283    131999.03   -41405.405    2652.8838   -44058.288    55.830273   0.94480999 
   61900    212.55486    60.542492    132062.27   -41338.917    2640.7851   -43979.703    55.835743   0.94435756 
   62000    215.37457    75.896949     132093.8   -41320.389    2675.8172   -43996.207    55.902499   0.94413213 
   62100    210.11665   -132.29964    132205.59   -41331.914    2610.4927   -43942.407    56.111897   0.94333381 
   62200    214.00321   -29.790079    132239.58   -41293.414    2658.7793   -43952.193    55.982057   0.94309133 
   62300    213.84294     18.09991    132140.65   -41328.036    2656.7882   -43984.824    55.968861   0.94379742 
   62400    213.42082      -49.106    132060.95   -41260.772    2651.5437   -43912.316    55.886104     0.944367 
   62500    215.12224    106.35569    131878.82   -41264.299    2672.6822   -43936.982     56.02964   0.94567121 
   62600    217.14671    82.139886     131798.9   -41279.923    2697.8343   -43977.757    56.154864   0.94624462 
   62700     217.7177  -0.39823633    131774.43   -41287.666    2704.9282   -43992.595      56.1767   0.94642039 
   62800    213.04664    43.236003    132012.68   -41301.925     2646.895    -43948.82    56.299277   0.94471233 
   62900    216.46731   -164.97377    131847.28    -41237.83    2689.3934   -43927.224    56.454266   0.94589744 
   63000      217.463    123.37626    131892.97   -41210.767    2701.7639   -43912.531    56.730501   0.94556978 
   63100    219.38963    135.96913    131841.84   -41208.377    2725.7003   -43934.077    56.637809   0.94593645 
   63200    216.41777    23.821558    131827.63   -41243.321    2688.7779   -43932.099    56.707689   0.94603845 
   63300    214.70137   -26.143329    131886.37   -41278.195    2667.4533   -43945.649    56.458931   0.94561711 
   63400    213.76615    -82.13998    131839.17   -41189.166    2655.8342       -43845    56.611052   0.94595565 
   63500    214.24754    96.673381    131940.18   -41248.059    2661.8149   -43909.874    56.680192   0.94523141 
   63600    214.13042    -70.14261    131944.43   -41245.384    2660.3599   -43905.744     56.66991   0.94520101 
   63700    215.76813    3.9325872    131936.55   -41255.504    2680.7068   -43936.211    56.854925   0.94525742 
   63800    213.49546    77.289009    131912.59   -41356.982     2652.471   -44009.453    56.995487    0.9454291 
   63900     212.8008    8.3824068    132031.56   -41346.577    2643.8406   -43990.418    57.073772   0.94457718 
   64000    212.18431    55.307791    131911.93   -41350.331    2636.1813   -43986.513    56.981392   0.94543381 
   64100    214.94659    124.00946    131979.39   -41269.284    2670.4999   -43939.784    57.143602   0.94495063 
   64200    218.97502   -88.873638    131902.16   -41262.335    2720.5493   -43982.884    57.118819   0.94550389 
   64300    215.43757    1.4937818    131918.21   -41178.489    2676.5999   -43855.089    57.328786   0.94538882 
   64400    217.18108    17.752676    131950.83   -41192.443    2698.2612   -43890.704    57.468726   0.94515513 
   64500    218.94875    175.30338    132020.55   -41193.192    2720.2229   -43913.415    57.469262   0.94465599 
   64600    214.38885    27.470282    131912.69   -41236.875    2663.5706   -43900.446    57.174695   0.94542843 
   64700    218.92385   -38.173729    132029.28   -41265.968    2719.9135   -43985.881    57.294697    0.9445935 
   64800     215.4439   -61.209627    131779.06   -41271.448    2676.6785   -43948.126    57.220969   0.94638713 
   64900    213.49674   -25.363029    131863.65   -41236.137     2652.487   -43888.624    57.437907   0.94578001 
   65000    217.84723    57.695022    131998.64   -41223.102    2706.5376   -43929.639    57.454233    0.9448128 
   65100     212.2372   -130.51949    132069.96   -41234.664    2636.8384   -43871.502    57.619425   0.94430258 
   65200    215.55432   -23.293323    132013.57   -41222.782    2678.0504   -43900.832    57.418709   0.94470593 
   65300    216.04557   -149.43771    132028.43   -41224.448    2684.1536   -43908.601    57.400457   0.94459959 
   65400    219.94414   -22.034013    131961.48   -41171.001    2732.5896    -43903.59    57.555253   0.94507883 
   65500    213.84435   -110.53749    131942.81   -41237.128    2656.8057   -43893.934    57.342398   0.94521258 
   65600     214.1943     113.5633    131960.47   -41271.158    2661.1534   -43932.311    57.604662    0.9450861 
   65700    213.31671    102.12032    132055.61   -41336.325    2650.2503   -43986.575    57.572406   0.94440522 
   65800    212.05186    97.330996    132057.82    -41341.27    2634.5357   -43975.805    57.901041   0.94438936 
   65900    212.00878   -93.956653    131974.93   -41310.359    2634.0006    -43944.36    58.115154   0.94498251 
   66000    216.37381    35.338502    132105.24    -41212.97    2688.2317   -43901.201    58.198627    0.9440504 
   66100    220.44093    61.308651    132026.95   -41170.527    2738.7617   -43909.289    58.204977   0.94461021 
   66200     219.4706   -216.19165     131978.9   -41133.406    2726.7064   -43860.112    58.020159   0.94495413 
   66300    214.98036    44.123721    131976.19   -41177.594    2670.9195   -43848.513    57.925408   0.94497351 
   66400    213.07963    81.927891    131885.97   -41223.088    2647.3048   -43870.393    58.043659   0.94561996 
   66500     215.3609    111.49847    132018.24   -41246.386    2675.6473   -43922.033    58.078461   0.94467253 
   66600    212.30254   -11.428219    132044.23   -41293.706    2637.6502   -43931.356    58.244796   0.94448662 
   66700    216.24667  -0.28547708    132178.46   -41295.834    2686.6522   -43982.487    58.286871   0.94352742 
   66800    217.07308    38.108853    132245.37    -41226.26    2696.9195   -43923.179    58.326566   0.94305004 
[...]
   84600    211.50223    50.526433    131601.94   -41273.759    2627.7071   -43901.466    66.134689   0.94766084 
   84700    213.82115    109.56789    131551.58   -41288.295    2656.5175   -43944.813    66.305963   0.94802359 
   84800    217.12263    65.231824    131653.94   -41250.258    2697.5351   -43947.793    66.350764   0.94728651 
   84900    211.76331    58.122782    131657.62   -41232.761    2630.9508   -43863.712    66.355185   0.94726001 
   85000    213.64162   -151.81609    131808.44   -41179.532     2654.287   -43833.819    66.592333   0.94617619 
   85100     216.0063   -80.488444     131735.9   -41192.286    2683.6657   -43875.952    66.684055   0.94669714 
   85200    212.44249   -81.833579    131657.24   -41219.815    2639.3889   -43859.204    66.616936   0.94726279 
   85300    213.11707    195.59137    131527.79    -41246.05      2647.77    -43893.82    66.700434   0.94819511 
   85400    217.79452    117.30965    131714.74   -41245.152    2705.8826   -43951.035     66.76697   0.94684928 
   85500     214.6252    75.029912    131945.86   -41221.712     2666.507   -43888.219    66.827432   0.94519076 
   85600    215.09221   -11.763246    132052.97   -41202.089    2672.3091   -43874.398    66.812007   0.94442406 
   85700    214.46985   -93.827672    132172.07   -41239.213    2664.5769    -43903.79    67.148143   0.94357309 
   85800    210.59026    40.099965    132159.19    -41240.59    2616.3768   -43856.967    67.070137   0.94366499 
   85900    216.84046   -51.154484    132140.81   -41147.106    2694.0294   -43841.136    67.305337   0.94379626 
   86000    212.63196   -72.223267    131946.26   -41194.485    2641.7429   -43836.228     67.21945   0.94518788 
   86100     216.9956    96.667426    131936.85   -41201.844    2695.9569   -43897.801     67.33449   0.94525526 
   86200    212.63049   -54.567173    131869.33   -41161.115    2641.7247    -43802.84    67.217163    0.9457393 
   86300    218.99928   -1.0371907    131723.67   -41193.506    2720.8507   -43914.357    67.224689   0.94678509 
   86400    214.77266    -3.855128     131891.2   -41202.526     2668.339   -43870.865    67.289358   0.94558241 
   86500    213.01556    33.808378    131815.41   -41195.741    2646.5087   -43842.249    67.353487    0.9461261 
   86600    215.42464     172.7631    131861.07   -41137.661    2676.4392     -43814.1    67.587443   0.94579854 
   86700    217.09671     21.07298    131929.18   -41126.765     2697.213   -43823.978    67.686789   0.94531025 
   86800    213.98743    13.080624    131909.01   -41199.967    2658.5833   -43858.551    67.646319   0.94545478 
   86900    218.55937    114.87412    131799.91   -41184.038    2715.3852   -43899.423    67.830526    0.9462374 
   87000    218.21031    28.806463    131779.91    -41187.01    2711.0484   -43898.058    67.581365   0.94638102 
   87100    216.18691   -109.68413    131830.56    -41213.58    2685.9096   -43899.489     67.50707   0.94601742 
   87200    217.12567    24.392314    131643.94   -41224.178    2697.5728   -43921.751    67.770944   0.94735851 
   87300    216.14909   -114.55325    131552.37   -41226.411    2685.4399   -43911.851    67.797602   0.94801793 
   87400    214.32866   -46.741498    131695.34   -41247.289    2662.8228   -43910.112    68.103827   0.94698871 
   87500    216.70538    -90.09485     131672.2   -41257.104    2692.3512   -43949.455    68.327321   0.94715516 
   87600    214.98439   -30.308623    131645.98   -41249.645    2670.9696   -43920.614    68.168796   0.94734381 
   87700    214.98158   -35.502323    131752.24   -41262.599    2670.9346   -43933.533    68.276461   0.94657978 
   87800     213.1594    122.75505    131647.44   -41234.235    2648.2958   -43882.531    68.252848    0.9473333 
   87900     215.2536   -17.203857    131788.13   -41250.852    2674.3142   -43925.166    68.164371   0.94632198 
   88000    212.32304    124.65374    131658.45   -41255.037    2637.9049   -43892.942    68.409996   0.94725408 
   88100    214.41947   -28.142966    131764.11   -41195.574     2663.951   -43859.525    68.395159   0.94649449 
   88200    216.37276   -24.183061    131845.94   -41161.528    2688.2187   -43849.747    68.457388   0.94590703 
   88300    214.87662   -56.617727    131946.74   -41207.041    2669.6306   -43876.671    68.756851   0.94518444 
   88400    212.10413    138.76757    131736.27   -41297.245    2635.1852   -43932.431    68.762217    0.9466945 
   88500    215.04822     -68.1353    131809.48   -41219.743    2671.7626   -43891.506    68.670471   0.94616871 
   88600    214.64002   -15.120927    131767.89   -41152.753    2666.6911   -43819.445    68.941412   0.94646733 
   88700    219.99828   -26.840078    131586.64   -41131.619    2733.2623   -43864.882     68.60067   0.94777103 
   88800    221.40302     -49.1968    131608.51   -41096.023    2750.7147   -43846.738    68.602928   0.94761353 
   88900    216.37931    151.66561     131829.1   -41133.394       2688.3   -43821.694    68.896693   0.94602788 
   89000    217.13154    50.570941     131970.1    -41122.59    2697.6457   -43820.236    68.968685    0.9450171 
   89100    214.26012    19.726262    131922.41   -41219.689    2661.9713    -43881.66    68.857578   0.94535872 
   89200     213.6074   -41.189778    131831.59   -41266.382    2653.8618   -43920.244    68.969174      0.94601 
   89300    213.65211    42.289232    131811.35    -41293.75    2654.4173   -43948.168    69.165129   0.94615527 
   89400    208.17992    76.269933    131736.25   -41320.463    2586.4307   -43906.894    69.104605   0.94669464 
   89500    209.99415    118.57022     131720.9   -41324.643    2608.9708   -43933.614    69.066778   0.94680501 
   89600    210.64897    72.855431    131676.91    -41363.34    2617.1062   -43980.446    69.085223   0.94712131 
   89700    212.59446    125.93491     131760.8    -41315.43     2641.277   -43956.707    69.053018   0.94651825 
   89800    210.57095    71.829364    131744.61   -41277.235    2616.1369   -43893.372    69.243747   0.94663456 
   89900    210.60156    19.223038    131772.51   -41344.683    2616.5172     -43961.2    69.276773   0.94643412 
   90000    214.59472    138.04116    131853.48   -41249.084    2666.1283   -43915.212    69.405239   0.94585299 
   90100     215.5697   -9.2357756    131833.91   -41257.838    2678.2414    -43936.08    69.539782   0.94599333 
   90200    210.62175     33.60176    131879.96     -41307.7    2616.7681   -43924.468    69.750129   0.94566302 
   90300     213.4937   -128.95424    131755.71   -41318.217    2652.4492   -43970.667     69.44615   0.94655482 
   90400    215.57713    21.719696    131850.62   -41325.304    2678.3338   -44003.638    69.652839   0.94587346 
   90500    210.40782   -28.732186    131851.66   -41288.143    2614.1102   -43902.253    69.813687   0.94586601 
   90600    214.29315   -36.088306    131744.89   -41203.332    2662.3816   -43865.714     69.73439   0.94663253 
   90700    215.72254    79.392691    131832.94   -41190.617    2680.1403   -43870.757    69.728167    0.9460003 
   90800    214.81042    77.361537     131843.7   -41219.397    2668.8081   -43888.205    69.758738   0.94592311 
   90900    209.66405    7.9409352    131769.91   -41294.356    2604.8696   -43899.225    69.772399   0.94645283 
   91000    211.92853   -158.25362    131908.26   -41332.344    2633.0035   -43965.347    69.849817   0.94546012 
   91100    212.07013   -51.254032    131822.23   -41309.151    2634.7627   -43943.914    69.740252   0.94607718 
   91200    210.43651   -123.35516    131921.03   -41277.704    2614.4666   -43892.171    69.820965    0.9453686 
   91300    218.35138    98.987051    131883.04   -41195.906    2712.8011   -43908.707    69.857749   0.94564094 
   91400    219.09555    166.75776    131958.18    -41199.96    2722.0467   -43922.007    69.867426   0.94510252 
   91500    216.30342   -50.468016    131969.23   -41214.903    2687.3572    -43902.26    69.856422   0.94502334 
   91600    215.66367   -94.179615    131869.29   -41255.295     2679.409   -43934.704    69.694907   0.94573953 
   91700    210.10838     18.02945    132048.86   -41327.353      2610.39   -43937.743    69.907997   0.94445343 
   91800    217.54916   -44.091459    132038.81   -41284.894    2702.8343   -43987.728    69.862691   0.94452532 
   91900    212.08727    4.1228862    132151.96   -41287.294    2634.9757    -43922.27    70.041425   0.94371665 
   92000    216.05822    104.74854    132070.59   -41284.013    2684.3108   -43968.324    70.113354   0.94429806 
   92100    211.00876    64.571631    132086.76   -41324.074    2621.5762   -43945.651    69.911981   0.94418245 
   92200    215.32325   -43.460417    131974.68   -41272.071    2675.1795    -43947.25    70.185075   0.94498435 
   92300    218.73106    3.3978133    131881.43   -41185.173    2717.5182   -43902.692    70.193093   0.94565247 
   92400    216.85851   -26.506677    131856.13   -41187.092    2694.2537   -43881.345     69.81618   0.94583393 
   92500     215.9336    151.59876    131995.31     -41231.4    2682.7626   -43914.163    69.990557   0.94483659 
   92600    217.85751   -26.557003    131843.63   -41226.787    2706.6652   -43933.452    69.877705   0.94592359 
   92700    215.73702    11.344581    132036.45   -41211.657    2680.3202   -43891.978     69.93038    0.9445422 
   92800    217.60223   -194.94406    132093.91   -41251.007    2703.4936   -43954.501    69.949905   0.94413138 
   92900     221.1017   -36.923946    132176.33   -41210.772    2746.9711   -43957.744      70.1158   0.94354263 
   93000    214.86193   -16.996342    132233.57   -41244.286    2669.4481   -43913.735    70.360817   0.94313423 
   93100    213.16868    34.318443    132292.65   -41188.726    2648.4112   -43837.138    70.475703   0.94271302 
   93200    215.54045   -58.572041    132497.17   -41220.582    2677.8781   -43898.461    70.593845   0.94125789 
   93300    214.95199    79.923065    132458.46   -41236.489     2670.567   -43907.056    70.480377   0.94153294 
   93400    215.58036   -22.934958    132519.68    -41263.29    2678.3739   -43941.664    70.624853     0.941098 
   93500    209.12736   -16.778818    132327.59   -41290.852    2598.2017   -43889.053     70.37894   0.94246407 
   93600    214.05871    176.89822    132418.98   -41352.402     2659.469   -44011.871    70.616134   0.94181368 
   93700    210.07244  -0.96358429    132491.12   -41328.466    2609.9434   -43938.409    70.567655   0.94130084 
   93800    213.97268   -31.253673    132344.63   -41285.435       2658.4   -43943.835    70.607114   0.94234275 
   93900    211.26798   -35.701584    132449.66   -41272.561    2624.7968   -43897.357    70.622894   0.94159553 
   94000    214.19352    -150.5915    132317.88   -41288.511    2661.1438   -43949.655    70.734362   0.94253329 
   94100    210.84908     -22.7871    132244.76   -41289.607    2619.5924   -43909.199    70.680731    0.9430544 
   94200    217.97265    -7.480222    132342.59   -41268.453    2708.0957   -43976.549    70.693018   0.94235732 
   94300    217.50909    74.844857    132371.43    -41225.64    2702.3365   -43927.977    70.932733   0.94215195 
   94400    217.48075   -13.811209    132385.24   -41205.514    2701.9844   -43907.498     70.89585   0.94205367 
   94500     220.9672    90.459867    132323.11   -41162.232       2745.3   -43907.532    70.843622   0.94249599 
   94600     216.1529   -141.11065    132320.65    -41206.11    2685.4872   -43891.597    71.004819   0.94251356 
   94700    217.48535    69.517096    132108.17   -41244.503    2702.0416   -43946.545    70.971126   0.94402944 
   94800    218.93655   -32.047828    132300.91   -41235.453    2720.0713   -43955.524     70.88672   0.94265413 
   94900    217.34493    -113.4432    132302.44   -41225.839     2700.297   -43926.136    70.921684   0.94264323 
   95000    216.12344     25.40406    132415.67   -41221.769    2685.1211    -43906.89    71.072885   0.94183723 
   95100    216.62945   -96.397005    132317.03   -41215.098    2691.4078   -43906.506    71.232285   0.94253936 
   95200    215.17151     110.2763    132282.18   -41213.927    2673.2943   -43887.222     71.28794    0.9427876 
   95300    221.08516    73.124978    132466.98   -41111.809    2746.7657   -43858.574    71.138985   0.94147236 
   95400    216.53739   -109.24595    132407.92   -41179.505     2690.264   -43869.769    71.072511   0.94189234 
   95500    215.56046    49.374399    132346.27   -41166.323    2678.1267    -43844.45    71.048613   0.94233105 
   95600    213.98259   -53.855143    132059.02   -41159.686    2658.5232    -43818.21    70.862539   0.94438081 
   95700    213.40599   -43.502138    131933.66   -41205.068    2651.3595   -43856.428    70.615321   0.94527817 
   95800    215.41449    59.983447    132025.61   -41256.737    2676.3131    -43933.05    70.638728   0.94461981 
   95900    220.05559   -48.250334       131972   -41216.782    2733.9742   -43950.756    70.815643   0.94500349 
   96000    213.30826   -201.80492    131991.94   -41285.129    2650.1452   -43935.274    71.013833   0.94486078 
   96100    209.25469    24.285205    131931.48   -41234.863    2599.7836   -43834.646    70.924506   0.94529377 
   96200    211.33407   -20.661659    131981.66   -41270.433    2625.6179   -43896.051    71.086613   0.94493438 
   96300    217.78771    31.594039    132019.59   -41219.468    2705.7981   -43925.266    71.012796   0.94466289 
   96400     216.1432   -11.202352    132045.31   -41201.903    2685.3667    -43887.27     70.97562   0.94447886 
   96500    212.90184   -114.92792    131907.68   -41243.292    2645.0959   -43888.388    71.281931    0.9454643 
   96600    212.33899    6.7780176    131937.17   -41237.124    2638.1031   -43875.228     71.09544   0.94525296 
   96700    212.08743    30.882875    132081.28   -41308.265    2634.9777   -43943.243    71.235429   0.94422168 
   96800    210.80295   -130.14874    131985.61   -41339.316    2619.0192   -43958.335    71.235085   0.94490609 
   96900    215.35327    180.58017    132192.24   -41278.914    2675.5525   -43954.467    71.329882   0.94342906 
   97000    216.43246   -41.046004    132122.97   -41297.908    2688.9604   -43986.868    71.667877    0.9439237 
   97100    210.62731   -10.965386    131968.57   -41294.747    2616.8371   -43911.584    71.502815   0.94502807 
   97200     211.2703   -117.37934    132106.66   -41318.552    2624.8256   -43943.377    71.566055   0.94404024 
   97300    210.92249   -24.423125    132167.76   -41317.388    2620.5044   -43937.893    71.631831   0.94360384 
   97400    212.81382    88.504708    132266.12   -41324.534    2644.0023   -43968.536    71.683594   0.94290212 
   97500    215.71702    126.76656    132319.57    -41228.76    2680.0718   -43908.832    71.674989   0.94252121 
   97600    212.67319    81.688883    132434.34   -41294.311    2642.2552   -43936.566    71.728097   0.94170441 
   97700    217.42036   -25.865345    132442.26   -41244.907    2701.2341   -43946.141    71.764283    0.9416481 
   97800    212.41674   -38.761975    132525.29   -41211.758     2639.069   -43850.827    71.729696   0.94105816 
   97900    218.46142    42.167644    132524.13   -41171.377    2714.1682   -43885.545    71.900352   0.94106639 
   98000    216.55791   -85.811308    132431.47   -41198.005     2690.519   -43888.524    71.882365   0.94172485 
   98100    215.12136   -99.931705    132323.54   -41284.944    2672.6713   -43957.615     71.78898   0.94249298 
   98200    218.37168   -28.677587    132250.42   -41247.056    2713.0532   -43960.109    71.851158   0.94301404 
   98300     215.5175   -48.026933    132445.64    -41283.94     2677.593   -43961.533    71.964941   0.94162405 
   98400      214.025    48.594455    132392.96   -41287.645    2659.0501   -43946.695    71.955142   0.94199872 
   98500    215.59279    100.12977    132482.52   -41299.972    2678.5284     -43978.5    72.062108   0.94136192 
   98600    212.00681   -16.071385    132417.23   -41338.399    2633.9761   -43972.375    72.231822   0.94182611 
   98700    212.90057   -39.153076    132494.75   -41378.101    2645.0801   -44023.181    72.379646   0.94127505 
   98800    214.35304   -4.7711618    132299.96   -41361.479    2663.1257   -44024.605    72.339727   0.94266092 
   98900    211.06619    -197.9828    132407.26   -41363.015    2622.2898   -43985.305    72.429702   0.94189699 
   99000    210.69812    -84.44154     132389.3   -41395.606    2617.7169   -44013.323    72.475499   0.94202482 
   99100    210.84254    1.3241501    132237.46   -41325.307    2619.5111   -43944.818    72.205141   0.94310646 
   99200    214.57312   -27.987346    132280.66   -41312.219      2665.86   -43978.079    72.175545   0.94279848 
   99300    213.50165    118.30292    132362.23   -41269.793     2652.548   -43922.341    72.189237   0.94221745 
   99400    218.53054   -3.1517614    132379.61   -41241.177    2715.0269   -43956.204    72.515016   0.94209379 
   99500    221.01182   -83.024334    132424.98   -41118.781    2745.8544   -43864.636    72.447494   0.94177095 
   99600    219.06705   -56.859023    132372.87   -41147.107    2721.6927     -43868.8    72.583318   0.94214172 
   99700    215.81391    68.051603    132312.58   -41159.968    2681.2756   -43841.244    72.545451     0.942571 
   99800    218.75022    74.119261    132356.74   -41161.329    2717.7563   -43879.085     72.46526   0.94225651 
   99900    217.19586   -52.480602    132282.43   -41237.566     2698.445   -43936.011    72.407528   0.94278585 
  100000     212.5161      93.9545    132145.04   -41233.467    2640.3035   -43873.771    72.291956   0.94376609 
  100100    218.82606   -20.468046    132174.42   -41171.597    2718.6985   -43890.296    72.439345   0.94355628 
  100200    216.09832   -11.693843    132312.15   -41167.575    2684.8091   -43852.384    72.615921    0.9425741 
  100300    219.93314    80.962503    132212.22   -41159.564    2732.4529   -43892.017    72.565583   0.94328651 
  100400    215.12892   -87.254782    132110.92   -41196.935    2672.7652     -43869.7    72.570377   0.94400977 
  100500    219.26861      36.7757     132133.4    -41123.43    2724.1967   -43847.626    72.416779   0.94384918 
  100600     216.0548   -30.134932    132180.13   -41196.825    2684.2683   -43881.093    72.581983   0.94351552 
  100630     221.3471    149.45834    132227.68   -41172.513      2750.02   -43922.533     72.62314    0.9431762 
Loop time of 87.6041 on 6 procs for 100000 steps with 4169 atoms

Performance: 493.128 ns/day, 0.049 hours/ns, 1141.500 timesteps/s
98.5% CPU use with 6 MPI tasks x no OpenMP threads

MPI task timing breakdown:
Section |  min time  |  avg time  |  max time  |%varavg| %total
---------------------------------------------------------------
Pair    | 64.643     | 65.905     | 67.404     |  13.1 | 75.23
Neigh   | 5.0709     | 5.1158     | 5.1591     |   1.3 |  5.84
Comm    | 12.117     | 13.6       | 14.914     |  28.9 | 15.52
Output  | 0.17805    | 0.17946    | 0.18594    |   0.7 |  0.20
Modify  | 2.0543     | 2.0736     | 2.0979     |   1.0 |  2.37
Other   |            | 0.7302     |            |       |  0.83

Nlocal:        694.833 ave         706 max         676 min
Histogram: 1 0 0 0 1 0 1 0 2 1
Nghost:        1454.00 ave        1468 max        1437 min
Histogram: 1 1 0 1 0 0 0 0 1 2
Neighs:        0.00000 ave           0 max           0 min
Histogram: 6 0 0 0 0 0 0 0 0 0
FullNghs:      19146.0 ave       19517 max       18549 min
Histogram: 1 0 0 1 0 1 0 0 2 1

Total # of neighbors = 114876
Ave neighs/atom = 27.554809
Neighbor list builds = 5362
Dangerous builds = 0

undump              1
unfix               2
unfix               3
unfix               4


################################################
#######         Run Simulation         #########
################################################

reset_timestep      0
log                 log.run_${NAME}
log                 log.run_liquid_215K_1atm_ML
