LAMMPS data file via write_data, version 29 Oct 2020, timestep = 800000

4175 atoms
1 atom types

-0.29288406797434163 50.29288406797039 xlo xhi
-0.29288406797434163 50.29288406797039 ylo yhi
-0.29288406797434163 50.29288406797039 zlo zhi

Masses

1 18.015

Atoms # atomic

2895 1 0.7338328351771597 1.4451834443562581 3.122116590373154 0 1 1
2151 1 7.651817029060816 1.1915685307637318 1.72290651926662 1 1 0
216 1 4.953319774538035 1.9335877763930238 1.0530317891806353 -1 0 0
449 1 46.42179657283663 22.974634540438743 13.057380760009577 0 0 0
49 1 18.465098558090123 1.0515325222443745 2.0249355733492034 0 0 0
2518 1 21.985943055369756 1.6095138577302004 1.8668720756938106 0 1 0
253 1 19.934921750360683 2.1406661210065523 4.205293554349112 1 0 0
3925 1 24.522830291967615 2.0646221122498174 1.2964260567845713 0 -1 1
1885 1 42.90809207373702 16.01998744891579 0.8911957976880018 -1 0 1
1624 1 31.842260419775684 3.1798126689122226 2.5406747167429393 1 0 0
1772 1 38.271292248860924 2.6530676475887227 2.08795598689265 -1 0 1
4101 1 37.643074538423804 4.84846632433275 3.808869404431343 0 0 0
2606 1 40.57930827496159 2.1834441099268274 0.8508165022387 0 0 1
837 1 44.64631469409572 4.0117828307922405 3.9514738347503435 0 0 0
1681 1 5.604483984626997 4.568945895881678 0.22917525820334916 0 0 0
3260 1 48.47866546565753 1.2641557397430125 3.0210352921170203 1 1 0
228 1 0.1833880882490801 4.758506079824475 0.6777187623009173 0 0 0
181 1 20.531338515933744 24.358758565440485 3.765379611319384 -1 -1 0
3727 1 8.323396571194227 4.087249210512554 1.593759961649943 1 0 1
209 1 13.258884393322658 3.470741613249588 1.0995619078832728 0 0 0
2020 1 12.622556787080901 -0.014472999943635045 3.89530716238128 -1 1 0
2382 1 17.712825856048187 5.713539626338141 2.148863515274789 0 1 0
3956 1 25.05469259237336 5.038517119156064 1.1797948927039852 0 0 0
1201 1 7.7251959141419135 16.195377658860895 0.15965721106943576 -1 0 0
2673 1 29.31555386467963 4.2008827599232355 2.8739211848382316 0 0 0
2837 1 33.543039111045864 5.215381432900962 3.191103150055534 0 1 1
3334 1 39.88301878408832 6.99201287318734 1.0712494748452641 0 1 1
648 1 1.5637650518271944 23.091262470905203 8.555338616392042 -1 1 0
1594 1 15.269122541867716 24.193591361701927 7.409843562132207 1 0 1
1703 1 48.09431062895772 4.817054266961584 0.9735712260927984 0 0 1
564 1 3.3786045595641134 8.12515291609769 2.1763356276180135 1 0 0
3904 1 5.523772141486268 6.6044946208757835 1.8145510489799834 1 1 1
1849 1 22.1748386193855 -0.17291571732413621 15.909071703584171 0 0 1
2430 1 12.929970544360163 6.352847794948144 1.6173316645282316 0 1 0
2737 1 15.217992577072106 6.765046230752312 2.846720786129622 -1 1 0
1364 1 15.929800519941868 9.588524132474207 2.3512003282372556 0 0 0
2177 1 19.158882518392485 7.562836817010073 0.8155384583501495 0 0 0
4062 1 20.93742634361788 9.067638937247418 2.6475504259660823 0 1 2
2441 1 23.572922664231815 8.862989165937512 2.7751595752960982 -1 1 -1
3272 1 44.20172809756527 0.10228873241854264 6.730052464461968 -1 1 0
3784 1 32.45520527632703 1.6986827380513412 0.31960424195765413 0 1 2
3201 1 33.94594315568528 9.475662303036565 3.1324181556382023 -1 1 1
2716 1 37.56578860808347 23.625482981189233 5.672571387906252 -1 0 -1
1075 1 41.46938359214599 6.098225005247791 3.3527211081730193 -1 0 1
2008 1 46.98722592383427 7.38494351052389 1.592877533646726 0 0 1
1475 1 48.135300871729214 9.27533728828342 0.018935948865874797 0 0 1
326 1 3.879751187334863 11.225153449562239 2.2516128253059278 0 1 1
3946 1 11.608870456304311 13.778571445440637 0.2752168138541524 0 0 1
4092 1 24.96208810790512 0.004754768415099309 11.213581857747476 0 1 1
715 1 13.715824777068866 11.04543049680738 1.6621187217477247 0 -1 1
3277 1 19.619679476412472 11.464984865441872 2.709693305873592 0 0 0
1087 1 24.506491630685584 11.515548395966238 3.066020003037772 -1 0 1
563 1 27.2874861734953 11.49185091108822 1.870951950258084 1 0 -1
1870 1 29.67362203889174 10.276903247755593 2.479850052409779 0 0 1
2885 1 32.5963696060416 11.150823681443388 1.7022827642402956 0 0 0
2703 1 36.12573795863745 9.188771335398009 1.3447340911133054 0 1 1
919 1 35.59814470328436 11.701540220503928 0.27863990552325857 0 0 0
2856 1 42.1745963574844 9.508054698724347 0.4740998609582583 0 1 0
2751 1 29.303722383808598 0.5974768937265181 5.45266556728136 0 1 1
1724 1 45.53773048815291 11.321281737274347 1.9193855805269253 0 0 1
3355 1 48.43784445773065 11.330091056484312 2.4184806432520958 0 0 2
3250 1 49.705677544997684 13.303982888387644 1.160155980388682 -1 1 1
1540 1 1.6197773064198109 12.679239183016838 2.813676398123176 1 0 1
3082 1 6.133951138586353 12.717206102146767 1.2122386706905957 0 2 0
3182 1 3.193582528214281 16.225772432034066 3.7267489302401664 1 0 1
721 1 19.58097947959265 12.779132767905256 0.537897099630337 0 -1 0
2882 1 10.534896789420468 13.9826919386111 2.7483575339462827 -1 0 0
3178 1 41.98198975627242 1.0779059648916036 2.861247977222271 0 1 0
3459 1 14.72200921940159 13.341251573906828 0.6061323475635322 0 1 0
3296 1 15.977562512244194 14.888695497325259 2.6082633429427124 1 1 0
133 1 18.3326101074933 14.954563427835122 1.1055765716446122 0 0 0
960 1 24.0789435447568 13.746627841171128 1.0940966360777997 1 0 1
770 1 22.407052754359935 15.36457056960319 2.894540817317238 0 0 1
3644 1 28.030495733887687 13.895875712948035 3.1572795074049473 1 1 0
507 1 48.84191510483831 0.8656958321082753 12.605896148263255 -1 1 1
3626 1 28.59354293649932 16.18569222075774 1.4801192842812518 0 0 0
1137 1 9.303245482028684 9.854311825360574 0.02065892099476835 0 0 1
1438 1 23.606225912338388 23.46278982519183 1.2479017913090449 0 -1 0
1903 1 35.94402959424433 14.489463837263907 1.1066646949193493 -1 1 1
3051 1 40.67148210144904 13.430870336705006 2.7570045441097815 -1 0 1
1714 1 44.68384147341805 14.153988812662016 1.9235379866882019 0 -1 1
1133 1 2.498615894233004 14.811541142573633 0.9652983442726122 1 0 1
1698 1 3.218281927010601 24.637390142071638 11.97105818430031 0 0 1
1427 1 22.27821389857222 23.034641255508898 15.432849842002183 0 -1 1
1095 1 50.266636507176635 -0.02110692473929987 9.257950221025768 0 0 0
3072 1 11.239522289632045 17.796943346895034 2.466141881262542 0 1 1
3974 1 12.827863065074315 16.1688176925071 0.7170151490077419 0 0 1
1165 1 14.118299063421103 16.698287809996785 3.3175968176560957 0 0 1
72 1 18.11240234975255 18.01353452227966 3.006632991108526 1 0 0
1341 1 20.253866808138426 16.683335272666138 1.7529556256995167 0 0 0
1926 1 24.398527439918993 18.083956317860412 2.2202772689409414 -1 0 0
2345 1 28.22282104110117 18.472913859773477 2.9575144483457514 -1 1 0
532 1 31.314053033651327 15.851575628426836 0.9072682788753232 0 -1 0
1344 1 33.992088473390254 16.98633779878252 0.743013602396295 -1 0 0
578 1 36.12042051198878 18.36488918678639 2.6892924275357415 -1 0 1
1296 1 38.184171625980646 18.568707526647763 0.9970087749079035 0 1 1
3772 1 40.07052243194305 16.723240514517222 2.0041491362498935 1 0 1
2064 1 24.414708560816223 24.350427905212864 7.9428322675012275 -1 -1 0
3733 1 35.498088491811416 24.287004253266595 9.338764477959213 -1 0 0
1841 1 4.804049150948681 18.89810761187296 3.793217900940367 0 0 1
3941 1 4.311248793945131 21.43608904197897 2.220936129958398 0 0 1
2575 1 8.93873513439276 21.401077646758825 1.5884723381461179 1 0 0
2084 1 11.34025291999101 20.735196144089194 2.5832397929279054 0 -1 1
2913 1 35.02907521850008 24.87386601082017 5.612687815164409 0 0 0
2391 1 15.3150101282875 20.786665176416907 2.3958787833384116 1 1 0
742 1 16.02825993052909 18.375560138140138 1.5839993859977333 0 0 0
3379 1 18.371243007270266 20.836933935237578 3.2051215203096155 0 1 1
1846 1 21.991546889934376 19.070769109738976 2.0815232491301154 0 0 -1
3557 1 23.19463059906358 21.207607955239972 4.3172710184069425 1 1 0
3965 1 26.356468531588497 19.976484112499957 1.361717917828812 1 0 1
591 1 32.576700665048335 20.939418474732236 2.143603040831848 0 0 0
3633 1 34.85283358663964 20.30717959718295 3.7689094486614003 -1 0 1
3720 1 39.325544624246206 21.04990059562964 1.3072710499760836 0 0 1
616 1 48.29631832603796 22.37563477593281 0.43520821673794663 -1 -1 0
2234 1 43.56987683451741 20.072186692533133 1.1868958543815373 0 0 0
2068 1 49.569988682564556 20.566373952665433 1.9432682039001898 -1 0 1
3476 1 48.711145166062785 18.31123918480762 3.0365181988937344 0 0 0
2316 1 1.6530135098665355 21.607607520239586 1.797084897287017 1 0 0
138 1 17.21604543478427 8.955159410195343 -0.15675039045189418 0 1 0
57 1 7.728036318614844 23.781174074799647 2.343784772951359 1 0 0
4013 1 0.7810014165177528 0.4670638029839984 0.21981076003885425 0 0 1
1129 1 17.12478223715354 22.933654950625133 1.2285940198935796 0 -1 1
3523 1 20.90079124677872 21.718267837830503 2.655899793776214 1 -1 1
747 1 46.392715856643875 0.44745861756223815 8.199514238517452 -1 1 0
406 1 26.00651984208474 21.570720560267784 3.3890624773046634 -1 0 0
2946 1 2.993154974510781 10.249013638034992 -0.23807900236286372 1 0 0
2565 1 27.738694638153596 4.406351707600316 0.613707723072895 0 1 1
1670 1 31.919001406931486 23.33165099446321 3.1717528451454395 0 0 1
608 1 36.2086701493129 23.526081933949612 1.6854483496804835 0 0 0
1513 1 37.47838178554656 21.703703519371604 3.385418433890328 0 0 1
2292 1 6.883158369068548 0.4251786646977266 4.152221879413041 1 1 0
589 1 6.509892311701583 22.41767686080818 16.508734242407716 1 0 0
1254 1 40.56754816731699 24.424426671938935 15.30928667985849 -1 0 0
3609 1 47.84368966530847 24.03172904842669 2.8363216543469063 0 0 0
188 1 5.224594949456849 2.2053725514259557 5.746392357030291 1 0 -1
2126 1 32.30537062064092 -0.2459838078681713 16.10395488943904 0 1 0
782 1 44.261703909431134 5.443220674265564 -0.09392086361583071 -1 1 0
3045 1 14.039446703603417 2.413312379763894 3.487173510352409 0 1 1
3325 1 16.341545350756224 0.5792021358049689 3.7140784287375928 0 1 0
1484 1 15.784327740434495 2.5100018350710647 5.794723323121849 0 0 0
1390 1 19.89059744125728 0.508112473725663 6.567217334796429 0 0 0
587 1 22.501614822060535 2.5084993986205593 5.258534616139963 0 1 0
3577 1 24.605934920063344 0.8779064008717141 4.025193607933559 0 1 1
2619 1 27.166654839447308 2.0982342606018896 4.500438405294883 -1 1 0
1862 1 46.38401271688062 20.306366800013393 13.606697095704451 -1 -1 0
791 1 32.14254662734284 1.5323313930894082 4.596902448201443 -1 0 0
2319 1 35.022463695795366 1.4566034703867259 4.361222666041581 0 1 0
3838 1 40.034570097998156 4.625422519703517 5.285281844497168 0 1 0
1628 1 49.35873991651918 15.981772620156367 0.3170276087735271 0 0 1
987 1 30.637604202476528 24.890048337527073 9.685673370014507 -1 0 0
4142 1 2.000042538989869 3.969500624791374 3.030175260243584 0 0 1
243 1 4.570752153813489 3.7711501182706373 3.635081197018221 0 0 0
3737 1 8.945854286691448 5.223107570714072 3.8530303062613527 -1 1 1
3739 1 8.903201004168636 2.617094484814412 5.394852220483349 0 1 0
28 1 11.807394119725647 3.413874970482515 4.945719921707664 0 0 0
2869 1 13.039792773094446 5.479015487037689 6.3258474011509565 0 0 0
1599 1 17.045802426084695 4.678986221629733 6.693663736645056 0 0 0
769 1 19.042682288993102 4.73284477596086 4.625115894064789 0 0 0
593 1 20.798363571989082 6.252362210850655 6.102868926150664 0 0 0
3410 1 23.39489750998339 5.043393323359596 5.214882586657755 -1 1 0
1409 1 24.91409720849971 6.621648504312229 3.394419436397593 0 1 2
187 1 27.089003855974482 3.9835744287598454 6.387139828435259 1 0 1
3670 1 32.14235266777083 7.250236410357544 6.766258211520319 -1 1 1
3350 1 34.088309308623515 6.310152925204869 8.54366335846935 1 1 0
1815 1 35.21828628288717 3.926200138208138 4.954364627255633 0 0 2
2451 1 36.056919559376404 5.186167863843965 7.143634216875803 0 1 1
3322 1 44.4819922765584 7.885707472165647 1.3706910139793738 0 1 1
1405 1 44.22318653920359 6.822975617519317 3.786094208556907 -1 0 1
237 1 47.27716786351117 3.5879809235104485 3.2219920205356005 0 0 0
1274 1 48.906870973963386 4.86214229252022 5.329679484376974 0 1 1
2193 1 1.216834149661942 5.2820159131217865 5.250754460905346 1 0 1
1937 1 6.50469815915213 6.360793452418058 4.372010323275959 0 0 0
297 1 3.9077995089115554 6.715706322252408 5.030012425865436 1 0 0
1077 1 8.404060013768966 8.794047797749476 7.459309566533215 1 -1 1
1556 1 10.784989805321803 7.504038283515659 3.344865125926275 0 -1 0
4114 1 9.834381787648917 9.933197409068802 2.8139766266951263 0 1 0
643 1 11.11671111791974 7.376784102134231 6.073598698545895 0 0 0
1858 1 15.441667671005565 6.541490940083197 5.469897707697593 0 0 0
812 1 16.340946020805394 8.312179644600986 7.219172922589958 0 0 1
2208 1 20.927258568682795 8.89653198849524 5.359008490400377 0 0 0
3079 1 27.395370778149246 6.300606629665099 4.454265437483265 1 0 1
2574 1 29.73618970472342 7.379065208279832 2.93503766892216 1 0 0
3150 1 29.805760944539063 10.297176025608836 5.495699919420526 1 0 0
2768 1 32.238407013957556 7.401838668163036 4.089133573025381 1 0 -1
543 1 37.88939966513602 7.665301610335287 3.1100787979441376 0 0 0
1820 1 42.125392837357936 9.376529430945698 3.56678247376859 0 -1 0
3757 1 48.182839416210186 7.31327364381408 4.02295103124568 0 1 1
1024 1 0.8213107210901647 7.193637392536738 2.931546260510925 -1 0 0
3998 1 3.0463307705629052 11.33989033932864 6.346718311013448 1 0 1
2781 1 4.749533427267187 9.599345429569517 4.647967317862329 1 1 0
147 1 7.454481171532754 9.0589378446243 4.690525650508743 1 1 0
930 1 11.97986036169899 11.581418778126897 3.692462456170836 0 -1 0
2838 1 17.233943959889586 11.174237425961703 4.085681545891973 0 0 1
471 1 18.44789930572658 9.802235576302742 6.109497295334934 0 0 -1
2127 1 23.080510859030515 10.300623368644219 6.702858726496374 0 1 0
1760 1 27.739770911847717 11.232797933940077 7.732058692372021 0 0 1
1217 1 34.62740952742118 11.035795554335358 5.295324116886732 -1 -1 1
3954 1 37.073582613861625 12.341902879890984 4.769014832515094 0 1 1
1192 1 38.520613806073875 9.880667824483202 4.6242148139728485 0 0 1
2559 1 39.920887963212266 10.751487941932766 2.415331768285917 -1 0 0
2373 1 44.305442603856086 10.787427263936442 4.512758086783503 -1 0 0
1535 1 45.87176889632297 11.132700987920677 6.707176659029299 -1 0 1
3561 1 45.99119664597475 8.227327126459507 5.409182228145961 -1 1 1
1782 1 49.95231547951043 9.626969770471566 4.066173082868354 -1 -1 1
4081 1 0.08630676292207284 16.345952841172164 2.8065036363932885 1 0 1
2181 1 2.5008729370849476 13.848464548072393 5.270704799539258 1 1 0
1147 1 7.424358888147963 13.799905595112069 3.265734921806305 0 0 0
1852 1 12.424046380016343 10.16763215668655 6.058399957582457 1 0 0
2680 1 13.210161876181365 13.26593671652075 5.750494929629791 0 0 0
2645 1 16.157808834369746 13.458176962753987 4.9702187088298855 0 1 1
1171 1 20.808407516566717 13.436865237989986 4.3074917685752965 0 0 1
2092 1 18.718402619142733 14.569951795268313 5.927216695773028 1 -1 1
222 1 23.477919454189966 12.550213827561914 5.405401730505779 0 0 0
1400 1 26.009638934057897 14.178182109262156 5.028653256473672 0 0 0
2321 1 29.979723562317243 13.32711964672601 4.998320514426002 0 1 1
697 1 32.20339473465151 14.9070263908115 3.7882298212869605 0 1 -1
2522 1 34.34544614634702 13.050988373371544 3.2231305923278897 0 0 1
478 1 38.08839236207722 14.821707959648887 3.19901601396072 -1 -1 0
1866 1 37.07322993337187 13.166902168507866 7.2985663300477714 0 -1 1
3662 1 42.940820090271885 13.35753243552808 4.378642652454909 -1 1 0
3116 1 47.043008938183036 13.736913080814984 6.945039009363637 0 1 0
3512 1 48.46613870315952 13.683376489924843 4.618274142678172 0 0 1
1939 1 1.5155420765310896 18.199005852099912 4.960365893148444 1 -1 1
3041 1 5.874562868140134 15.522985964419638 4.824969550887623 0 0 1
2197 1 8.509287510519316 16.709828373819303 2.6129730825782467 0 0 0
635 1 11.845382377482862 15.540339221471434 4.613868943669605 0 0 0
3327 1 14.83956878610311 18.4848915581164 5.3789175607770625 0 0 1
1935 1 17.402175339946467 17.208603821849067 5.408584989532119 0 1 1
3152 1 24.649648444243056 16.53332006376319 4.544294428954937 0 1 0
4032 1 27.154457038095824 17.620174011764096 5.456381474267221 -1 0 0
3748 1 32.20965783741724 17.545226690877538 5.465127474132086 1 0 0
3137 1 37.32872237698609 17.147656960703575 4.765643355335994 0 1 0
1442 1 43.34307214685946 16.545666233588747 4.564385042531512 1 0 1
729 1 46.375676561107305 15.557807357211477 3.8171989085762945 -1 0 0
1546 1 46.30542807974811 17.750101678316437 2.3247419594344394 0 0 1
2185 1 1.4917353299249625 22.565023838384803 4.448004317335568 1 0 0
3669 1 3.0520059798742456 20.625003278194466 5.424958167990847 0 1 0
2157 1 7.558073039016647 19.371061099439217 3.1966731861718833 0 0 0
888 1 8.05122268056959 16.80403398813022 6.083508750673734 1 0 0
1665 1 9.177015905078648 19.33543412817251 5.448187429310295 0 0 0
709 1 14.46761168241125 21.315391976340617 5.149539415739035 0 0 0
2658 1 14.062687527960248 17.974711977132255 8.141012948114591 1 0 -1
1543 1 19.072238910970558 22.10995705091668 6.024567369773203 -1 0 2
1206 1 22.72802832472693 20.096808334409282 6.63993395316793 -1 0 0
638 1 27.250364974278206 20.28247963021067 5.7850370557750415 0 -1 -1
234 1 29.952468635133737 20.890956520643968 5.824141317232256 1 0 0
404 1 30.885275521141036 19.364830149250874 3.790629429764742 0 0 0
2223 1 35.01882653690791 20.687117401033003 6.469272709747697 0 1 0
2295 1 38.89887264562864 19.672333135490675 5.253081274547369 1 0 0
1979 1 42.00552728646373 17.541279919417086 6.806280388518898 -1 1 0
739 1 40.986006087751356 20.527078249020906 4.076792127735551 -1 0 0
2583 1 42.05350227099438 18.425982731217463 2.8295406045462084 -1 0 0
3090 1 49.089425761786224 18.81501734034614 5.820889576046299 -1 0 0
227 1 1.2990674563964586 0.49060946110872494 15.97401475109007 0 0 0
1545 1 28.622493743465004 0.6677079624771917 14.156021931024657 -1 0 0
653 1 5.33837794586235 22.217755445781503 5.925355132776493 0 1 0
2809 1 11.601324336586044 21.90373762440941 5.344838414966969 0 0 0
2741 1 34.2037334009989 24.78263288470201 3.076050321271962 0 0 0
390 1 20.545795450732296 24.125538194509293 7.3668576617863835 -1 0 0
3911 1 22.937500942092512 23.60276007929624 5.509427317008355 -1 1 1
2544 1 43.78257416105305 2.8047394299589747 1.662275807621189 0 1 -1
1783 1 36.90482661043972 0.2169336746451903 2.6591213488886893 0 0 2
938 1 43.74713299036678 23.848508592203604 13.728915980656643 -1 0 0
2317 1 26.824372510827285 20.843965125836757 8.56417215495801 1 1 0
1878 1 31.417631797178768 23.16648770117844 5.847854457426003 0 0 0
2578 1 36.36312031583801 0.20692989666057082 12.694543208533348 -1 1 0
4099 1 45.469375667250205 0.6263442488931222 0.5575943763762946 -1 1 1
3859 1 13.322331849342063 24.86124527009648 5.384714497199281 0 -1 1
3660 1 42.61869660888067 23.217523619274324 5.102604762418032 1 0 1
1773 1 45.93951816293312 21.23131282784088 2.6571036895608446 -1 0 1
2305 1 45.55883714576154 22.777649091928122 4.899170531222657 0 0 1
863 1 1.0836229152469363 2.5471942221335397 7.334955508300132 0 0 1
1083 1 5.102114095443425 23.65528196546427 3.360772128658265 0 0 0
1639 1 6.753524163812862 3.3356943743814367 7.706955299722194 0 1 1
3903 1 6.620551923232456 0.9546779341210898 9.28286814445278 0 0 0
1696 1 13.365717529468697 2.138378692851087 7.166206908157675 0 0 0
3993 1 17.430523855765284 1.0138074964270913 7.591809801497976 0 1 1
3288 1 21.095358968904428 1.8852878230883907 11.90536852433629 0 0 0
1928 1 22.398447999205978 1.5258746799807164 8.02583236379714 0 -1 0
448 1 25.4592126540474 1.865545944815182 7.872642578715675 -1 1 0
3731 1 36.614785664413716 23.61929348785203 14.777537298827102 -1 0 1
4103 1 31.711809194075514 1.9766209763376135 7.348642191666433 0 1 1
2497 1 28.366415377799083 3.1849380828588663 10.254168879890008 0 1 0
1562 1 34.0798563091116 1.6847859085575891 9.684356788913615 0 1 0
995 1 30.46817432108104 7.566074550771736 0.28661531379264626 1 0 0
654 1 35.03243273382662 11.087259706789903 15.89007612843628 0 0 -1
2248 1 47.50746175937917 -0.1866183204720243 5.31573756855553 0 1 0
3771 1 36.07223290231551 0.5285275064110349 6.829874460800202 -1 1 0
290 1 42.11690127163969 2.155958000651273 10.429839232939077 0 0 1
809 1 42.99079468964676 2.2632709204889507 5.4801582434475815 0 0 0
3490 1 44.95397110532352 14.86220352298004 15.330136343715829 -1 0 0
2642 1 49.054796814578694 1.5880676392192914 7.359353493525023 -1 1 1
3795 1 2.3179885659259973 4.343698415158905 9.35773754024593 1 1 2
792 1 5.976987130815736 6.252374755361648 8.739480989126202 1 -1 0
1894 1 9.774465138098979 3.3725037369558475 7.927446426030313 0 0 1
3401 1 12.395369862901537 3.8068191628024595 9.040455741014846 0 1 0
2652 1 13.886196850861522 2.0094961822506505 10.679411974371082 1 1 -1
983 1 17.695848557802368 5.152654247550571 9.441202706272854 1 0 0
780 1 22.089920291149994 3.732942253849206 9.88268785343294 0 0 0
379 1 25.053600154630928 5.664489608423684 7.39022159331723 0 0 0
2739 1 29.623916365498197 3.9019727736654133 7.734101839875326 0 1 0
719 1 33.0022491887657 4.288580931008413 10.239876430556071 0 0 1
3507 1 36.55977211094499 2.806220900417133 8.599340029164829 2 1 0
3841 1 40.25910692843445 2.440593674948274 7.252713627459911 0 1 1
1100 1 44.056522377452524 4.2998636571581 7.266359843680871 -1 0 1
3062 1 46.92107093991867 5.123909441331277 7.383878942832577 1 1 1
2024 1 47.90320456875759 3.5208921460421223 9.068623944000501 -1 0 1
1893 1 1.548672638466405 8.4541911254468 8.384937006262824 1 0 0
3112 1 3.1780446985621316 6.464113044629306 7.823923776962777 0 0 1
2130 1 9.161362354709158 6.2189418910626015 8.148770208898041 1 0 0
3418 1 6.124253385682293 8.77007863808355 9.54901716660234 1 1 1
2760 1 10.14699655134086 10.92354144521423 7.8467580256548555 0 1 0
23 1 16.132171636867472 7.306594307907075 9.585854701500649 1 0 0
3352 1 13.365988653123262 6.513180331839224 9.920768400235653 0 0 0
2881 1 20.401929039877686 5.66949923496716 8.867361067931983 0 1 0
193 1 25.04337175954382 8.126516384349838 7.59881390006295 -1 0 -1
3605 1 27.92168974463996 8.256414996847113 6.4737837063454995 -1 0 1
3719 1 29.735752135218558 6.743372328538504 8.146360803092618 1 1 1
1636 1 34.80427932711306 8.885503823490104 9.507078482448708 0 0 1
3361 1 36.561842318479144 9.09364100801824 6.987876272504739 0 1 0
94 1 38.31569580583986 6.757274569784169 6.934674416239472 -1 0 -1
3819 1 40.530442924827646 8.875135493224482 6.051585997399831 1 0 0
2108 1 42.28859876875526 6.464334138461529 7.887923991314889 0 1 0
2368 1 46.83542812722261 7.727181192192736 8.082221631321186 0 1 0
3939 1 0.5606527042103348 10.240901868212255 6.609124335950323 0 0 1
2858 1 6.203965916373833 11.174572149226174 7.393033731690831 0 0 0
3121 1 8.769988310147806 11.899753775218892 5.014348456725294 0 1 0
467 1 10.73885440312547 10.42592370058893 10.3970351519258 -1 0 0
1363 1 13.107145512355968 9.348352939153246 10.242702103211963 0 0 2
1063 1 14.323135315975982 10.228588288648087 7.956219358451859 1 -1 1
1759 1 15.947338692825458 12.5758117406488 7.820536121309118 -1 0 1
3654 1 22.240204663536925 12.32019688702611 8.803527872368134 0 1 1
4131 1 18.291663951913613 11.394601075172254 8.457619761350447 -1 0 0
118 1 26.672460224404542 9.21258655483431 9.71635468492115 0 0 0
264 1 29.954800832949374 11.662818427344943 9.204067024766593 -1 0 0
1625 1 32.3150816258558 9.974478841704524 6.670707742368357 0 0 0
124 1 32.14069310525648 9.888993616428436 9.38771373265226 0 0 0
2835 1 37.36962085142664 10.975404020357312 8.966324271470526 0 1 1
2601 1 39.852264868047115 10.10960146245344 9.70698527686551 -1 0 0
1387 1 41.70138001720793 10.773555731526837 7.5628134644210165 0 0 1
2825 1 44.09684999636153 10.289368898916555 8.69487395547235 -1 0 0
1941 1 3.445355200816332 15.075446169711155 8.363202916827339 0 0 0
881 1 4.7232359732568705 11.891019650885115 9.66880047783737 1 0 1
920 1 8.285029325511339 12.794705729133074 8.164171261746965 0 0 1
157 1 13.10881473177439 14.364594706472515 10.427822803164608 1 0 0
2474 1 15.505459590066552 13.447327743818297 10.787321950094613 0 0 -1
2683 1 15.585982715289687 15.848252558021876 7.253623360449039 1 1 0
3054 1 19.33381031785816 13.963850016053511 8.441910403856264 0 0 0
2732 1 23.486521843905862 14.372480582145712 8.010782017791163 -1 0 0
1230 1 27.796982673462356 14.158806593142073 7.066984721058494 -1 0 1
2140 1 29.60559334823305 16.497149059029898 6.5547796005187635 1 -1 0
3499 1 30.669966110540038 14.720303775066967 8.752257931959608 0 1 1
1615 1 32.5217593609217 13.117886963404086 6.8012971620544835 0 0 0
2932 1 34.653437635724536 14.662948984503377 7.3953423402147935 0 0 0
496 1 39.66673571845768 14.315897008832195 7.7763960270968795 -1 1 0
2753 1 42.05585759133461 13.403349798676997 7.007925123478692 0 0 0
2054 1 50.12583637132376 11.95053206375088 8.784831544435892 -1 0 1
2458 1 2.202232969209716 17.812728891340697 7.803608696165771 0 0 0
620 1 5.757363141268166 14.136792371220075 6.97637923657262 1 0 0
4117 1 7.271990914889716 16.021010211307985 8.730782568324727 0 1 1
2667 1 9.97595168132885 16.05228926753765 9.452941821794 0 1 0
1554 1 9.72643381290457 14.733688297409671 6.412737848934372 1 0 0
2463 1 12.646780823446628 15.253159919091843 7.760383216034871 0 1 1
4041 1 16.958460856402358 15.349235054465082 9.559238109761555 1 1 1
2088 1 19.427783610185607 17.674838905214195 7.273088134910768 0 0 0
1078 1 24.079983340874577 17.71840282915741 7.009813967947666 0 0 0
1404 1 21.72248525654786 16.24753646655883 8.406601692638286 0 0 0
2433 1 26.027207982124388 14.6394234794928 9.114544490528854 0 0 0
678 1 31.47160205346564 19.623867538998244 7.762756545780933 0 0 0
348 1 29.60403657185205 18.207100289722888 8.891456516190798 0 0 0
1250 1 34.8765683077731 16.908271356743036 6.003098152322254 0 0 0
4043 1 34.712984711691085 18.654579843641198 8.561032394618465 0 0 0
957 1 35.10833600242632 15.892712665588292 9.689202102399946 -1 0 0
1025 1 39.324494886165795 16.989369414011065 7.1693048259673136 0 0 1
2783 1 43.355984987848245 15.423035547679264 8.180937567361823 -1 1 -1
3599 1 45.43273920433769 16.17421597248073 6.380576940529895 0 0 1
3785 1 -0.07241728776472131 13.523769281012347 6.227130134301663 1 1 0
2867 1 2.1327082776793436 20.238783684776404 9.577733115636782 0 0 1
1888 1 4.485654923016435 23.24436868466118 8.450901998169732 0 0 1
1416 1 4.681336929265772 21.01519171931014 9.841657725631196 1 0 1
3449 1 6.5583524984592 18.85852822460935 9.588621510613459 0 0 1
3562 1 9.97400000293398 18.770881860955285 8.1601876692329 0 0 0
295 1 15.850353061540641 20.092372477358627 8.91960027293303 0 0 0
1953 1 20.25221346946854 20.105904728873853 7.480912984138911 0 -1 0
2797 1 20.093702539315306 20.846856214730597 10.047804861012564 0 0 0
2490 1 26.679234715088892 17.66720748874342 8.497982479304419 0 0 0
1620 1 28.38920555689207 20.144836326976908 10.627412786882083 0 0 0
3069 1 33.21109761754121 20.307737230581083 10.01226758709099 0 0 0
454 1 39.39997526195042 18.53476449610185 9.345590292736365 -1 0 0
2567 1 42.26523249431232 20.493918094893537 6.81535236314162 0 0 0
1952 1 40.93474981665424 21.00750534383918 9.113040524995037 0 0 1
1092 1 46.53272417071315 18.720283161596917 7.036889477583523 0 0 0
1336 1 -0.14117254647028687 16.48151181787176 7.525930659455431 0 -1 0
259 1 0.6201365045909445 23.920518913595476 11.19672630394714 1 0 1
179 1 49.970022974511295 21.339907872141772 7.018978409308507 -1 -1 0
96 1 4.662691649569829 17.42418373511831 1.1377306270121414 1 0 0
585 1 7.332448711666105 20.813499435345246 7.420609403580291 1 0 1
3732 1 12.251923183025946 20.343706184920684 7.839010360520403 1 0 0
1575 1 16.525606828232707 21.722053735686945 6.946430876011419 -1 -1 0
2232 1 3.065086679507885 0.7634223496624397 6.572434442390763 1 1 -1
2325 1 23.979588412085068 21.223317512080733 8.969876414821824 -1 1 0
2775 1 39.98021645992244 22.13559718330356 13.431532088312164 -1 0 1
1641 1 23.726800261068338 21.43156275308788 12.315827193470492 0 0 0
2268 1 27.511235443049028 23.391035961419096 8.529074680134107 0 2 -1
310 1 28.78980438919205 23.155982297964524 11.09776178044047 0 -1 0
2951 1 32.72210750708597 23.208000366691657 9.89167273484639 -1 0 1
1795 1 33.84039535115056 23.09015875243104 7.271199597365999 0 0 0
2964 1 27.74961064051191 1.4789225312054248 1.5263173035962438 0 1 1
3673 1 37.1870080879508 22.339366471577875 9.77959951980361 1 0 1
3967 1 37.68167607702703 21.1702369455766 7.187443211135735 -1 1 0
2770 1 45.00364424848294 21.016841666735 6.892634314503656 -1 0 0
1965 1 49.32293120274157 21.99912229735889 4.254409059857909 -1 0 1
588 1 23.164031897172993 23.77322602773083 10.46750841821419 0 0 0
3276 1 1.8190160038018282 1.3494437756412285 10.374350976698075 1 0 1
409 1 9.1496361180492 2.928453899738997 12.090317292880641 1 0 0
247 1 9.25079142078402 1.5961647532281416 9.755271892058651 0 0 -1
2098 1 11.637361540666879 0.2783683188988879 10.428170298650008 0 0 1
3390 1 18.284810037944602 2.1543083553488165 12.122550924987488 0 1 0
670 1 13.10393889074661 21.412801475947063 0.7465357707255151 0 0 1
675 1 20.84786425500117 3.095863854818493 14.456531101901279 0 1 0
2734 1 25.872794103296087 2.652201878999088 10.339476378794094 1 1 0
3249 1 29.893183456691055 1.795695023432991 12.241808298539642 1 0 0
2260 1 10.747398402364336 24.420906076572326 15.412998692526116 0 0 0
604 1 39.77937783038486 0.7054604759873104 13.268747178282368 0 0 0
2687 1 38.138025849014724 2.7894661085153536 12.609081403958742 -1 1 0
2114 1 42.189043694810294 2.006715334357907 12.997925699324286 -1 0 -1
2452 1 46.35597472882146 1.0372132867394466 13.1392241615749 -1 0 0
1574 1 10.346650021822013 4.2801048931383825 16.407191831972725 0 0 1
2279 1 24.935712034740938 16.395436785721056 0.22294023061348256 0 0 0
3055 1 49.97309189952351 4.848175399819719 10.073832518834848 0 1 0
2571 1 50.21243362594495 3.2791010147060136 12.61070906121829 0 0 0
1895 1 4.85771507680954 3.254565114307483 10.756230215028706 0 0 1
3847 1 2.611605423290963 3.3674782441121742 12.844612646015193 1 1 1
2243 1 14.820453862333762 3.5059228792018606 13.038554003970956 -1 1 -1