
# Create simulation box of size 50 x 50 x 50 Angstrom
#
lattice	            sc 1
Lattice spacing in x,y,z = 1.0000000 1.0000000 1.0000000
region 	            all block 0 50 0 50 0 50 units box
create_box          1 all
Created orthogonal box = (0.0000000 0.0000000 0.0000000) to (50.000000 50.000000 50.000000)
  1 by 2 by 3 MPI processor grid

# fill box with 4175 randomly distributed atoms
#
create_atoms        1 random 4175 63782 all
Created 4175 atoms
  create_atoms CPU = 0.001 seconds
mass                1 18.015

# Define potential
#
pair_style          sw
pair_coeff          * * ML_mW.sw mW
Reading sw potential file ML_mW.sw with DATE: 2019-02-27

# Run minimization
#
minimize            1.0e-8 1.0e-8 10000 1000
WARNING: Using 'neigh_modify every 1 delay 0 check yes' setting during minimization (../min.cpp:187)
Neighbor list info ...
  update every 1 steps, delay 0 steps, check yes
  max neighbors/atom: 2000, page size: 100000
  master list distance cutoff = 6.0032907
  ghost atom cutoff = 6.0032907
  binsize = 3.0016454, bins = 17 17 17
  1 neighbor lists, perpetual/occasional/extra = 1 0 0
  (1) pair sw, perpetual
      attributes: full, newton on
      pair build: full/bin/atomonly
      stencil: full/bin/3d
      bin: standard
Per MPI rank memory allocation (min/avg/max) = 4.255 | 4.258 | 4.261 Mbytes
Step Temp E_pair E_mol TotEng Press 
       0            0    7792709.3            0    7792709.3    5898794.3 
     630            0   -45180.336            0   -45180.336   -154.07449 
Loop time of 1.20008 on 6 procs for 630 steps with 4175 atoms

98.0% CPU use with 6 MPI tasks x no OpenMP threads

Minimization stats:
  Stopping criterion = max force evaluations
  Energy initial, next-to-last, final = 
      7792709.32924461  -45180.0188663597   -45180.336116598
  Force two-norm initial, final = 2.0191930e+08 4.9721331
  Force max component initial, final = 1.0948746e+08 0.73126211
  Final line search alpha, max atom move = 0.053306038 0.038980685
  Iterations, force evaluations = 630 1000

MPI task timing breakdown:
Section |  min time  |  avg time  |  max time  |%varavg| %total
---------------------------------------------------------------
Pair    | 0.89175    | 1.0057     | 1.0549     |   5.7 | 83.80
Neigh   | 0.024245   | 0.025173   | 0.025613   |   0.3 |  2.10
Comm    | 0.097958   | 0.14742    | 0.2624     |  15.0 | 12.28
Output  | 0          | 0          | 0          |   0.0 |  0.00
Modify  | 0          | 0          | 0          |   0.0 |  0.00
Other   |            | 0.02176    |            |       |  1.81

Nlocal:        695.833 ave         704 max         685 min
Histogram: 1 1 0 0 1 0 0 1 0 2
Nghost:        1494.17 ave        1515 max        1468 min
Histogram: 1 1 0 0 0 0 1 1 1 1
Neighs:        0.00000 ave           0 max           0 min
Histogram: 6 0 0 0 0 0 0 0 0 0
FullNghs:      19997.0 ave       20462 max       19320 min
Histogram: 1 1 0 0 0 0 0 2 0 2

Total # of neighbors = 119982
Ave neighs/atom = 28.738204
Neighbor list builds = 26
Dangerous builds = 0

# Add velocity/set timestep
#
velocity            all create ${TEMP} 120598 rot yes dist gaussian
velocity            all create 230 120598 rot yes dist gaussian
timestep            5.0

# Define output
#
compute	            1 all msd
thermo	            100
thermo_style        custom step temp press vol etotal ke pe c_1[4] density

# Neighbor lists
#
neigh_modify        delay 0 every 1 check yes

# Set fixes
#
fix                 1 all momentum 10 linear 1 1 1 rescale
fix                 2 all nve
fix                 3 all temp/csvr ${TEMP} ${TEMP} 500.0 928347
fix                 3 all temp/csvr 230 ${TEMP} 500.0 928347
fix                 3 all temp/csvr 230 230 500.0 928347
fix                 4 all press/berendsen iso ${PRES} ${PRES} 1000.0 modulus 20000
fix                 4 all press/berendsen iso -250 ${PRES} 1000.0 modulus 20000
fix                 4 all press/berendsen iso -250 -250 1000.0 modulus 20000

# Run 0.5 ns equilibration
#
dump                1 all custom 1000 eq.${NAME}.dump id type x y z vx vy vz
dump                1 all custom 1000 eq.liquid_density_MLmW.dump id type x y z vx vy vz
run                 100000
Per MPI rank memory allocation (min/avg/max) = 3.506 | 3.508 | 3.511 Mbytes
Step Temp Press Volume TotEng KinEng PotEng c_1[4] Density 
     630          230    892.42114       125000   -42318.699    2861.6373   -45180.336 2.7295415e-33   0.99914793 
     700    146.19382   -235.48074    125719.09    -41436.38     1818.929   -43255.309    0.2746735   0.99343302 
     800    180.94751   -497.21819    125780.87   -40627.122    2251.3311   -42878.453   0.63708684   0.99294506 
     900    200.09273   -156.11331     125674.8   -40172.259     2489.534   -42661.793    1.1005166   0.99378313 
    1000     212.7646   -116.35943    125880.38   -39877.946    2647.1961   -42525.142     1.560792   0.99216007 
    1100    221.01067   -71.295953    126032.08   -39666.406    2749.7929   -42416.199    2.0005516   0.99096588 
    1200    220.77995   -64.282572    126513.54   -39667.932    2746.9223   -42414.854    2.4129151   0.98719469 
    1300    222.93878   -284.64349    126353.73   -39651.478    2773.7823    -42425.26    2.8258225   0.98844325 
    1400    223.00132   -44.819571    126396.97    -39643.74    2774.5604     -42418.3    3.1353278   0.98810513 
    1500    224.65743   -240.71436    126576.89   -39573.071    2795.1655   -42368.236    3.6034047   0.98670062 
    1600    227.18745   -226.00141    126576.75   -39454.263    2826.6438   -42280.907    4.0178378   0.98670168 
    1700    226.79779   -164.29515    126474.36   -39484.439    2821.7957   -42306.235    4.4656776    0.9875005 
    1800    227.09039   -228.77643    126477.62   -39587.433    2825.4362    -42412.87    4.8560411   0.98747505 
    1900    225.14177   -216.79745    126517.82   -39582.715    2801.1917   -42383.907    5.3076533   0.98716124 
    2000    227.55932   -178.31862    126948.34   -39535.658    2831.2705   -42366.928    5.7792853   0.98381352 
    2100    234.21281   -246.55986    127016.05   -39489.051    2914.0526   -42403.103    6.2097925   0.98328905 
    2200    231.51624   -414.86394    126914.06   -39534.732    2880.5022   -42415.234    6.5814566   0.98407927 
    2300    232.02937   -211.12582    126908.36   -39540.372    2886.8865   -42427.259    7.0027115   0.98412346 
    2400    233.49559     98.49015     127080.5   -39560.052    2905.1291   -42465.181    7.2804858   0.98279035 
    2500    233.15554   -265.94877    126995.06   -39539.798    2900.8982   -42440.696    7.6258905   0.98345157 
    2600    235.92733   -402.50478    126940.52   -39495.396    2935.3845    -42430.78    8.1214001   0.98387409 
    2700    232.69327   -257.91887     126709.8   -39529.916    2895.1467   -42425.063     8.524791   0.98566563 
    2800    235.59595   -177.37632    126644.38   -39522.028    2931.2615    -42453.29    8.7994581   0.98617477 
    2900    229.40358   -231.90406    126842.12   -39612.341    2854.2166   -42466.558    9.1019655   0.98463739 
    3000    228.82073   -129.86983    126918.49    -39641.98    2846.9649   -42488.944    9.4895676    0.9840449 
    3100    231.82903   -285.15217    126857.15   -39605.283    2884.3939   -42489.676    9.7730032    0.9845207 
    3200    233.26164    -351.5277    126901.63   -39654.046    2902.2183   -42556.264    10.178374   0.98417566 
    3300    234.86775   -192.02917    127079.44   -39656.427    2922.2014   -42578.629    10.477689   0.98279856 
    3400     230.7298   -219.82015    127272.24   -39708.345    2870.7173   -42579.062    10.764049   0.98130973 
    3500    229.50891   -406.76517    127297.22   -39739.833    2855.5272    -42595.36    11.046541   0.98111722 
    3600    226.09468   -359.74187    127129.41   -39779.098    2813.0477   -42592.146    11.374474   0.98241223 
    3700    224.11507   -507.64664    127063.29   -39829.599    2788.4176   -42618.017    11.582793   0.98292347 
    3800    227.78757   -163.60981    127270.13   -39762.849    2834.1104   -42596.959    11.852508   0.98132605 
    3900    225.12704   -306.56882    127355.92    -39791.74    2801.0084   -42592.748    12.210952   0.98066501 
    4000    226.91334   -336.55357    127218.54   -39789.032    2823.2333   -42612.265    12.460054     0.981724 
    4100    227.39796   -275.32381    127437.98   -39784.874    2829.2629   -42614.137    12.750688    0.9800335 
    4200    228.93454   -357.29826    127713.38    -39793.18    2848.3809   -42641.561    13.070954   0.97792021 
    4300    230.58969   -267.74172     127676.6   -39799.558    2868.9741   -42668.532    13.370155   0.97820186 
    4400    232.15185   -328.56334    127724.36   -39806.096    2888.4104   -42694.506    13.640626    0.9778361 
    4500    225.90325   -367.51649    127619.61   -39808.195    2810.6659   -42618.861    13.787735   0.97863875 
    4600    226.69382   -283.02982    127567.22   -39852.248    2820.5021    -42672.75    14.186912   0.97904063 
    4700    233.43702   -123.34859     127544.5   -39780.473    2904.4003   -42684.873    14.559791     0.979215 
    4800    230.88163   -280.57646    127657.26   -39860.421    2872.6064   -42733.028    14.899572   0.97835012 
    4900    231.89512   -145.67408    128056.59    -39748.23    2885.2161   -42633.446    15.110179    0.9752992 
    5000    235.64355    -427.9815    127962.28   -39710.686    2931.8537    -42642.54    15.506176   0.97601799 
    5100     230.4808   -374.13205    127790.11   -39782.413    2867.6193   -42650.033    15.774682   0.97733299 
    5200    230.93802   -202.63699    127850.55   -39834.552    2873.3081    -42707.86    16.120877   0.97687098 
    5300    233.61839   -194.49839    127949.95   -39808.019    2906.6569   -42714.676    16.153988   0.97611211 
    5400    228.89874   -165.00235    128036.05   -39841.074    2847.9355    -42689.01    16.392474   0.97545565 
    5500    229.31547    -355.5795    128066.61   -39835.545    2853.1204   -42688.665    16.729188   0.97522293 
    5600     232.3019   -192.24308    128070.43   -39836.915    2890.2773   -42727.192    17.079285   0.97519381 
    5700    234.70085   -6.5856417     128345.9   -39849.282    2920.1247   -42769.407    17.308534   0.97310074 
    5800    231.86264   -311.21249    128266.62   -39892.605     2884.812   -42777.417    17.581736   0.97370223 
    5900    228.66065    -251.8849     128193.5   -39956.279    2844.9732   -42801.253    17.814092   0.97425759 
    6000    230.34157   -183.53692    128336.84   -39960.232     2865.887   -42826.119    18.046584   0.97316946 
    6100    231.27199   -302.30067    128481.72   -39881.426    2877.4633   -42758.889    18.205344   0.97207203 
    6200    228.96485   -33.867165    128404.88   -39939.062     2848.758    -42787.82    18.452685   0.97265376 
    6300    228.16488   -163.43173    128613.14   -39902.517    2838.8049   -42741.322    18.788874   0.97107881 
    6400    228.35025   -84.005389    128511.98   -39878.627    2841.1112   -42719.738    19.002201   0.97184319 
    6500    228.58672   -272.54082    128788.36   -39829.762    2844.0534   -42673.815    19.156949   0.96975762 
    6600    234.11232   -452.89862    128678.41   -39906.663    2912.8024   -42819.466    19.283629   0.97058623 
    6700    222.25963   -329.70746    128479.27   -39970.462    2765.3323   -42735.795    19.574559   0.97209063 
    6800    229.12897   -250.30222    128472.57   -39888.023       2850.8   -42738.823    19.883004   0.97214128 
    6900    232.01943   -198.13255    128575.86   -39826.289    2886.7628   -42713.051    20.207649   0.97136036 
    7000    228.41677   -304.59974    128487.93   -39805.433    2841.9388   -42647.372    20.471372   0.97202512 
    7100    228.67554   -53.351529    128614.08    -39838.74    2845.1585   -42683.898    20.685155   0.97107172 
    7200    229.24252   -424.83227    128631.74   -39883.186    2852.2128   -42735.399    20.837835   0.97093838 
    7300    229.13344   -288.50332    128697.41   -39948.859    2850.8556   -42799.715    21.035041   0.97044295 
    7400     227.4833   -171.15711    128877.65   -39991.291    2830.3247   -42821.616    21.345922   0.96908569 
    7500    229.65543   -167.68896    128943.83   -39972.463    2857.3501   -42829.813     21.41203   0.96858833 
    7600     225.0034   -188.22073    128838.11   -40076.714    2799.4701   -42876.185    21.733447   0.96938316 
    7700    228.86326   -282.05989    128949.89    -39967.93    2847.4941   -42815.425    22.007832   0.96854279 
    7800     230.8329   -222.29662    128903.35   -39936.184    2872.0002   -42808.184    22.292913   0.96889251 
    7900    229.47442   -235.13431    128940.62   -40006.415    2855.0981   -42861.513    22.591347    0.9686125 
    8000    230.68299   -341.22461    128976.58   -39957.946     2870.135   -42828.081    22.647276   0.96834241 
    8100    227.16775   -152.52841    129130.07   -40033.757    2826.3987   -42860.155    22.912888   0.96719135 
    8200    226.21829   -287.25014    129106.38   -40043.471    2814.5856   -42858.056    23.060519   0.96736888 
    8300    229.77625   -266.13219    129312.45   -40033.769    2858.8534   -42892.622    23.048225   0.96582725 
    8400    233.33283   -270.98707    129402.87   -40009.691     2903.104   -42912.795    23.341562   0.96515241 
    8500    230.99611   -231.88481    129239.22   -39955.063    2874.0308   -42829.094    23.654761   0.96637453 
    8600    228.80635   -414.98795    129279.46   -39983.424     2846.786    -42830.21     23.84728   0.96607377 
    8700     225.6332   -362.42538    129076.42   -39953.849     2807.306   -42761.155    24.097913   0.96759339 
    8800    231.48697   -432.74551    129212.88   -39982.582     2880.138    -42862.72     24.37816   0.96657156 
    8900    227.89412   -218.53338    129339.11   -40081.143    2835.4361   -42916.579    24.553199    0.9656282 
    9000    226.84717   -313.88922    129253.03    -40041.86      2822.41    -42864.27      24.8978   0.96627129 
    9100    224.33016    -287.5212     129158.1   -40109.926    2791.0936   -42901.019    25.085144    0.9669815 
    9200    232.47785   -198.79108    129175.73   -40015.393    2892.4664   -42907.859    25.279677   0.96684954 
    9300    228.82304   -336.80297    129160.76   -40078.765    2846.9936   -42925.759    25.515354   0.96696153 
    9400    227.62047   -198.49406    129170.87   -40042.108    2832.0314   -42874.139    25.723054   0.96688591 
    9500    226.82628   -252.78301    129139.97   -40049.156    2822.1502   -42871.306    25.936143   0.96711722 
    9600    229.88268   -175.25257    129130.38   -40019.224    2860.1775   -42879.401     26.09009   0.96718903 
    9700    232.34622   -120.32936    129190.87    -39954.32    2890.8287   -42845.149    26.400347   0.96673618 
    9800    229.77397   -310.68212    129202.48   -40042.267    2858.8251   -42901.092    26.713875   0.96664936 
    9900    223.60038   -354.78324    128988.53   -40129.943    2782.0138   -42911.957    26.845532    0.9682527 
   10000    227.37332   -230.56704    128942.04   -40133.669    2828.9564   -42962.625    27.109951   0.96860179 
   10100    228.21062   -235.84138     128868.1   -40109.311     2839.374   -42948.685    27.323257   0.96915757 
   10200    230.63708   -1.1189865    129146.23   -40151.009    2869.5638   -43020.572    27.492135   0.96707037 
   10300    223.93488   -76.414981    129241.84    -40132.73    2786.1757   -42918.905    27.628616   0.96635494 
   10400    231.52844   -196.11006    129317.44    -40084.69    2880.6539   -42965.344    27.673259   0.96578997 
   10500    222.26289   -200.54059    129102.23   -40062.208     2765.373   -42827.581    27.970397   0.96739994 
   10600    228.97557   -384.12302    129063.99   -39984.736    2848.8914   -42833.628    28.070224    0.9676866 
   10700    233.13386   -221.84202    129234.71   -39949.147    2900.6285   -42849.775    28.229641   0.96640825 
   10800    232.72462   -273.10465    129434.56   -39919.658    2895.5368   -42815.195    28.385709    0.9649161 
   10900    230.08715   -322.29494    129225.31   -39942.931    2862.7215   -42805.653    28.711877   0.96647855 
   11000    235.10093   -312.25001    129244.74   -39926.158    2925.1026   -42851.261    28.934658   0.96633326 
   11100    229.21508    -123.9556    129274.55   -39975.036    2851.8713   -42826.908    29.197311   0.96611044 
   11200    230.60202   -276.63434    129427.65   -39975.065    2869.1276   -42844.193    29.448108   0.96496759 
   11300    229.08112   -400.33958    129375.11   -39988.097    2850.2046   -42838.301    29.655226   0.96535948 
   11400    232.17568   -351.83034    129222.07    -40008.75    2888.7069   -42897.457    29.716587   0.96650279 
   11500    232.67424   -371.95269    128911.77   -40059.912    2894.9099   -42954.822    29.858034    0.9688292 
   11600    232.92931   -155.90548    128872.37    -40058.07    2898.0835   -42956.153    30.044062    0.9691254 
   11700    232.13966   -192.95329    129098.14     -39945.7    2888.2586   -42833.958    30.333023   0.96743057 
   11800    231.77232   -263.24297    128953.08    -40019.78    2883.6883   -42903.468    30.465839    0.9685189 
   11900    232.31055   -403.86558    128883.65   -40027.332    2890.3849   -42917.717    30.839998   0.96904062 
   12000    226.70281    -166.4692    128834.53   -40036.598    2820.6139   -42857.212    31.020832   0.96941005 
   12100    231.87846   -292.68903    128904.88   -39988.383    2885.0089   -42873.392    31.191116   0.96888103 
   12200    234.61242   -193.23242    129209.27   -39986.663    2919.0246   -42905.688    31.600741   0.96659851 
   12300    227.52041   -244.24319    129089.28   -40013.688    2830.7864   -42844.475    31.721379   0.96749698 
   12400    231.21218   -187.62022    129153.83   -40011.039    2876.7191   -42887.758    31.894358   0.96701347 
   12500    223.37158   -284.59819    129182.76    -40107.52    2779.1672   -42886.687    32.364658   0.96679689 
   12600    230.34537   -425.23795    129284.05   -40007.872    2865.9343   -42873.807    32.618451   0.96603941 
   12700    229.79463   -203.88656    129136.27   -39979.513    2859.0821   -42838.595    32.695277   0.96714496 
   12800    231.18682   -343.00075    129018.11   -39948.291    2876.4035   -42824.695    32.920606   0.96803067 
   12900    229.34042   -243.20047    129103.12   -40012.753    2853.4308   -42866.184    33.154095   0.96739331 
   13000    234.12079   -192.77306    128990.72   -39959.606    2912.9077   -42872.514    33.392499   0.96823626 
   13100    234.32598   -289.66327    128896.52   -39947.963    2915.4606   -42863.423    33.659897   0.96894386 
   13200    235.09337   -309.01183    128996.24   -39873.465    2925.0085   -42798.473    33.729879   0.96819481 
   13300    231.08405   -285.37234    129022.02   -39918.319    2875.1249   -42793.444    34.049241   0.96800133 
   13400    230.08348   -103.71755    129233.75   -40008.025    2862.6759   -42870.701    34.473231   0.96641544 
   13500    231.79011   -260.27333     129209.5   -40034.828    2883.9096   -42918.737    34.761598   0.96659684 
   13600    231.59341   -87.318621    129244.37   -40058.549    2881.4623   -42940.012     35.13525   0.96633605 
   13700     229.3923   -311.21823    129339.08   -40066.141    2854.0763   -42920.217     35.26421   0.96562843 
   13800    235.90314   -122.96818    129405.77   -39967.672    2935.0836   -42902.755    35.593959   0.96513075 
   13900    228.91711   -196.47642     129298.7   -40010.818    2848.1641   -42858.982    35.764366   0.96593001 
   14000    229.72425   -359.12515     129310.6   -40012.291    2858.2064   -42870.498    35.758716   0.96584111 
   14100     232.4407   -208.16895    129389.65   -40017.689    2892.0042   -42909.694    36.087926   0.96525101 
   14200     230.1957   -131.80618    129486.57   -40061.045    2864.0721   -42925.117    36.237726   0.96452853 
   14300    229.10176   -257.51304    129435.45   -40110.687    2850.4615   -42961.148    36.562488   0.96490946 
   14400    226.16977   -79.834988    129546.51   -40062.863    2813.9819   -42876.845    36.727052   0.96408227 
   14500    230.25122   -399.35879     129430.4   -39999.884     2864.763   -42864.647    37.156508   0.96494714 
   14600    229.25744   -313.10883    129458.38   -40001.951    2852.3984   -42854.349    37.365808   0.96473854 
   14700    226.68714   -335.28766    129549.07   -40038.721     2820.419    -42859.14    37.547272    0.9640632 
   14800    229.49463   -452.61637    129319.24   -40085.873    2855.3495   -42941.223    37.576961   0.96577654 
   14900    224.71996    5.6698021    129455.93   -40161.437    2795.9436    -42957.38    37.857952   0.96475685 
   15000    225.60678   -300.68067    129365.45   -40170.152    2806.9772   -42977.129    37.883161   0.96543156 
   15100    223.78034   -322.91347    129297.84   -40185.004    2784.2528   -42969.257    38.216144   0.96593643 
   15200    228.16997     -184.697     129468.8   -40093.979    2838.8682   -42932.847    38.415072    0.9646609 
   15300    225.79948   -122.26872    129514.93   -40091.251    2809.3748   -42900.626    38.719743   0.96431736 
   15400    227.84331   -155.89584     129374.7   -40076.349    2834.8039   -42911.153    38.768998   0.96536256 
   15500    230.64015   -359.13688    129313.96   -40055.045    2869.6019   -42924.647    38.962607   0.96581601 
   15600    231.60323   -270.84539    129111.51   -40016.731    2881.5845   -42898.315    39.084403    0.9673304 
   15700     223.0026   -305.85863    129171.07   -40113.025    2774.5763   -42887.601    39.219568   0.96688438 
   15800    230.20019   -394.56652    129024.23   -40123.006     2864.128   -42987.134    39.352685   0.96798478 
   15900     229.3677   -352.65814    128893.96   -40169.223    2853.7703   -43022.993    39.340424   0.96896308 
   16000    229.03952   -64.166388    128932.05   -40115.987     2849.687   -42965.674    39.751401   0.96867685 
   16100       231.89   -255.16759    129298.55   -40081.163    2885.1525   -42966.316    40.054672   0.96593108 
   16200    230.15099   -301.74471    129477.03   -40136.393    2863.5158   -42999.908    40.625968   0.96459956 
   16300    230.63208   -370.30956    129301.12   -40175.118    2869.5015   -43044.619    40.733662   0.96591193 
   16400    229.42633   -366.42926    129399.86   -40072.612    2854.4997   -42927.112    40.843959   0.96517485 
   16500    232.22773   -311.11162    129294.15   -40050.003    2889.3545   -42939.358    41.289404   0.96596396 
   16600    233.68485   -272.77633    129168.12   -40023.064    2907.4839   -42930.548    41.393835    0.9669065 
   16700    223.00003   -23.396723    129480.18   -40053.407    2774.5443   -42827.952    41.500521   0.96457611 
   16800    230.32252    -299.5071    129692.83   -40037.367      2865.65   -42903.017    41.777403   0.96299458 
   16900     230.5613   -382.70629    129576.09   -39985.279    2868.6209     -42853.9    42.079317   0.96386218 
   17000    230.68196   -230.36494    129391.45   -40003.577    2870.1221   -42873.699    42.175263   0.96523762 
   17100     230.7042   -437.66834    129318.85   -39913.031    2870.3989   -42783.429    42.243956   0.96577949 
   17200    235.80541   -376.07331    129151.02   -39937.338    2933.8675   -42871.205    42.289216   0.96703446 
   17300    234.49386   -224.44769    129176.77   -39995.517    2917.5494   -42913.066    42.392732    0.9668417 
   17400    231.52019    -149.8902    129025.45   -40029.875    2880.5513   -42910.426    42.675729   0.96797566 
   17500    228.93255   -34.317689     129237.5   -39992.256    2848.3562   -42840.612    42.908974   0.96638738 
   17600    229.02324   -290.95814     129439.3   -39950.221    2849.4845   -42799.705    43.262349    0.9648808 
   17700     229.9644   -218.32757    129316.25   -39963.453    2861.1944   -42824.648    43.350356   0.96579889 
   17800    229.10447    -336.6325    129219.75   -39947.706    2850.4952   -42798.201    43.905404   0.96652014 
   17900    231.06407    -272.6625    129081.17     -39910.2    2874.8763   -42785.077    43.936324   0.96755776 
   18000    231.41446   -147.15994    129091.03   -39850.844    2879.2359    -42730.08    43.984917   0.96748392 
   18100    227.34207   -381.42486    129029.07    -39961.27    2828.5675   -42789.838    44.166018   0.96794849 
   18200    230.47999   -59.177707    129179.75   -39947.838    2867.6093   -42815.448    44.411573   0.96681945 
   18300    232.55225   -83.045947    129537.36   -39850.129    2893.3921   -42743.521    44.774932   0.96415037 
   18400    229.23177   -95.285664    129524.09   -39902.588     2852.079   -42754.667    44.957562   0.96424911 
   18500     230.1274   -182.24799    129302.85   -39856.571    2863.2224   -42719.793    45.156687   0.96589897 
   18600    227.54915   -335.63614    129190.21   -39916.218     2831.144   -42747.362    45.536152   0.96674111 
   18700    229.57204   -353.37265     129004.3   -39872.118    2856.3126    -42728.43    45.820968   0.96813436 
   18800    231.88259   -161.49912    128983.59   -39850.856    2885.0603   -42735.916    46.143239   0.96828977 
   18900    235.01155   -361.44754    128751.22   -39903.693    2923.9904   -42827.684    46.438437   0.97003736 
   19000    233.34829   -179.04767    128633.76   -39882.332    2903.2964   -42785.628    46.534681   0.97092312 
   19100    228.39169   -409.76083    128755.85   -39946.918    2841.6268   -42788.544    46.812245   0.97000248 
   19200    232.41034   -141.56272    128695.08   -39909.411    2891.6265   -42801.037    47.096939    0.9704605 
   19300    235.09105   -230.60217    128756.87   -39853.923    2924.9796   -42778.903     47.46978   0.96999475 
   19400    229.86148   -415.60249     128825.3    -39853.59    2859.9138   -42713.504    47.777474   0.96947954 
   19500    227.13653   -387.99317    128727.73   -39835.838    2826.0103   -42661.848    47.848494   0.97021433 
   19600    232.72622   -250.48612     128351.7   -39884.909    2895.5566   -42780.466    48.082816   0.97305678 
   19700    230.45855   -311.86144    128342.32   -39863.319    2867.3425   -42730.661    48.528651   0.97312791 
   19800    230.57767   -104.82537    128323.47   -39895.546    2868.8245    -42764.37    48.529705   0.97327083 
   19900    225.07926   -333.36501    128111.18   -39890.589    2800.4139   -42691.003    48.689953   0.97488365 
   20000    225.89031   -171.33036    128042.42   -39915.171    2810.5049   -42725.675    49.074575   0.97540717 
   20100    224.34204   -421.87348    128018.02    -39867.11    2791.2415   -42658.351     49.20631   0.97559306 
   20200    233.51436   -200.30881     127915.8   -39909.978    2905.3626    -42815.34    49.161809   0.97637271 
   20300    228.62356   -474.12125    127945.85    -39941.91    2844.5118   -42786.422    49.475784   0.97614339 
   20400    225.17516   -353.37526    127768.52   -39933.971    2801.6071   -42735.578    49.551042   0.97749815 
   20500      228.556   -371.44154    127988.66   -39887.996    2843.6712   -42731.667    49.798241   0.97581683 
   20600    228.27403   -32.203536    127885.94   -39911.936    2840.1629   -42752.098     50.06949   0.97660065 
   20700     226.2209   -42.039211    128142.51   -39836.902     2814.618    -42651.52    50.193926   0.97464523 
   20800     234.0292   -282.51839    128263.75   -39847.503    2911.7681   -42759.272    50.558042     0.973724 
   20900    224.52977   -201.76005    128152.16    -39879.85    2793.5772   -42673.427    50.715909   0.97457189 
   21000    226.07103   -535.34772    128218.58    -39968.58    2812.7535   -42781.334     51.13206   0.97406705 
   21100    225.09482     -310.891    128216.19   -39974.505    2800.6075   -42775.112    51.653039   0.97408519 
   21200    224.75251   -164.44655    128108.96   -39929.801    2796.3485    -42726.15    51.876814   0.97490049 
   21300     228.4417    -275.9456    128027.66   -39944.281     2842.249    -42786.53    52.255419   0.97551963 
   21400    228.92606    -433.3079    128181.35   -39912.867    2848.2754   -42761.143     52.40576   0.97434993 
   21500       232.39   -102.28988    128300.03    -39917.43    2891.3734   -42808.803    52.925786   0.97344867 
   21600    231.32756   -267.70193    128397.75   -39878.436    2878.1546    -42756.59     53.28596   0.97270776 
   21700    232.49843   -446.24474     128324.9   -39833.698    2892.7225    -42726.42     53.56435   0.97325996 
   21800    231.88359   -268.99635    128355.83   -39808.399    2885.0726   -42693.471    53.796775   0.97302543 
   21900    227.18792   -347.98428    128270.39   -39827.696    2826.6496   -42654.346    54.098703   0.97367357 
   22000    230.34962   -246.83464    128495.29   -39883.275    2865.9872   -42749.262    54.527824   0.97196945 
   22100     234.4238   -400.40181    128502.31   -39833.414    2916.6777   -42750.092    54.884594   0.97191634 
   22200    226.27755   -503.26431    128493.75     -39862.2    2815.3229   -42677.523    54.883673    0.9719811 
   22300    231.67536   -239.99493    128281.46   -39856.829     2882.482   -42739.311    54.999814   0.97358957 
   22400    230.58575   -96.348188     128306.2   -39823.343    2868.9251   -42692.269    55.298574   0.97340184 
   22500    228.23955   -66.118038    128318.74   -39822.113     2839.734   -42661.847    55.506083   0.97330674 
   22600    230.43925   -23.447575    128334.51   -39795.847    2867.1024   -42662.949    55.768638   0.97318713 
   22700    226.89943   -206.96171     128023.1   -39802.888    2823.0602   -42625.948     56.10419   0.97555437 
   22800    232.43588   -417.23328    128167.83   -39756.396    2891.9442    -42648.34    56.213512   0.97445276 
   22900    231.27202   -85.976147    128149.65   -39790.912    2877.4637   -42668.376    56.542027   0.97459094 
   23000    229.78945   -241.66294    128302.73   -39743.865    2859.0176   -42602.883     56.73254   0.97342816 
   23100    224.60452   -188.32393     128330.2   -39845.221    2794.5072   -42639.728    57.005907   0.97321976 
   23200    230.67332   -276.99035    128349.95   -39788.265    2870.0146    -42658.28    57.609543   0.97307003 
   23300    226.68465   -256.44315    128325.77   -39839.825     2820.388   -42660.213     57.82026    0.9732534 
   23400    234.00867   -384.49202    128446.99   -39776.444    2911.5128   -42687.957    58.228519    0.9723349 
   23500    229.03652   -253.34667    128056.94   -39816.372    2849.6497   -42666.021    58.234215   0.97529656 
   23600    232.96464   -373.89298    128220.96   -39792.075     2898.523   -42690.598    58.316697   0.97404893 
   23700    232.21753   -174.59841    128178.48   -39851.135    2889.2276   -42740.363    58.483146   0.97437177 
   23800    225.31227   -166.99317     128006.9   -39918.249     2803.313   -42721.562    58.806022   0.97567783 
   23900    225.71122   -119.06989    127972.26   -39923.498    2808.2767   -42731.775    58.822827   0.97594192 
   24000    234.02792   -236.69234    127707.01    -39856.19    2911.7523   -42767.942    59.203336   0.97796894 
   24100    232.28207   -70.013149    127948.14   -39850.861    2890.0306   -42740.891     59.51976   0.97612586 
   24200    225.06942   -305.97904    128360.84   -39913.103    2800.2915   -42713.395    59.845324   0.97298749 
   24300    228.84259   -177.82745    128465.07    -39890.08    2847.2369   -42737.317    60.427716   0.97219809 
   24400    228.69072   -370.25598    128396.27   -39936.714    2845.3474   -42782.061    60.829382   0.97271903 
   24500    228.91426   -230.81501    128423.88   -39916.351    2848.1286   -42764.479    61.025338   0.97250988 
   24600    232.03188   -353.62591    128672.84   -39915.052    2886.9177    -42801.97    61.452525   0.97062824 
   24700    227.44479   -168.75907    128717.54   -39940.649    2829.8456   -42770.495    61.600531   0.97029114 
   24800     228.3179   -139.50945    128557.81   -39944.728    2840.7087   -42785.437    61.943321   0.97149672 
   24900    230.51522   -231.30841    128449.54   -39898.512    2868.0476   -42766.559    62.307084   0.97231561 
   25000    232.46795   -245.99056    128388.82   -39878.557    2892.3433     -42770.9       62.527   0.97277548 
   25100    229.64604   -291.88367    128499.58   -39887.795    2857.2334   -42745.028    63.065081   0.97193694 
   25200    225.60239   -251.66708    128369.08   -39927.928    2806.9226   -42734.851     62.91438   0.97292502 
   25300    230.41834   -412.64592    128353.38   -39908.959    2866.8421   -42775.802    63.235656   0.97304404 
   25400    227.52735   -187.21131    128383.37   -39888.256    2830.8729   -42719.129    63.930285   0.97281678 
   25500    230.75395   -284.70569    128385.55   -39836.723    2871.0178   -42707.741    64.323383   0.97280019 
   25600    228.17089    -28.36974    128500.21   -39924.631    2838.8796    -42763.51    64.481219   0.97193221 
   25700    225.86273   -258.86899    128594.06   -39923.489    2810.1618   -42733.651    64.994781   0.97122286 
   25800    229.16097   -410.92155    128624.54   -39901.801    2851.1981   -42752.999    65.316486    0.9709927 
   25900    227.94339   -194.82603       128642   -39854.069    2836.0491   -42690.118    65.388301   0.97086096 
   26000    233.96641   -142.83664    128616.98   -39776.882    2910.9869   -42687.869    65.374864    0.9710498 
   26100    230.96401   -314.90562    128899.82   -39885.706    2873.6314   -42759.338    65.857877   0.96891908 
   26200    232.27601   -371.83893    128704.88   -39886.412    2889.9551   -42776.367    66.134984   0.97038662 
   26300    229.78248   -344.48965    128622.48   -39868.218    2858.9309   -42727.149    66.346099   0.97100826 
   26400    233.70993   -163.70002    128585.25   -39881.723    2907.7958   -42789.519    66.532077   0.97128942 
   26500    232.56317   -167.53261    128638.36   -39943.216     2893.528   -42836.744     67.01411    0.9708884 
   26600    231.22327   -79.624264    128511.79   -40006.567    2876.8571   -42883.424    67.151862   0.97184459 
   26700    228.61628   -37.161229    128440.75   -40039.981    2844.4211   -42884.403    67.273345   0.97238216 
   26800    231.20597   -152.94202    128702.08   -39959.413    2876.6418   -42836.054    67.431161   0.97040774 
   26900    231.23954   -157.13964    128814.39   -39972.322    2877.0595   -42849.381     67.60871   0.96956161 
   27000    229.14404   -261.63084    129022.52   -40013.758    2850.9875   -42864.745     68.14368   0.96799759 
   27100    228.51904     -388.646    128987.26   -40031.204    2843.2112   -42874.415    68.745708   0.96826219 
   27200    228.56106   -259.84464    128967.89   -40038.122    2843.7341   -42881.856    69.145783   0.96840763 
   27300    230.74702   -349.71505    128918.03   -40079.261    2870.9316   -42950.192    69.389399   0.96878216 
   27400    228.96374   -233.15931    128855.69   -40022.489    2848.7442   -42871.234     69.64559   0.96925089 
   27500    231.16244   -439.70752    128994.24   -39954.329    2876.1002   -42830.429    70.028995   0.96820983 
   27600    231.32425   -232.84778    128681.87   -39997.776    2878.1134   -42875.889      69.9925   0.97056012 
   27700    227.81025   -219.12284    128680.27   -40016.203    2834.3926   -42850.596     70.28825   0.97057216 
   27800    234.22859   -175.02466    128990.35   -39961.837     2914.249   -42876.086    70.752907   0.96823899 
   27900    227.53672   -482.50404    128973.97   -39998.151    2830.9894   -42829.141     70.94795   0.96836203 
   28000    230.21883   -180.83671    128970.67   -40043.484    2864.3599   -42907.844    71.145473   0.96838675 
   28100    232.39037   -461.67444    129187.51   -40022.684     2891.378   -42914.062    71.560217   0.96676133 
   28200    230.18626   -188.66142    129064.56     -40062.7    2863.9547   -42926.654    71.845456   0.96768229 
   28300    232.14405   -123.66039    129127.02   -40043.179    2888.3133   -42931.492    72.041385   0.96721426 
   28400    228.37848   -238.36769    129076.94   -40074.042    2841.4625   -42915.504    72.248285   0.96758951 
   28500    226.93986   -97.133324    129016.63    -40104.38    2823.5633   -42927.943    72.488224   0.96804181 
   28600    228.21275   -173.44673     129029.6    -40057.38    2839.4005    -42896.78    72.652091    0.9679445 
   28700    226.41277   -205.69363     128719.7   -40066.929    2817.0053   -42883.934    72.641429   0.97027489 
   28800    230.27182   -70.628525    129039.52   -40027.884    2865.0192   -42892.904    72.989018   0.96787006 
   28900    232.63856   -232.03486    129046.83   -39996.543     2894.466   -42891.009    73.316558   0.96781528 
   29000    227.27761   -317.85716    129333.01   -40076.309    2827.7655   -42904.074     73.88764   0.96567373 
   29100    232.49165   -266.63427    129220.35    -40022.83    2892.6381   -42915.468    74.047411   0.96651565 
   29200    230.73572   -215.55807    129285.12   -39987.287    2870.7911   -42858.078    74.495765   0.96603145 
   29300    227.15941   -311.26322    129333.42   -40049.429     2826.295   -42875.724    74.566037   0.96567067 
   29400    227.62783   -155.16554    129178.92   -40107.497     2832.123    -42939.62    74.624123   0.96682566 
   29500    228.80118   -136.11947    129104.35   -40140.974    2846.7217   -42987.696    74.932504   0.96738405 
   29600    228.04069   -227.33079    129142.76   -40040.583    2837.2597   -42877.842    75.395024   0.96709634 
   29700    229.60288   -435.76258    129168.47    -40075.39    2856.6963   -42932.086    75.497419   0.96690385 
   29800    235.11928   -302.71083    128955.54   -40064.587    2925.3308   -42989.918    75.733518   0.96850041 
   29900    229.74955   -176.14289    128899.88    -40088.92    2858.5212   -42947.442    76.295645   0.96891856 
   30000    227.40603   -213.13313    129088.98   -40061.879    2829.3634   -42891.242    76.408745   0.96749925 
   30100    229.75519   -285.62175    128911.83   -40051.309    2858.5913     -42909.9    76.375215   0.96882877 
   30200    228.89646   -101.16695    128922.87   -40051.381    2847.9072   -42899.289    76.453967   0.96874581 
   30300    232.57288   -62.596316    129256.83   -40029.475    2893.6487   -42923.124    76.777394   0.96624291 
   30400     227.1573   -254.43278    129420.58   -40017.489    2826.2686   -42843.757    77.152169   0.96502032 
   30500    228.67344   -384.57719    129350.32    -40018.68    2845.1324   -42863.812    77.554124   0.96554453 
   30600    232.83738     -130.182    129428.78   -40009.904    2896.9396   -42906.843    77.525192   0.96495916 
   30700    231.21246   -326.76552     129510.6   -40038.931    2876.7225   -42915.653     77.83646   0.96434959 
   30800     231.2236   -334.94964    129287.77   -39985.143    2876.8611   -42862.004     77.95058   0.96601162 
   30900    224.03763   -135.74391    129428.62    -40095.77    2787.4541   -42883.224    78.155722   0.96496041 
   31000     226.1994   -369.38046    129354.49   -40133.955    2814.3505   -42948.306    78.561606   0.96551337 
   31100    227.38761   -138.98949     129412.5   -40133.718    2829.1341   -42962.852    78.854202   0.96508062 
   31200    230.43919   -222.89988    129551.89   -40160.752    2867.1017   -43027.854    79.183465    0.9640422 
   31300    224.31637   -257.57633    129526.73   -40119.011    2790.9221   -42909.933    79.277176    0.9642295 
   31400    227.08161   -313.91445    129566.26   -40072.822    2825.3269   -42898.149    79.264567   0.96393527 
   31500    227.32244   -203.29627    129560.86   -40108.214    2828.3234   -42936.538    79.458607   0.96397547 
   31600    232.91141   -319.58554    129354.98   -40035.537    2897.8607   -42933.398    79.668224   0.96550975 
   31700    224.58587   -273.89089    128992.54   -40043.955    2794.2752    -42838.23    79.275418   0.96822259 
   31800    225.65776   -51.417277     129078.9   -39951.545    2807.6116   -42759.157    79.228909   0.96757482 
   31900    235.91319    -285.5544    129292.71   -39938.177    2935.2086   -42873.386    79.383334   0.96597473 
   32000    234.22214   -265.83583    129024.52   -39930.198    2914.1687   -42844.367    79.479179   0.96798264 
   32100    232.07226   -118.16433    129097.77   -39931.069    2887.4201   -42818.489    79.962556   0.96743337 
   32200    231.15026   -192.39012     128993.7   -39933.597    2875.9487   -42809.546    80.219942   0.96821386 
   32300     234.5467   -288.14545    128762.95   -39918.804    2918.2068   -42837.011     80.48607     0.969949 
   32400    229.90297   -324.21825    128920.14   -39974.589      2860.43   -42835.019    80.865337   0.96876637 
   32500    228.26445   -229.69629    129068.98   -39981.703    2840.0437   -42821.747    81.264911   0.96764914 
   32600    230.25792   -289.54285    129243.42   -39921.779    2864.8462   -42786.625    81.608191   0.96634312 
   32700    228.68612   -271.54301    128989.74   -39990.508    2845.2901   -42835.798     81.72143    0.9682436 
   32800    223.45078   -258.92742    128747.92   -40027.261    2780.1525   -42807.414    81.920571   0.97006222 
   32900    227.48231   -388.03168    128607.62   -40028.627    2830.3125   -42858.939    82.050419   0.97112045 
   33000    224.76846   -184.38808    128490.47   -40063.514     2796.547   -42860.061    82.316783   0.97200589 
   33100    229.68532   -124.49884    128725.88   -39982.513    2857.7221   -42840.235    82.634291   0.97022828 
   33200    227.70111   -294.92672    128854.67   -39994.153    2833.0347   -42827.188    82.765433   0.96925856 
   33300    231.60344   -52.016819    129101.33   -39927.494    2881.5871   -42809.081    83.091411   0.96740671 
   33400    230.23001   -254.51034    129168.67    -40021.01     2864.499   -42885.509    83.134516   0.96690234 
   33500    228.65455   -124.20467     129025.9    -39994.65    2844.8973   -42839.547    83.288881   0.96797224 
   33600    225.35392   -256.44212    128961.29   -39963.742    2803.8312   -42767.573    83.709114   0.96845718 
   33700    232.18418   -294.90373    128840.02   -39962.166    2888.8126   -42850.978    83.891237   0.96936878 
   33800    230.48133   -194.59966     129145.4   -39974.476    2867.6259   -42842.102    84.430586   0.96707655 
   33900    226.72248   -343.15205    129031.05   -40001.678    2820.8586   -42822.536    84.631018   0.96793362 
   34000    229.34902   -194.41721    128939.67   -39964.577    2853.5378   -42818.115    84.806118   0.96861962 
   34100    231.20771   -386.42535    128889.86   -40012.031    2876.6635   -42888.695    85.078369   0.96899389 
   34200    230.43843   -67.466719    129028.28   -40022.046    2867.0921   -42889.138    85.124767   0.96795436 
   34300     223.6289   -388.75177    129372.25   -40072.288    2782.3686   -42854.656    85.542401   0.96538085 
   34400    226.76632   -316.52864    129238.29     -39998.6    2821.4041   -42820.004    85.826052   0.96638149 
   34500    231.11109   -265.45916    129350.01   -40021.042    2875.4613   -42896.503    85.915509   0.96554683 
   34600    230.73236    -301.3314       129610   -40011.276    2870.7492   -42882.025    86.546513   0.96361001 
   34700     225.2471   -372.25508    129520.74   -40089.816    2802.5022   -42892.318    86.470589    0.9642741 
   34800    229.60862   -269.69179    129589.82   -40081.534    2856.7678   -42938.302    86.761709   0.96376007 
   34900     225.4011    27.201447    129514.43   -40081.403    2804.4182   -42885.821    87.168942   0.96432108 
   35000    227.47051   -380.54626    129371.38   -40157.343    2830.1656   -42987.509    87.340028   0.96538735 
   35100    230.91969   -310.00335    129193.96   -40091.219    2873.0799   -42964.299    87.421523   0.96671308 
   35200    229.78343   -314.92463    129005.23   -40107.808    2858.9427    -42966.75    87.228099   0.96812733 
   35300    229.21567   -223.29448    128883.35   -40081.308    2851.8787   -42933.186    87.394289   0.96904288 
   35400    227.35587   -292.21066     128886.9   -40088.972    2828.7392   -42917.711    87.691063   0.96901618 
   35500    228.57765   -157.74601    128907.94   -39955.487    2843.9405   -42799.428    88.106601   0.96885801 
   35600    231.34192   -166.32762    128716.28   -40007.122    2878.3333   -42885.455    88.611941   0.97030064 
   35700    227.42841   -223.49787    128934.02   -39960.455    2829.6419   -42790.097    88.849726   0.96866203 
   35800    227.01097   -262.27354     128673.4   -39999.664     2824.448   -42824.112    88.938579   0.97062398 
   35900    233.66201   -244.14451    128686.39   -39949.255    2907.1996   -42856.454    88.926879   0.97052604 
   36000    231.46538   -205.86528    128711.44   -39910.223    2879.8694   -42790.093    89.474964   0.97033712 
   36100    228.30346   -324.59361    128458.32   -39927.124    2840.5291   -42767.653    89.611195   0.97224918 
   36200    230.43795    -341.5655    128492.94   -39951.736    2867.0862   -42818.823    89.666578   0.97198718 
   36300    226.49137   -309.88944    128565.15   -40006.121    2817.9832   -42824.104    89.599061   0.97144125 
   36400    231.54493   -29.134023    128797.82   -39930.339    2880.8592   -42811.198    89.998227    0.9696864 
   36500    229.62764   -82.516267    128657.68   -39901.543    2857.0044   -42758.548    90.468493   0.97074261 
   36600    226.06178   -255.10024    128561.64   -40037.807    2812.6383   -42850.445    90.697389   0.97146781 
   36700    230.94845   -243.97806    128619.09     -39976.2    2873.4378   -42849.637    91.007392   0.97103384 
   36800    230.89341   -393.52199    128711.07   -39971.385     2872.753   -42844.138     91.14562   0.97033995 
   36900    226.11646   -302.42802     128940.4   -39992.665    2813.3187   -42805.984    91.672215   0.96861413 
   37000    229.53299   -276.38297    128768.79   -39920.063    2855.8268    -42775.89    91.617243   0.96990496 
   37100    229.94771   -101.63787     128747.6   -39898.123    2860.9867   -42759.109    91.949869   0.97006465 
   37200    231.03699   -254.22502    129056.76   -39954.217    2874.5394   -42828.756    92.494602   0.96774082 
   37300    223.02484   -296.13435    129007.67   -39971.286     2774.853   -42746.139    92.835518   0.96810901 
   37400    228.34786    -143.3081    128995.54    -39993.81    2841.0815   -42834.891    93.100372   0.96820005 
   37500     230.0062    -533.3795    129050.04   -40004.934    2861.7145   -42866.648    93.268041   0.96779121 
   37600    228.17496   -361.76552    128940.92   -39954.153    2838.9303   -42793.084    93.510148   0.96861023 
   37700    227.94442   -481.35002    128890.61   -39969.555    2836.0619   -42805.617    93.705454   0.96898829 
   37800    225.70304   -239.62198    128854.89   -40066.091    2808.1749   -42874.266    93.861511   0.96925693 
   37900    229.06892    -140.7427    129001.23   -40030.134    2850.0529   -42880.187    94.119261   0.96815734 
   38000    235.25614   -9.7923931    129268.71   -40017.969    2927.0336   -42945.003    94.679217   0.96615411 
   38100    233.78689   -156.54764     129460.8   -39987.509    2908.7534   -42896.262    95.416276   0.96472053 
   38200    233.95092   -258.30736    129553.68    -40016.09    2910.7942   -42926.884    95.402434   0.96402886 
   38300     228.6484   -412.99154    129475.25   -39962.625    2844.8207   -42807.446    95.632061   0.96461287 
   38400     232.8269   -243.55124    129177.79   -40022.991    2896.8092     -42919.8    95.600746   0.96683407 
   38500     226.3732   -186.78482    129309.27   -40041.459     2816.513   -42857.972    96.103719     0.965851 
   38600    230.43308    -270.7601    128936.17   -40005.404    2867.0256   -42872.429    96.437643   0.96864589 
   38700    232.62345   -175.75754     128982.9   -40006.924     2894.278   -42901.202    96.511475   0.96829493 
   38800     231.5074   -289.31683    128938.04   -40038.514    2880.3922   -42918.906    96.911584   0.96863185 
   38900    231.65663   -151.31941    129098.76     -39994.7    2882.2489   -42876.949    97.474864   0.96742598 
   39000     227.6613   -210.38259    129068.99   -40040.669    2832.5394   -42873.209    97.617939   0.96764907 
   39100    232.20916   -98.455652    129065.46   -39998.536    2889.1234   -42887.659    97.625875   0.96767558 
   39200    231.15546   -187.17774    129132.53   -40022.318    2876.0134   -42898.332    97.723072   0.96717293 
   39300    230.87308   -466.54065    129252.46   -40013.704       2872.5   -42886.204    97.822828   0.96627551 
   39400     236.2148   -256.72778     129348.3   -39987.246    2938.9612   -42926.207    98.458832   0.96555958 
   39500    230.96973   -163.20419    129415.45   -39964.156    2873.7026   -42837.859    98.980483   0.96505858 
   39600    229.62106   -394.95487    129549.16   -40023.165    2856.9226   -42880.088    99.334351   0.96406254 
   39700    232.19721   -335.37001    129276.16   -39968.543    2888.9747   -42857.518    98.697134   0.96609836 
   39800    230.65857   -280.49463    129119.56   -40015.616    2869.8311   -42885.447    98.711759   0.96727014 
   39900    228.39034   -345.55955     129048.8   -40046.519      2841.61   -42888.129    99.000215   0.96780046 
   40000    228.90173   -218.18126    128739.57   -40065.619    2847.9727   -42913.592    98.976132   0.97012513 
   40100    231.75127   -110.25848    128781.08   -39953.545    2883.4264   -42836.971    99.115122   0.96981244 
   40200     230.4601   -222.02128    128746.06   -39970.919    2867.3618   -42838.281    98.980434   0.97007621 
   40300    229.60278   -156.90792    128566.25   -39944.386     2856.695   -42801.081    99.326928   0.97143294 
   40400    235.98981   -78.346305    128562.92   -39837.708    2936.1619    -42773.87    99.561608    0.9714581 
   40500    231.05757   -402.21316    128580.41   -39853.395    2874.7955   -42728.191    100.19374   0.97132595 
   40600    230.15139      -125.78    128698.42    -39892.96    2863.5209   -42756.481    100.46568   0.97043531 
   40700    232.39803   -264.19298     128687.4   -39941.798    2891.4733   -42833.271    100.45704   0.97051844 
   40800    227.97871   -296.82559    128777.96   -39976.694    2836.4886   -42813.182    100.54853    0.9698359 
   40900    228.21402   -225.77846    128696.54   -39998.804    2839.4163    -42838.22    100.60057   0.97044945 
   41000    227.63778   -262.59312    128778.04   -39918.343    2832.2467    -42750.59    100.90943   0.96983535 
   41100     232.5032   -156.89789    129066.96   -39902.812    2892.7818   -42795.594    101.34707    0.9676643 
   41200    230.48507   -248.90242    129110.56   -39928.856    2867.6725   -42796.529    101.50645    0.9673375 
   41300    224.26603   -277.15347    129039.18   -40083.587    2790.2958   -42873.882    102.07355   0.96787265 
   41400     230.0992   -309.99224    128981.53    -40030.18    2862.8715   -42893.051    102.34449   0.96830523 
   41500    229.43174   -165.19731    128959.58   -40038.658    2854.5671   -42893.225    102.86623   0.96847007 
   41600    231.17121   -63.511694    129169.86    -39998.99    2876.2094   -42875.199    103.11848   0.96689342 
   41700    228.96823   -518.84795     129170.2   -39982.754    2848.8001   -42831.554    103.54179   0.96689088 
   41800    231.97596   -293.43703    129029.94   -39998.253    2886.2219   -42884.474    103.53065   0.96794196 
   41900    226.59049    -271.2535    128997.25   -39973.894    2819.2164   -42793.111    103.83335   0.96818722 
   42000     230.2355   -220.79623    129446.14   -39954.327    2864.5674   -42818.895    104.09292    0.9648298 
   42100    229.77281   -139.59497    129495.82   -39961.026    2858.8106   -42819.836    104.23702   0.96445965 
   42200    234.34314   -402.43672    129350.16   -39915.137    2915.6742   -42830.812    104.28866   0.96554573 
   42300    232.25362   -27.996946    129321.26   -39893.677    2889.6765   -42783.353    104.23822   0.96576151 
   42400    234.28377   -220.49414    129069.25   -39946.732    2914.9355   -42861.667    104.34631   0.96764718 
   42500    236.10058   -230.92594    129102.78   -39946.432    2937.5401   -42883.972    104.42407   0.96739585 
   42600    227.72852   -427.19197    129111.99   -39958.955    2833.3757   -42792.331    104.63079   0.96732682 
   42700    227.86405    -432.4522    129124.29   -39965.474    2835.0619   -42800.536    104.97026   0.96723466 
   42800    229.60622   -111.46289    129080.08   -39911.485    2856.7379   -42768.223    105.06173   0.96756596 
   42900    229.92157   -289.13388    129365.17   -39972.183    2860.6614   -42832.845    105.52825   0.96543364 
   43000    233.11663   -191.42969    129401.99    -40005.09    2900.4141   -42905.504    105.37417   0.96515895 
   43100    230.24191   -303.60592    129389.71   -39999.049    2864.6471   -42863.696    105.65289   0.96525055 
   43200    228.86648   -257.80623    129405.31   -39955.339    2847.5341   -42802.873    105.95634   0.96513422 
   43300    232.85359   -131.17998    129581.45   -39987.822    2897.1413   -42884.963    106.45493   0.96382227 
   43400    237.36944   -124.46271    129703.24   -39955.437    2953.3271   -42908.764    106.80524   0.96291729 
   43500    232.50631   -221.17909    129693.49   -39975.687    2892.8205   -42868.508    107.09234   0.96298964 
   43600    236.91302   -402.47341    129683.18   -39870.149    2947.6484   -42817.797    107.40447   0.96306624 
   43700    233.12028   -280.22701    129652.43   -39902.528    2900.4595   -42802.987    107.24246   0.96329464 
   43800    231.96972   -412.91512    129456.83   -39906.809    2886.1443   -42792.953    107.11996   0.96475014 
   43900    232.37982   -361.00884     129449.7   -39950.962    2891.2467   -42842.209    107.34099   0.96480323 
   44000    227.14071   -400.58837    129209.74   -39989.036    2826.0622   -42815.098    107.35467     0.966595 
   44100    229.88439    -152.8451    129353.84   -39998.674    2860.1989   -42858.873    107.42979   0.96551821 
   44200    230.26228   -271.25138    129427.79   -40040.787    2864.9006   -42905.688    107.38858   0.96496658 
   44300    226.73683   -186.11861    129208.37   -40044.298    2821.0372   -42865.335    107.84656   0.96660527 
   44400    230.14486   -138.81519    129171.66   -40001.769    2863.4396   -42865.209    108.20363   0.96687998 
   44500    227.46372   -335.63303     129480.7   -40028.583    2830.0812   -42858.664    108.33158   0.96457227 
   44600    226.80824   -282.19729    129376.99   -40087.176    2821.9257   -42909.102    108.38559   0.96534544 
   44700    229.78492   -190.88277     129489.9   -40058.555    2858.9612   -42917.517    108.46148   0.96450373 
   44800     230.7508   -425.78514    129343.08   -40021.364    2870.9786   -42892.343      108.322   0.96559853 
   44900    230.40921   -293.48916    128992.24   -39990.551    2866.7287    -42857.28    108.41489   0.96822484 
   45000    234.47936   -239.58969    129113.14   -39994.968     2917.369   -42912.337    108.70472   0.96731817 
   45100    230.02248   -313.03221    129253.37   -39924.102    2861.9169   -42786.019    108.92745   0.96626873 
   45200    229.88195   -133.85673    129264.39   -39988.353    2860.1684   -42848.521    109.28593   0.96618637 
   45300    231.64586   -91.500348    129341.88   -40003.764    2882.1149   -42885.879    109.50539   0.96560753 
   45400    231.10504   -457.52896    129200.58    -39991.49    2875.3861   -42866.876    109.59715   0.96666357 
   45500    228.99771    -406.3259    129329.77   -40011.922    2849.1669   -42861.089    110.23757   0.96569796 
   45600    234.49873   -222.13299    129411.42   -40003.958      2917.61   -42921.568    110.25799   0.96508867 
   45700    230.02668   -248.08973    129430.74   -40018.059    2861.9692   -42880.028    110.54982   0.96494458 
   45800    232.30307    -242.9762    129530.83   -39962.158    2890.2919    -42852.45    110.68944   0.96419898 
   45900    233.21888   -137.24733     129689.5   -39911.775    2901.6863   -42813.461    111.52252   0.96301929 
   46000    240.28731   -345.24285    129587.49   -39907.707     2989.631   -42897.338    111.70923    0.9637774 
   46100    235.99834   -312.47253    129446.87   -39868.762     2936.268    -42805.03     112.0918   0.96482434 
   46200    235.56762   -211.26006    129558.01   -39865.517     2930.909   -42796.426    112.21522   0.96399671 
   46300    232.59775    -243.9543    129624.36   -39885.344    2893.9583   -42779.302    112.38075   0.96350325 
   46400    234.53376   -255.85274    129347.23   -39926.124    2918.0458    -42844.17     112.2963   0.96556756 
   46500     233.2346   -347.34828    129536.02   -39928.366    2901.8818   -42830.247    112.77301    0.9641603 
   46600    233.77496   -280.49583     129510.5   -39904.142    2908.6049   -42812.747    112.84606   0.96435028 
   46700    228.13623   -256.90545    129307.52   -39975.154    2838.4484   -42813.602    113.16961   0.96586412 
   46800     227.6541   -310.23814    129288.31   -40019.448    2832.4498   -42851.898    113.45718    0.9660076 
   46900    233.79564   -157.52985    129387.96   -39943.979    2908.8622   -42852.841    113.58629   0.96526364 
   47000    230.26056   -356.74342    129487.42   -39924.718    2864.8791   -42789.597    113.94413   0.96452224 
   47100    231.50067   -196.21773     129419.8   -39901.379    2880.3084   -42781.687    113.99663   0.96502611 
   47200    226.51005   -292.07585    129610.84   -39931.065    2818.2157    -42749.28    114.49877   0.96360376 
   47300    225.45198   -261.01104    129442.15    -39954.45    2805.0513   -42759.501    114.87396   0.96485954 
   47400    231.80884   -324.25832    129478.47    -39904.51    2884.1427   -42788.653    114.95174   0.96458888 
   47500    235.37608    -174.0698    129681.12   -39847.923    2928.5259   -42776.449    115.38117   0.96308152 
   47600    233.76457   -334.87603    129724.61   -39805.834    2908.4756    -42714.31       115.78   0.96275863 
   47700    233.76247   -294.05539    129835.97   -39876.692    2908.4495   -42785.142    116.12221    0.9619329 
   47800    233.58202   -206.89872    129657.63   -39905.426    2906.2044    -42811.63    116.09627   0.96325602 
   47900    231.41957   -246.33482     129511.8   -39982.322    2879.2994   -42861.621    116.31381   0.96434062 
   48000    229.27086   -22.162253    129443.19    -39998.95    2852.5654   -42851.515    116.74695   0.96485175 
   48100    228.04406   -334.72542    129535.52   -39950.316    2837.3016   -42787.618    116.67842   0.96416406 
   48200    226.20661   -272.86774    129615.29   -39988.138    2814.4403   -42802.579    116.87774   0.96357063 
   48300    226.07337   -286.58583    129301.66   -39965.536    2812.7826   -42778.319    116.98806   0.96590785 
   48400    232.34843   -132.80524    129266.42   -39874.404    2890.8563    -42765.26    116.97147   0.96617121 
   48500     233.9352   -77.446425    129465.32   -39937.434    2910.5986   -42848.033     117.5889   0.96468687 
   48600    229.57311   -359.16513    129321.59    -39949.11     2856.326   -42805.436    117.71048   0.96575899 
   48700    231.34553   -239.20745    129063.37   -39918.736    2878.3782   -42797.114    117.64317    0.9676912 
   48800    230.25997   -336.68335    129061.62   -39949.844    2864.8718   -42814.715    117.63116   0.96770437 
   48900    229.68361    -117.1448    129000.21   -39928.146    2857.7008   -42785.846    117.84825   0.96816506 
   49000    227.62113   -198.46719    128908.44   -39960.965    2832.0396   -42793.005    117.81716   0.96885426 
   49100    230.98867   -216.76411    129041.47   -39952.266    2873.9382   -42826.204    117.92776   0.96785546 
   49200    229.36836   -264.82907    129021.25   -39960.885    2853.7785   -42814.663    118.21769   0.96800715 
   49300    232.17691   -486.51395    129091.57   -39908.766    2888.7222   -42797.488    118.69347    0.9674798 
   49400    227.50602   -274.83278    129109.93   -39884.468    2830.6074   -42715.075    119.39621   0.96734226 
   49500    233.60059   -99.633913    129157.32   -39880.486    2906.4355   -42786.922    119.14921   0.96698732 
   49600    232.15648   -208.40388    129309.14   -39877.701     2888.468   -42766.169    119.52296   0.96585199 
   49700    231.90655   -131.89154    129621.47   -39904.825    2885.3584   -42790.183    119.96198   0.96352472 
   49800    227.96518   -438.79109    129643.91   -39969.169    2836.3202   -42805.489    120.13732   0.96335793 
   49900     233.5745   -217.60574     129539.7   -39853.955    2906.1109   -42760.065    119.99919   0.96413293 
   50000    231.70548   -259.67933    129462.85   -39892.055    2882.8566   -42774.911    120.21557   0.96470524 
   50100    232.60473   -164.91809    129360.89   -39929.562     2894.045   -42823.607     120.1606   0.96546561 
   50200    224.39682   -276.34204    129379.37   -39973.982    2791.9231   -42765.905    120.35506   0.96532769 
   50300    234.62755   -143.11316    129513.65   -39958.066    2919.2128   -42877.279    120.91023   0.96432688 
   50400    227.61432   -162.32065    129725.77   -40005.804    2831.9549   -42837.759    121.50826   0.96275004 
   50500    227.54081   -177.26125    129762.09    -40048.27    2831.0402    -42879.31     121.7087    0.9624806 
   50600    229.46333   -287.12262    129715.99   -40084.958    2854.9601   -42939.918    122.07327   0.96282262 
   50700    224.98699   -199.43232    129563.04   -40087.484    2799.2659    -42886.75    121.86612   0.96395929 
   50800    227.58073   -367.37576    129532.54   -40070.379    2831.5369   -42901.916     121.8061   0.96418622 
   50900    229.45689   -193.00212       129490    -39968.77      2854.88    -42823.65    122.00874     0.964503 
   51000    228.72092    -294.3009    129475.39   -40017.385    2845.7231   -42863.108    121.78747   0.96461182 
   51100    230.41697   -354.46436    129711.12   -40054.921    2866.8252   -42921.746     122.0927   0.96285876 
   51200    233.56833   -239.06024    129543.46   -40045.886    2906.0341    -42951.92    122.46407   0.96410495 
   51300    226.37751   -354.85662     129432.1   -40105.421    2816.5665   -42921.987    122.73094   0.96493448 
   51400    224.45867   -260.72594     129314.9    -40095.35    2792.6926   -42888.042    123.00362   0.96580894 
   51500    225.04607   -136.34123    129266.69   -40094.437     2800.001   -42894.438    123.05461   0.96616918 
   51600    230.25595   -232.17825    129218.77   -40041.446    2864.8218   -42906.267     123.5487   0.96652744 
   51700    229.70255   -174.89476    129083.32   -40024.257    2857.9364   -42882.194    123.79505   0.96754165 
   51800    225.86904   -244.42252    128838.75   -40051.533    2810.2402   -42861.774    123.65192   0.96937833 
   51900    227.39855   -217.86772    129057.36   -40080.913    2829.2703   -42910.184    124.01032   0.96773631 
   52000     227.2565   -34.404523    129244.23   -40098.647    2827.5029    -42926.15    124.21038   0.96633708 
   52100    228.36462   -421.66093    129330.44    -40044.93      2841.29    -42886.22    124.30146   0.96569289 
   52200    228.71778   -332.42693    129413.01   -40074.115    2845.6841   -42919.799    124.02306   0.96507679 
   52300    227.78805   -295.02965    129465.97   -40055.744    2834.1164   -42889.861    124.50464   0.96468201 
   52400    231.58809   -299.14332    129161.78   -39992.046    2881.3961   -42873.442    124.85853   0.96695397 
   52500     228.6913   -185.66565    129112.12   -39983.704    2845.3545   -42829.059    124.90564   0.96732586 
   52600    227.08925   -105.66704    129087.66    -40016.18     2825.422   -42841.602    125.25792   0.96750917 
   52700    226.06862   -117.08729    129151.56   -40043.038    2812.7234   -42855.761    125.72225   0.96703041 
   52800    227.95543   -359.91303    129016.29   -40010.247    2836.1989   -42846.446    125.76011   0.96804437 
   52900    229.93052   -250.09684    128988.64    -39999.25    2860.7728   -42860.023     126.2282    0.9682519 
   53000    227.19252   -353.55461    128881.89   -39972.741    2826.7068   -42799.447    126.20371   0.96905384 
   53100    230.92218   -192.86874    128841.17    -40016.43     2873.111   -42889.541    125.86011   0.96936014 
   53200    229.54046    -105.9173    128996.59   -39992.926    2855.9197   -42848.846    126.38868   0.96819219 
   53300    231.39623   -263.41453    129134.14   -39984.574     2879.009   -42863.583    126.76084   0.96716087 
   53400    225.21596   -240.36677    129066.83    -40058.27    2802.1147   -42860.385    126.78465   0.96766528 
   53500    230.99455   -181.75291     129148.5   -40058.598    2874.0113    -42932.61     127.0822   0.96705336 
   53600    226.54906   -229.70939    129173.58   -40046.286     2818.701   -42864.987     127.7435   0.96686561 
   53700    225.05263   -59.828214    129122.25   -40080.708    2800.0826    -42880.79    127.55231   0.96724994 
   53800    227.77704   -327.94753    129054.48    -39949.16    2833.9794   -42783.139    127.61381   0.96775788 
   53900    227.95487   -246.29014     128907.9   -39990.552    2836.1919   -42826.744    127.57597   0.96885832 
   54000    230.65113   -170.66861    128821.75   -39976.065    2869.7385   -42845.803    128.09423   0.96950623 
   54100    224.81006   -462.22144    128833.95   -39997.885    2797.0646   -42794.949    128.72865   0.96941446 
   54200    228.08251   -223.25338    128951.51   -39977.086      2837.78   -42814.866    129.11069   0.96853067 
   54300    227.14039   -305.27357     128943.7   -39935.982    2826.0583    -42762.04    129.30637   0.96858932 
   54400     225.4908   -297.39286    128799.73   -39956.922    2805.5342   -42762.457    129.94395     0.969672 
   54500    230.94749   -312.91876     128555.1   -39961.504    2873.4259    -42834.93    129.50631   0.97151718 
   54600    237.27793   -298.66789    128631.89   -39864.352    2952.1886   -42816.541     129.7154   0.97093724 
   54700    237.30486   -219.83991    128558.98    -39888.15    2952.5236   -42840.673    129.93241   0.97148789 
   54800    229.14128    -261.6882    128636.58   -39955.358    2850.9531   -42806.311    130.14445   0.97090181 
   54900    225.19141   -146.56195    128610.96   -39986.529    2801.8092   -42788.338    130.24015   0.97109525 
   55000    225.91202   -70.193847    128743.15   -40040.624     2810.775     -42851.4    130.62323   0.97009817 
   55100    227.18303   -251.79921    128836.21   -40002.279    2826.5888   -42828.867    130.67457    0.9693974 
   55200     225.9795   -295.81441    128929.58   -39996.812    2811.6146   -42808.426    130.99503   0.96869543 
   55300    233.25219   -118.19147    128963.77   -39953.939    2902.1007    -42856.04    131.05166   0.96843859 
   55400    232.14513   -320.24126    128905.92    -39932.03    2888.3268   -42820.357    131.21755   0.96887319 
   55500    228.97097   -215.28905    129210.28   -39875.531    2848.8342   -42724.366    132.15812   0.96659098 
   55600     229.7108   -150.90777    129096.61   -39919.663     2858.039   -42777.702    132.30556   0.96744206 
   55700    230.86028    -278.6914    129232.94   -39924.739    2872.3408    -42797.08    132.94946   0.96642148 
   55800    231.83006   -290.01319    129078.31   -39937.954    2884.4067   -42822.361    133.05546   0.96757925 
   55900    231.02593   -160.76056    129141.66    -39885.57    2874.4018   -42759.972    133.24978    0.9671046 
   56000    233.87383   -85.290276    129170.17   -39884.652     2909.835   -42794.487    133.41012   0.96689116 
   56100    232.54949   -76.657318    129178.57   -39854.445    2893.3577   -42747.803     133.4356   0.96682822 
   56200    231.93821   -406.75886    129241.78   -39863.909    2885.7523   -42749.661     134.0474   0.96635537 
   56300    232.35058   -277.90187    129121.43   -39886.944    2890.8829   -42777.826    134.42406   0.96725614 
   56400    234.57115   -215.46041    129253.71   -39856.348     2918.511   -42774.859    134.61429   0.96626622 
   56500    228.08656   -325.44599    129032.15   -39956.655    2837.8304   -42794.485    134.79015   0.96792536 
   56600    230.18472   -201.08687    128618.55   -39974.895    2863.9355   -42838.831    134.79198   0.97103795 
   56700      224.238   -262.88141    128591.07   -39996.303     2789.947   -42786.251    135.02176   0.97124546 
   56800    226.35143   -160.61276    128632.55   -39926.619    2816.2421   -42742.861    135.06919   0.97093221 
   56900    228.04128   -372.91423    128759.44   -39911.293     2837.267    -42748.56     135.1072   0.96997538 
   57000    229.68356   -251.83474    128777.12   -39853.667    2857.7001   -42711.367    135.32898   0.96984223 
   57100    230.78802   -144.12203    128880.17   -39913.644    2871.4417   -42785.086    135.35322   0.96906678 
   57200    226.96169   -175.14259    128859.72    -39953.29     2823.835   -42777.125    135.16352   0.96922056 
   57300    224.96315   -403.53425    129010.01   -40011.373    2798.9693   -42810.343    135.65087   0.96809146 
   57400    229.84799   -230.62334    128937.99   -40045.795    2859.7459   -42905.541    136.55916    0.9686322 
   57500      224.562   -15.298307    129080.37    -40094.54    2793.9783   -42888.518     137.0404   0.96756376 
   57600    228.47241   -190.12615    129270.83   -40051.994    2842.6312   -42894.626    137.32245    0.9661382 
   57700    227.82233   -251.87852    129346.85   -40106.544    2834.5429   -42941.087     137.7693   0.96557044 
   57800    219.76132   -148.94229    129238.46   -40133.072    2734.2486    -42867.32     138.0571   0.96638022 
   57900    224.27634   -157.85947    129355.54   -40081.082    2790.4241   -42871.506    138.67677   0.96550551 
   58000    225.29097   -292.25152    129250.74   -40085.572     2803.048    -42888.62    138.54523   0.96628839 
   58100    230.90931   -292.69736    129157.84   -40022.865    2872.9508   -42895.815    138.93766   0.96698341 
   58200    229.83464   -336.80818    129426.04   -39968.202    2859.5799   -42827.782    139.46116   0.96497963 
   58300    229.53699   -375.31294    129244.63   -39892.412    2855.8765   -42748.288    139.44253   0.96633405 
   58400    231.57225   -208.06656    128974.45    -39884.26    2881.1991   -42765.459    138.97456   0.96835841 
   58500    234.29848   -255.01959    128783.06   -39880.878    2915.1185   -42795.996    138.82237   0.96979752 
   58600      230.904   -220.35864    128578.96   -39833.697    2872.8847   -42706.581    138.83255    0.9713369 
   58700    233.42405   -178.19693     128581.4   -39842.739    2904.2389   -42746.978    139.31439   0.97131847 
   58800    228.90475   -357.48734     128782.3   -39902.759    2848.0103    -42750.77    139.80945   0.96980326 
   58900    227.11057   -233.06955    128779.28   -39943.853    2825.6872    -42769.54    140.18959   0.96982601 
   59000    226.98344   -240.02893    128721.88   -39911.053    2824.1056   -42735.158    140.32804   0.97025841 
   59100    232.36805   -201.93159    128517.12   -39911.753    2891.1003   -42802.853    140.31415   0.97180429 
   59200    227.51497   -257.97368    128522.84   -39932.309    2830.7188   -42763.028     140.6283   0.97176106 
   59300    228.12037   -295.02253     128529.9   -39926.624    2838.2511   -42764.875    140.76042    0.9717077 
   59400    230.35406   -170.04923    128645.88   -39989.961    2866.0425   -42856.003    140.98354   0.97083168 
   59500    232.33501   -169.57948    128605.13   -39966.722    2890.6892   -42857.411    141.31907   0.97113925 
   59600    228.16331     -152.598    128572.06   -39949.331    2838.7853   -42788.116    141.67612   0.97138909 
   59700    228.59651   -78.375633    128731.14   -39984.947    2844.1752   -42829.122    141.83746   0.97018864 
   59800    225.46693   -312.14941    128545.65   -39984.709    2805.2373   -42789.946    141.89164    0.9715886 
   59900    230.48196   -95.612069    128524.38   -39970.992    2867.6338   -42838.626    142.10412   0.97174941 
   60000    226.52661   -372.02279    128648.76   -40015.771    2818.4217   -42834.193    142.42849   0.97080994 
   60100     232.1249    -235.0874    128662.17   -39987.948     2888.075   -42876.023    142.64816   0.97070869 
   60200    232.45839    -339.9289    128690.75   -39962.464    2892.2244   -42854.689    143.27611   0.97049315 
   60300    229.89014   -272.31804    128636.67   -39914.315    2860.2704   -42774.585    143.31826   0.97090116 
   60400    230.96315   -218.39554    128646.07   -39864.598    2873.6207   -42738.219     143.4921   0.97083024 
   60500    228.26278   -194.93163    128809.88   -39886.505     2840.023   -42726.528    144.03803    0.9695956 
   60600    234.66659   -167.29314    128718.06   -39948.004    2919.6985   -42867.703    144.44426   0.97028725 
   60700     233.6523   -147.80869    129022.62   -39988.417    2907.0788   -42895.496     144.5473   0.96799687 
   60800     236.7903   -128.93221    129083.92   -39972.583    2946.1215   -42918.704    144.54745   0.96753717 
   60900    228.16987   -298.74504    129041.64   -39957.316     2838.867   -42796.183    144.76965   0.96785422 
   61000    234.68339   -112.40275    129118.66   -39998.016    2919.9076   -42917.924    144.89414   0.96727689 
   61100    231.12123    -214.9037     129116.5   -40044.555    2875.5874   -42920.142    144.90424     0.967293 
   61200    227.46517   -215.67232    129145.09   -40052.936    2830.0991   -42883.035    145.19008   0.96707892 
   61300    226.40833   -123.81283    129230.38   -40047.449      2816.95   -42864.399    145.75049   0.96644064 
   61400    226.96789   -372.26144    129128.82    -40084.04     2823.912   -42907.952    145.74745   0.96720073 
   61500    225.32571   -307.46986    128989.09   -40094.863    2803.4802   -42898.343    145.68736   0.96824846 
   61600    230.32649   -275.42248    129084.07    -40054.29    2865.6995    -42919.99    146.07732   0.96753606 
   61700    226.97397   -146.81563    129290.48    -40141.21    2823.9877   -42965.198    146.73635   0.96599141 
   61800    222.58412   -333.11859    129176.03   -40200.834    2769.3696   -42970.204    146.90893   0.96684729 
   61900     228.0453   -310.50113    129418.89     -40141.4    2837.3171   -42978.717    147.32823   0.96503296 
   62000    229.62219   -214.81633    129411.48   -40093.408    2856.9366   -42950.345    147.04586   0.96508822 
   62100    228.56269   -188.99186     129367.3   -40114.178    2843.7545   -42957.932    147.12362   0.96541781 
   62200    227.57095    -349.2035    129366.99   -40059.732    2831.4152   -42891.147    147.14974   0.96542008 
   62300    230.51307   -170.22609    129467.62   -40101.155    2868.0208   -42969.176    147.20523   0.96466971 
   62400    229.39019   -344.56601    129341.89   -40046.479    2854.0501   -42900.529    147.03047   0.96560744 
   62500    232.93435   -294.06244    129249.46   -40059.413    2898.1462    -42957.56    147.33774   0.96629794 
   62600     225.9021   -110.18176    129311.43   -40053.881    2810.6516   -42864.532    148.19997   0.96583489 
   62700    223.42783   -148.04585    129209.52    -40074.97     2779.867   -42854.837     148.4593   0.96659664 
   62800    231.24628   -292.12302    129214.62   -40054.414    2877.1433   -42931.558    148.91022   0.96655855 
   62900    233.00947   -328.09438    129250.27   -39995.799    2899.0807    -42894.88    148.91377    0.9662919 
   63000    235.58371   -154.06315    129439.09   -39958.612    2931.1093   -42889.721      149.387   0.96488232 
   63100    233.18325   -236.02278    129343.33   -39950.818    2901.2429   -42852.061    149.61249   0.96559669 
   63200    231.47769   -349.86095    129421.49   -39970.642    2880.0226   -42850.665    149.95269   0.96501352 
   63300    231.05801   -145.59824    129611.15    -39997.44     2874.801    -42872.24    150.48917   0.96360142 
   63400    235.14651   -220.46883    129615.51   -39927.446    2925.6696   -42853.116    150.80426   0.96356901 
   63500    231.00562   -326.60403    129594.43   -40021.974    2874.1491   -42896.123    150.86721    0.9637258 
   63600    227.05084   -151.59119    129493.81   -40007.823    2824.9441   -42832.767    151.58284   0.96447457 
   63700    225.71949   -116.20636    129674.88    -40000.28    2808.3795    -42808.66    151.78578   0.96312788 
   63800    225.31713   -160.69189    129867.12   -40106.485    2803.3735   -42909.858    152.03717   0.96170216 
   63900    228.91568   -294.42348     129644.1   -40113.709    2848.1463   -42961.855    151.90544   0.96335652 
   64000    225.85454   -358.40818    129340.52   -40108.793    2810.0599   -42918.853     151.7482   0.96561765 
   64100    226.16862   -265.97352    129246.76    -40025.42    2813.9676   -42839.388    151.71247   0.96631819 
   64200    232.48146   -418.82591     129102.2    -40014.44    2892.5113   -42906.951    151.51202   0.96740014 
   64300    234.57915   -402.68829    129053.03   -39913.478    2918.6106   -42832.089    151.18968   0.96776875 
   64400    231.43182   -331.75899    129135.05   -39945.493    2879.4518   -42824.944    151.48551   0.96715407 
   64500    230.08661   -455.38538    129047.57   -39941.852    2862.7149   -42804.567    151.72054   0.96780968 
   64600      227.753   -228.55489    129096.94   -39987.193    2833.6803   -42820.874    151.42386   0.96743958 
   64700    228.06674   -310.19116    129010.76   -39994.324    2837.5839   -42831.908     151.5566   0.96808585 
   64800    228.21031   -424.09253    128720.09   -40007.311    2839.3702   -42846.681    151.90332   0.97027192 
   64900     229.8589   -89.565833    128799.17   -39968.703    2859.8817   -42828.585    152.41108   0.96967622 
   65000     230.7362   -387.39185    128812.31   -39916.322     2870.797   -42787.119    152.87108   0.96957727 
   65100     232.5399   -208.77847    128690.99   -39949.602    2893.2385    -42842.84    153.08137   0.97049132 
   65200     230.1322   -198.99663    128566.82   -39939.215    2863.2821   -42802.497    153.36728   0.97142865 
   65300    230.31884   -223.80301    128905.81   -39923.701    2865.6042   -42789.306    153.78597   0.96887404 
   65400    229.96422      -313.95    128612.63   -39869.726    2861.1921   -42730.918    154.02165   0.97108264 
   65500    231.13718   -196.99268    128626.57   -39940.868     2875.786   -42816.654    154.16503   0.97097739 
   65600    228.73594   -463.54235    128461.94   -39979.893    2845.9099   -42825.803      154.343   0.97222173 
   65700    232.46809   -150.57622    128456.21   -40032.379     2892.345   -42924.724    154.17889   0.97226509 
   65800    229.34885   -394.64051    128452.99   -40031.858    2853.5357   -42885.394    154.23686   0.97228948 
   65900    227.83173   -327.37892    128571.61   -39988.492    2834.6598   -42823.152    154.64122   0.97139244 
   66000    224.44641   -206.81733    128623.73   -39874.232      2792.54   -42666.772    154.84572   0.97099884 
   66100    234.48764   -215.52368    128649.93   -39816.683     2917.472   -42734.155     155.0423   0.97080112 
   66200    232.84044   -500.78776    128902.41   -39792.881    2896.9778   -42689.859    155.82504    0.9688996 
   66300    230.17358   -461.89785    128740.37   -39825.957     2863.797   -42689.754    156.05978   0.97011906 
   66400    229.63652   -245.16185    128498.79   -39864.082    2857.1149   -42721.197    155.93478   0.97194295 
   66500    233.01564   -426.90931    128577.47   -39886.307    2899.1576   -42785.465    156.20648   0.97134819 
   66600    229.57961   -116.65967    128629.94    -39893.92    2856.4069   -42750.327    156.74142   0.97095194 
   66700    231.28578   -139.47333    128757.63   -39930.919    2877.6348   -42808.554    157.29519   0.96998904 
   66800    227.97637   -59.695973    128432.77   -39874.676    2836.4594   -42711.135    157.23692   0.97244259 
[...]
   84600     224.8964   -243.31786    129279.22   -40150.996    2798.1388   -42949.135    196.93584   0.96607551 
   84700    222.38151   -181.25079     129571.7   -40161.579    2766.8488   -42928.428    197.41932   0.96389482 
   84800    232.17068   -76.180425    129774.08    -40121.65    2888.6446   -43010.295    197.88511   0.96239162 
   84900     227.8112   -362.17654    129798.93    -40093.98    2834.4044   -42928.384    198.00297   0.96220739 
   85000    231.85483   -195.35093     129541.4   -40045.025    2884.7148    -42929.74    197.78892   0.96412027 
   85100    231.71675   -329.40941    129643.61   -40047.555    2882.9969   -42930.552     198.4005   0.96336014 
   85200    226.49355   -219.61204    129606.11   -40048.575    2818.0104   -42866.586    198.57088   0.96363891 
   85300    230.77082   -308.83855    129753.87   -40087.527    2871.2277   -42958.754    198.73504   0.96254154 
   85400    234.59129   -328.41595    129871.92   -40075.405    2918.7616   -42994.166    199.01619   0.96166663 
   85500    232.02769   -488.56691    129729.14   -40050.495    2886.8656   -42937.361    199.27769   0.96272504 
   85600    229.55842   -228.59043    129948.09   -40042.692    2856.1432   -42898.836    199.62698   0.96110293 
   85700    231.12987   -173.86025    129832.65    -40095.64     2875.695   -42971.335     199.6342   0.96195749 
   85800    230.07785    -186.9285    129898.92   -40106.402    2862.6058   -42969.008    200.10958   0.96146673 
   85900     232.0083    -265.3104    130087.04   -40007.277    2886.6243   -42893.902     200.9489   0.96007636 
   86000    232.24235   -283.29107     130101.5   -40066.839    2889.5363   -42956.375    201.42928   0.95996967 
   86100     229.7953   -397.98926    130065.83   -40051.168    2859.0904   -42910.258    201.53323   0.96023289 
   86200    228.26978    -242.6096    129876.05   -40017.178      2840.11   -42857.288    201.33191   0.96163608 
   86300    229.18398   -166.20585    129738.26   -40062.749    2851.4845   -42914.233    201.35497   0.96265737 
   86400    229.91411   -419.73826     129765.8   -40089.322    2860.5687   -42949.891    201.50722   0.96245309 
   86500    231.20125   -170.68394    129747.03    -40094.39    2876.5831   -42970.974    201.61234   0.96259227 
   86600    232.87039   -232.43938    129862.32   -40023.352    2897.3504   -42920.702    202.29209   0.96173769 
   86700    229.36754   -259.42304     129971.5   -40013.467    2853.7682   -42867.235    202.87942   0.96092981 
   86800    227.70121   -213.79647    129965.14   -40059.468    2833.0359   -42892.504     203.0587   0.96097682 
   86900    231.16368   -243.81017    130024.15   -40011.041    2876.1156   -42887.156    203.20423   0.96054074 
   87000    231.17278   -245.97424    129890.96   -40016.797    2876.2289   -42893.026     203.2015   0.96152568 
   87100    230.05207   -466.31088    129908.51   -40064.908    2862.2851   -42927.193    203.11261    0.9613958 
   87200    231.47297   -290.74939    129926.25   -40049.856    2879.9639    -42929.82    203.34128   0.96126446 
   87300    230.17665   -348.35579     129931.5   -40059.212    2863.8352   -42923.048    203.57689   0.96122564 
   87400    231.05966   -388.99034    129910.31   -40081.381    2874.8215   -42956.203    203.68655   0.96138246 
   87500     228.2659   -248.41864    130081.63   -40090.438    2840.0618   -42930.499    203.97527    0.9601163 
   87600    230.93997   -214.16568     130245.1   -40103.463    2873.3323   -42976.796    204.30251   0.95891127 
   87700    233.65742   -422.78804    130277.26   -40117.749    2907.1426   -43024.891    204.57365   0.95867451 
   87800     227.2584    -460.9288    130143.43   -40080.277    2827.5265   -42907.803    204.53461   0.95966034 
   87900    227.13646    -266.4754    130057.75   -40099.827    2826.0094   -42925.837    204.74801    0.9602926 
   88000    227.55288   -290.32131    130047.05   -40130.966    2831.1904   -42962.156    205.12204    0.9603716 
   88100    229.94956    -220.4542    130082.97   -40057.226    2861.0096   -42918.235     205.2245    0.9601064 
   88200     235.2191   -98.970524    130112.14   -40018.012    2926.5728   -42944.585    205.71843   0.95989118 
   88300    228.67359   -303.87468    129947.41    -40037.53    2845.1342   -42882.664    205.92043   0.96110795 
   88400    227.09113   -309.37941    129977.45   -40146.095    2825.4454    -42971.54    205.82033   0.96088583 
   88500    232.24136   -199.69022     129950.8   -40056.567    2889.5241   -42946.091    205.79827   0.96108292 
   88600    230.15155   -229.41672    129966.48   -39998.867    2863.5229    -42862.39    206.23092   0.96096695 
   88700    229.59092   -312.31786    130030.97   -40004.291    2856.5476   -42860.839    206.62469   0.96049031 
   88800    235.03854   -502.63067    130061.92   -39968.741    2924.3262   -42893.067    206.84123   0.96026176 
   88900    234.31515   -241.17196    130078.32   -40043.048    2915.3259   -42958.374    206.70949   0.96014068 
   89000    231.54685   -318.48032    130226.29   -40027.305     2880.883   -42908.188    206.90317   0.95904977 
   89100    232.60374   -393.68333    130018.39   -40141.894    2894.0327   -43035.926    206.75827   0.96058327 
   89200    227.32206   -238.77275     130007.2   -40177.714    2828.3186   -43006.033    206.53434   0.96066598 
   89300    226.43463   -334.23868    130120.04    -40173.52    2817.2772   -42990.797    206.70085   0.95983285 
   89400    224.90053   -430.32435    129971.08   -40199.911    2798.1901   -42998.101    206.89302    0.9609329 
   89500    223.86281   -216.49027    130018.44   -40221.956     2785.279   -43007.235    206.81675   0.96058288 
   89600    222.53214    -392.3331    129915.93   -40266.119    2768.7229   -43034.842    206.86155   0.96134082 
   89700    224.46887   -299.80865    129888.64    -40225.88    2792.8194     -43018.7    206.86057   0.96154281 
   89800    228.92999   -233.10206    129708.35    -40204.69    2848.3243   -43053.014    206.93619   0.96287932 
   89900    228.32997     -347.467    129623.32   -40253.468    2840.8589   -43094.327    206.76563     0.963511 
   90000    229.12263   -365.87453    129618.19   -40165.655    2850.7211   -43016.376    207.10799   0.96354912 
   90100    227.46218   -190.78167    129524.86   -40188.221    2830.0619   -43018.283    206.76034    0.9642434 
   90200    228.79445   -210.70576    129644.19   -40214.298    2846.6379   -43060.936    207.62202   0.96335588 
   90300     226.7629   -329.84063    129574.66   -40218.111    2821.3616   -43039.473    207.46034   0.96387283 
   90400    227.59636   -318.25326    129698.17   -40199.446    2831.7314   -43031.177    207.51109   0.96295495 
   90500    226.90732   -331.67765    129635.53   -40169.291    2823.1584    -42992.45    207.16264   0.96342024 
   90600    233.11402    -313.0439    129669.26   -40069.904    2900.3816   -42970.286    206.96834   0.96316961 
   90700    230.99529   -346.72336    129606.18   -40065.953    2874.0205   -42939.974     207.1291   0.96363837 
   90800    233.22168   -128.12109    129680.05   -40091.026    2901.7211   -42992.747    207.46101   0.96308946 
   90900    228.01253   -188.78616    129713.76    -40182.65    2836.9094   -43019.559    208.12403   0.96283919 
   91000    226.11339    -306.9326     129786.4   -40201.167    2813.2804   -43014.447    208.66945   0.96230028 
   91100    223.82908   -147.54145     129745.7   -40188.524    2784.8593   -42973.383    208.89989   0.96260216 
   91200    227.55971   -311.75481     129728.6   -40151.645    2831.2754   -42982.921    209.26312   0.96272902 
   91300    229.84766   -118.66058    129769.95   -40053.671    2859.7418   -42913.413    209.06366   0.96242228 
   91400    235.62717   -193.04288    129819.51   -40030.902    2931.6499   -42962.552     209.3699   0.96205488 
   91500    231.35493   -390.07335    129745.67   -40041.181    2878.4952   -42919.676    209.39338   0.96260239 
   91600    227.55107   -191.23258     129899.1   -40066.586    2831.1679   -42897.754    209.81411   0.96146538 
   91700    225.77185   -145.20337    129837.07   -40134.916     2809.031   -42943.947    210.23084   0.96192472 
   91800    227.60159   -300.02899    130091.25   -40085.379    2831.7965   -42917.175    211.09592   0.96004531 
   91900    226.50614   -301.25404    130141.36   -40077.004     2818.167    -42895.17     211.7459   0.95967559 
   92000    228.09699   -253.86815    130010.62   -40076.859    2837.9602    -42914.82    212.22188   0.96064067 
   92100    225.70384    -427.8171    129854.59   -40105.613    2808.1849   -42913.798    211.75573   0.96179496 
   92200    229.07169   -195.12054    129849.34   -40033.116    2850.0873   -42883.203    212.19844   0.96183386 
   92300    233.05244   -255.47715    129889.93   -39958.639    2899.6155   -42858.254    211.86612   0.96153325 
   92400    235.30405   -151.09549    129767.86   -39965.808    2927.6298   -42893.438    212.08243   0.96243778 
   92500    226.56852   -253.49304    129865.68   -40016.605    2818.9432   -42835.548    212.47145   0.96171284 
   92600    234.07814   -282.18551    129813.83   -39985.328    2912.3771   -42897.705     212.4878   0.96209696 
   92700    230.94717    -157.1499    129828.87    -39974.16    2873.4219   -42847.582    212.91125   0.96198552 
   92800    225.81364   -120.24004    129762.78   -40020.187    2809.5509   -42829.738    212.97653   0.96247547 
   92900    235.27121   -217.70726    129719.68   -39998.676    2927.2211   -42925.897    212.75143   0.96279524 
   93000    233.38048     -268.807    129857.43   -40037.023    2903.6969    -42940.72    213.39808   0.96177394 
   93100     234.8931   -115.77535    129929.85   -39979.945    2922.5167   -42902.461    213.44531   0.96123783 
   93200    232.81839    -202.7639     129972.4   -40007.433    2896.7033   -42904.136    214.31458   0.96092321 
   93300    231.63749   -403.84342    129830.16   -40032.032    2882.0108   -42914.043    214.59878   0.96197594 
   93400    231.68461   -268.79427    129824.97   -40084.938     2882.597   -42967.535    214.34949    0.9620144 
   93500    224.42618   -71.080836     129894.6   -40128.188    2792.2883   -42920.476    214.75381   0.96149873 
   93600    230.52302   -264.81074       129965   -40209.913    2868.1446   -43078.058    214.91939   0.96097786 
   93700    227.25508   -221.98484    130053.01   -40185.344    2827.4853   -43012.829    215.24013   0.96032754 
   93800    226.29508   -451.13715    129898.95   -40147.715     2815.541   -42963.256     214.9466   0.96146653 
   93900     230.6914   -222.33092    129877.68   -40135.471    2870.2397   -43005.711     215.4207   0.96162398 
   94000    228.13025   -331.70019    129854.89   -40151.465     2838.374   -42989.839    215.80811   0.96179276 
   94100     227.6392   -286.37833    129962.58   -40140.655    2832.2645   -42972.919    216.28572   0.96099581 
   94200    224.83281   -361.68108    129911.04   -40129.824    2797.3476   -42927.172    216.46513   0.96137705 
   94300    227.04373   -368.08373    129745.14   -40065.237    2824.8556   -42890.092    216.34583   0.96260634 
   94400    227.13526   -308.49673    129458.88   -40027.464    2825.9945   -42853.459    216.26477   0.96473481 
   94500    229.84642   -235.94495    129347.11   -39962.801    2859.7264   -42822.528    216.84653   0.96556846 
   94600    234.40558   -315.15363    129167.08   -39996.177     2916.451   -42912.628    216.28148   0.96691428 
   94700     225.7164    -89.92729    129410.92    -40039.28    2808.3412   -42847.621    216.73594    0.9650924 
   94800    233.41405   -264.09879    129492.96   -40042.301    2904.1146   -42946.415    216.81477   0.96448094 
   94900    229.60328   -147.51328    129451.07   -40015.566    2856.7013   -42872.267    217.58722   0.96479305 
   95000    231.30265   -265.35805    129363.26    -39987.64    2877.8446   -42865.485    217.55275   0.96544791 
   95100    230.62034   -320.14432    129398.11   -39969.072    2869.3554   -42838.428    217.91424   0.96518794 
   95200    231.22217   -362.08665     129381.2   -39997.311    2876.8434   -42874.155    217.71296   0.96531408 
   95300    233.48546   -15.615757    129166.35   -39898.191     2905.003   -42803.194    217.69165   0.96691973 
   95400     232.9771   -206.76502    129293.57   -39952.834     2898.678   -42851.512    217.76754   0.96596828 
   95500    231.35454   -171.33365    129407.73    -39967.91    2878.4903     -42846.4    218.21461   0.96511616 
   95600    231.12811   -264.96142    129895.36   -39954.979    2875.6731   -42830.652    219.12204    0.9614931 
   95700    229.43128   -274.90395    129704.92   -40017.121    2854.5613   -42871.682    219.36107   0.96290482 
   95800    226.14985   -113.77042    129509.59   -40064.605     2813.734   -42878.339    219.31934   0.96435709 
   95900     229.7905   -272.33683     129449.2   -40002.446    2859.0307   -42861.477    219.65935   0.96480701 
   96000    226.87813   -257.75394    129301.33   -40073.308    2822.7952   -42896.103    219.65113   0.96591033 
   96100    233.20535   -217.11867    129174.66   -40020.526    2901.5179   -42922.044    219.55196   0.96685754 
   96200    224.79358   -260.89522    129363.58   -40059.121    2796.8595   -42855.981    219.87389   0.96544553 
   96300    228.56658   -255.27404    129262.04   -40011.724    2843.8028   -42855.527    220.09102    0.9662039 
   96400     232.5803   -161.22272    129424.31   -39996.571     2893.741   -42890.312     220.4703   0.96499253 
   96500    228.00519    -446.1739       129455   -40036.988    2836.8181   -42873.806    221.15725   0.96476371 
   96600    229.97262   -292.09549    129532.96   -40032.127    2861.2966   -42893.423    221.39421   0.96418307 
   96700    231.11914    -167.3197    129684.17    -40120.94    2875.5615   -42996.502    221.54882   0.96305889 
   96800    222.80592   -357.56446    129850.58   -40171.152    2772.1292   -42943.281    222.36169   0.96182465 
   96900    230.22415   -316.93849    129898.57   -40117.493    2864.4262   -42981.919    222.54129   0.96146934 
   97000     229.4205   -146.45942    129982.39   -40131.478    2854.4271   -42985.905    223.11829   0.96084932 
   97100    230.33887    -269.6055    129854.68   -40146.045    2865.8534   -43011.899    222.81038    0.9617943 
   97200    227.19478   -405.99384    129850.02   -40159.604     2826.735   -42986.339    222.45165   0.96182883 
   97300    227.24104   -392.50658    129648.19    -40155.93    2827.3105   -42983.241    222.07756   0.96332618 
   97400    229.53617   -337.85304    129792.14   -40168.146    2855.8664   -43024.012    222.55675   0.96225773 
   97500    231.09818   -169.68114    129872.26   -40061.142    2875.3008   -42936.442    223.26763   0.96166411 
   97600    226.60749   -411.53018    129885.78   -40122.411     2819.428   -42941.839    223.80813   0.96156398 
   97700    228.15181   -185.83699    129463.83   -40050.383    2838.6423   -42889.025    223.76521   0.96469797 
   97800    229.09647   -216.13284    129622.23   -40019.573    2850.3956   -42869.968    224.52598    0.9635191 
   97900    227.65063   -49.263652    129691.62     -39968.9    2832.4066   -42801.306    224.67662   0.96300355 
   98000    232.01299   -258.26269     129747.2   -39987.908    2886.6827   -42874.591    224.92928   0.96259107 
   98100    227.62919   -230.60802    129697.05   -40060.077    2832.1399   -42892.217    224.87268   0.96296327 
   98200    229.77039   -339.68374    129735.03   -40027.211    2858.7805   -42885.991    224.98163    0.9626813 
   98300    230.96523   -162.81824     129488.6   -40053.787    2873.6466   -42927.434    224.71169   0.96451341 
   98400    229.31479   -146.39228    129826.52   -40061.478    2853.1119    -42914.59    225.42458    0.9620029 
   98500     227.8567    -278.6921    129742.02    -40073.17    2834.9706   -42908.141    225.55022   0.96262949 
   98600    225.80408   -295.62293    129671.44    -40098.91     2809.432   -42908.342    225.43857   0.96315343 
   98700    225.58126   -286.60818    129805.46    -40159.04    2806.6597     -42965.7    225.89107   0.96215901 
   98800    226.56105   -250.80447    129651.44   -40133.414    2818.8502   -42952.264    225.61726     0.963302 
   98900    230.57545   -295.10979    129610.21   -40149.058    2868.7969   -43017.855    226.04272   0.96360846 
   99000    221.56863   -238.47768    129740.95   -40176.975     2756.735    -42933.71    226.41478   0.96263743 
   99100    231.30237   -244.15198    129824.31   -40077.989    2877.8413    -42955.83    226.52967   0.96201929 
   99200    228.29428   -146.92656    129669.21   -40068.596    2840.4148   -42909.011    226.27641   0.96316996 
   99300     224.1228   -376.69016    129819.54   -40008.702    2788.5137   -42797.216    226.65873   0.96205467 
   99400    232.49216   -218.83185    130036.56   -39967.839    2892.6444   -42860.483    227.54508   0.96044904 
   99500    233.91656    -220.0835    130021.66   -39848.624    2910.3667   -42758.991    227.49423   0.96055913 
   99600    235.88787   -245.08433    130072.51   -39890.981    2934.8936   -42825.874     227.3352   0.96018362 
   99700    233.64656   -281.82205    129670.97   -39899.641    2907.0073   -42806.649    227.15173   0.96315694 
   99800    232.94425   -298.79861    129730.36   -39911.262    2898.2694   -42809.531    227.60255   0.96271602 
   99900    235.28468   -108.52889    129881.28   -39970.333    2927.3887   -42897.721    228.28056   0.96159729 
  100000     230.4431   -226.52104    129605.66   -39986.585    2867.1502   -42853.735    228.23545   0.96364224 
  100100    231.22451   -142.28208    129571.41   -39914.096    2876.8726   -42790.968    228.46175   0.96389701 
  100200    233.65646   -270.19791    129699.86   -39922.712    2907.1305   -42829.842    229.08064   0.96294236 
  100300    234.46388   -143.65339     129781.9   -39914.063    2917.1764    -42831.24    229.44944   0.96233366 
  100400    232.55638   -78.711069    129882.99   -39952.535    2893.4435   -42845.979    229.86879   0.96158465 
  100500    234.44625   -241.24753    129914.11   -39874.048    2916.9571   -42791.005     230.2541   0.96135429 
  100600    230.72717    -96.34781    129865.93   -39981.245    2870.6846   -42851.929     230.1742   0.96171098 
  100630    230.74357   -164.61429    130048.76    -39964.06    2870.8887   -42834.948    230.31644   0.96035899 
Loop time of 100.453 on 6 procs for 100000 steps with 4175 atoms

Performance: 430.052 ns/day, 0.056 hours/ns, 995.491 timesteps/s
98.7% CPU use with 6 MPI tasks x no OpenMP threads

MPI task timing breakdown:
Section |  min time  |  avg time  |  max time  |%varavg| %total
---------------------------------------------------------------
Pair    | 76.647     | 77.084     | 77.787     |   4.4 | 76.74
Neigh   | 5.4479     | 5.4892     | 5.5437     |   1.4 |  5.46
Comm    | 14.165     | 14.877     | 15.352     |  10.2 | 14.81
Output  | 0.18107    | 0.18268    | 0.19       |   0.8 |  0.18
Modify  | 2.0653     | 2.087      | 2.1314     |   1.5 |  2.08
Other   |            | 0.7333     |            |       |  0.73

Nlocal:        695.833 ave         700 max         691 min
Histogram: 1 0 0 1 1 0 1 1 0 1
Nghost:        1474.83 ave        1485 max        1462 min
Histogram: 1 0 0 1 1 1 0 0 0 2
Neighs:        0.00000 ave           0 max           0 min
Histogram: 6 0 0 0 0 0 0 0 0 0
FullNghs:      19430.7 ave       19703 max       19159 min
Histogram: 2 0 0 1 0 0 0 1 1 1

Total # of neighbors = 116584
Ave neighs/atom = 27.924311
Neighbor list builds = 5796
Dangerous builds = 0

undump              1
unfix               2
unfix               3
unfix               4


################################################
#######         Run Simulation         #########
################################################

reset_timestep      0
log                 log.run_${NAME}
log                 log.run_liquid_density_MLmW
