LAMMPS data file via write_data, version 29 Oct 2020, timestep = 800000

4175 atoms
1 atom types

-0.7427831218840169 50.7427831218873 xlo xhi
-0.7427831218840169 50.7427831218873 ylo yhi
-0.7427831218840169 50.7427831218873 zlo zhi

Masses

1 18.015

Atoms # atomic

1953 1 5.170977849332782 1.58839135898226 0.21998343872127502 0 1 0
3587 1 10.772760928632579 0.9887977465832056 0.8564563717111362 0 0 0
1971 1 13.21205755460289 0.18205408597518424 1.2753705312976749 0 0 1
1349 1 17.40722383342181 2.2161373718218265 1.2342510090505445 0 0 1
3546 1 18.57467327058147 -0.1670276741774087 1.4033120296337231 0 1 0
3761 1 21.089254619968255 0.8520465576562111 1.7792672491673867 0 0 1
995 1 22.311974066058145 2.46883614708348 -0.3094614378128065 0 0 0
2812 1 25.56165915061774 1.4283739461593568 -0.13743615586555136 0 1 0
3483 1 24.561762831273573 -0.10174991655515608 2.0478205529980196 0 1 0
4022 1 29.904348688436144 1.7305159855670222 1.0620954170653703 0 0 1
2141 1 36.19811006545805 1.715023570352305 1.7944054890565555 0 0 1
3750 1 41.0452531707226 -0.40888786683565453 1.337143141748304 0 0 1
3028 1 42.03170035248332 1.8278739880584114 2.6348854277856195 0 0 0
701 1 47.04367452610898 50.72677804401895 2.411674530350591 0 -1 0
290 1 50.483247068303605 0.45084747664597646 0.04823496448101394 -1 0 0
3010 1 0.10713091357014581 4.48199488545128 0.9529826331521918 0 0 1
3411 1 9.216728995139144 3.4754546561019524 0.6323892671457081 0 0 1
3325 1 14.592197455516075 2.6400475956730536 0.885298318437838 0 0 1
3809 1 20.166730268403967 4.864865372939696 0.09058044879319493 0 1 0
3736 1 28.106244919381403 2.6960643880280393 -0.40663737262625416 0 1 0
2472 1 27.706766936483234 4.979918888131626 1.298751677668034 0 0 1
424 1 32.21991980397411 2.981593089010552 0.9984257113820334 0 0 0
4125 1 37.84835563368919 3.9474257530137082 1.3718711070620926 0 0 0
446 1 42.03560514646482 5.320830189226232 -0.012508055492049808 0 0 0
939 1 43.65925250266163 3.308681830915085 0.5851913232406505 0 0 0
2762 1 46.05180792318093 4.579409622009751 1.0824250031048268 0 0 0
2645 1 1.619604111538767 6.101966755636454 -0.2575359614360077 0 0 0
2541 1 3.151048199140338 7.7718360121574825 1.3400653858695604 1 0 1
1212 1 6.583398756940922 6.921646804120104 0.004571607509445741 0 0 0
1675 1 10.320941151323014 5.489655294762297 50.55671488955126 0 0 -1
3689 1 12.580193056584232 6.376501462471496 0.6395500875426299 0 0 0
632 1 16.659977981043088 7.423594799932689 1.7811629007492824 0 0 0
2101 1 19.270269227535913 6.967140728554698 2.2293537855932692 0 0 0
1851 1 24.955599274094098 5.73941540380315 1.3392660223632604 0 0 0
845 1 28.80889003600366 7.272509433576687 -0.2576341760423673 0 0 1
2242 1 32.27211716486143 5.775403365046571 1.7319592238348895 0 0 0
3705 1 31.863097012716068 7.0492941752383755 -0.5501990457501311 0 0 1
1467 1 35.55453718223187 7.367019413599619 0.0020953836315998897 0 0 0
3859 1 36.588052019782694 6.169764823798487 2.1796354375796003 0 0 0
3172 1 44.983508564760406 6.98316882226413 2.3413164767241974 0 0 0
2551 1 49.25002727037357 5.763842540956133 1.3608935512318556 0 0 0
2321 1 0.8286553543557964 9.383555157332387 1.7366569899552298 1 0 1
300 1 50.045631065106 8.114124104556947 0.36135576471197983 -1 0 1
2294 1 5.071385286831138 9.2101847373271 0.08165599991966233 1 0 0
3296 1 5.878422391572306 11.252103758142427 1.8550883440784869 0 0 0
411 1 9.532432034568833 10.121879213203215 -0.5076070150901899 1 0 0
2921 1 11.368399641607134 10.238385353807407 1.5094021097563832 0 0 0
3563 1 13.927708232546541 10.632304174792294 0.12098248530510347 0 0 0
1879 1 20.583598058835555 9.31222214891999 2.2308036687908523 0 0 0
2236 1 24.937527958991488 9.759453410927824 -0.47963374632960987 0 0 1
2251 1 25.20609229573983 8.430796040762578 1.9319937626041521 0 0 1
3986 1 31.311348156762648 10.476583782793602 1.873188799818739 0 0 0
2573 1 35.340680773266165 10.226344329580876 -0.037256374326392505 0 0 0
1874 1 36.09088905154569 11.335613907407987 2.149265576741578 0 0 1
2305 1 43.731366045001664 7.918083565154038 -0.004788850717873272 0 0 0
3151 1 42.26764617230987 10.16437476318204 0.502545041939017 0 0 0
3854 1 47.98275146014282 9.426517104707107 0.20870502419223558 0 0 0
3302 1 -0.2633735430803855 13.318630681620313 -0.4016036588197506 0 0 1
3717 1 1.858993516363313 11.505855896195547 0.052132831505820376 1 0 0
1805 1 3.8462102255056987 13.20953680397347 1.34501006539158 0 0 0
1661 1 7.424442738276701 12.005985392612121 -0.3697821047795197 0 0 0
1235 1 7.611317243378016 14.78294287236572 -0.5899928105101216 0 0 1
883 1 14.603798381706977 13.221202594782477 -0.2656617101138934 0 0 1
2690 1 19.59875724098817 13.347157876857366 0.34197186132632784 0 0 0
1555 1 25.177982433518686 12.583440499696245 -0.5209760765473402 0 0 0
2075 1 24.882344794718193 13.836115229610158 2.0869981119193133 0 0 0
594 1 29.789409975948505 13.0851821699251 1.3405620947463421 0 0 0
1754 1 38.51735925317853 12.415078178739485 1.930223476093142 0 0 1
1031 1 39.88296914684993 13.341397750948433 -0.68146915669663 0 0 1
629 1 43.82083293578995 12.221221189934486 1.1449184367957579 0 0 0
2720 1 49.92139191940458 14.289314856766039 1.7733759433362581 0 0 0
255 1 5.087045591970149 15.62281247725366 0.14078153574930363 0 0 0
3505 1 6.247413828452118 18.050417041190073 1.1432329562226504 1 0 1
3868 1 10.149495276986212 14.68610020079785 0.7966247264889652 0 0 1
376 1 10.3821387260147 17.340093280617427 1.6365061843765885 0 0 0
4172 1 12.339652290705349 14.741498894682803 50.55202479820438 0 0 -1
1668 1 16.809648513164714 13.777786538062234 1.3364922874974843 0 0 0
4168 1 17.991866835324075 16.10941994722467 -0.3543995102507776 0 0 1
891 1 20.969770220089007 15.881529660753497 0.7951920504253969 0 0 0
3322 1 26.83147942209379 15.740945213392543 2.1627380859523333 0 0 0
2459 1 26.97306458375378 17.006463962263833 -0.36176784371648835 0 0 0
79 1 34.11656356661545 14.769386375061435 0.8283913170472545 0 0 1
859 1 33.178863589435316 17.040037356840315 2.0741611496353953 0 0 0
1466 1 36.10486295966673 15.847232957952752 50.547221288684256 0 0 -1
2683 1 41.813167312545204 15.059862451592078 -0.47400569865173053 0 0 1
1697 1 42.88355858041881 14.747695630566481 2.030861790624735 0 0 0
1026 1 44.984361845853094 16.295880570935054 1.2657588897331138 0 0 0
1141 1 46.7899691388724 14.773254132751953 -0.26501236158863806 0 0 1
1989 1 50.5808506768158 16.74860267185124 0.8502327083552363 -1 0 0
4064 1 1.4598017663284364 18.473566652375396 1.3230782392476739 0 0 1
3672 1 4.567026052436425 19.113602617542163 -0.5215320087359736 0 0 0
3720 1 8.65444534001864 19.007319500203177 0.5810971379123229 0 0 0
2308 1 12.82827905651589 18.654589288871794 0.9816957780550846 0 0 1
2403 1 16.749872431514696 18.150115194482986 1.0331582665991166 0 0 1
2072 1 20.480676490159333 18.69514249380504 0.5688862935539567 0 0 1
2647 1 23.029018646365195 19.945117034436503 1.3182407988491893 0 0 0
1556 1 28.637087538527613 19.30350698125405 -0.2886461329196718 0 0 0
2526 1 32.65232740966777 19.318162540658168 0.5924783642633857 0 0 1
2269 1 37.73468846445775 17.689943464874407 0.46013913998838496 0 0 0
3979 1 40.21490980008977 17.676232054877403 -0.640015046107628 0 0 0
2767 1 41.68939335974182 19.12108136069029 1.1884820369476807 0 0 0
1685 1 44.30111607673179 18.757561671908466 0.41673721931752183 0 0 0
2723 1 1.554515241547926 21.25032601377271 1.10145386319378 0 0 0
4038 1 4.177423470667311 21.631582346330795 0.23840838139428988 0 0 0
2215 1 7.819305893148105 23.441629846690414 1.810697625637114 0 0 1
3863 1 9.400974764635661 21.279415876559078 1.8095088692975385 0 0 0
3214 1 12.163519972296676 21.30423971977913 1.112051017222306 0 0 0
591 1 27.616373491641188 22.054030824336685 -0.32594071244265893 0 0 0
2045 1 31.56782058005342 21.327812420792917 1.9141157479635376 0 0 0
4141 1 32.1634981235718 23.976389060173155 0.7167922426908178 0 0 1
1726 1 37.108215290899444 20.23571745510707 0.01407496607394787 0 0 0
295 1 41.16306795959619 21.95240225086757 0.9437156961116993 0 0 0
1931 1 44.94096522392959 22.67657073378493 1.898347539183228 0 0 1
2695 1 46.91765139913353 23.57345598031707 -0.1623899532747578 0 0 0
3906 1 48.73866232475374 21.386361412014995 -0.18292757482225064 0 0 0
1569 1 1.5216504018450747 25.910485683782138 0.7909177490426198 0 0 1
2313 1 3.9416596963810813 26.251384926186216 50.613188793626506 0 0 0
1800 1 12.020963500763067 25.519982672189172 2.53708247267337 0 0 0
2741 1 16.47986818078512 24.262517606149878 0.20936549712538066 0 0 0
2581 1 19.365415559854693 25.141612899044926 0.036479907236975695 0 0 1
3030 1 24.14635972402251 24.043734282638574 0.3570853071346767 0 0 0
2848 1 26.567014474510163 23.644304813078353 1.6548461987608372 0 0 0
1187 1 27.46007158329779 26.058481637144197 1.1454511152488869 0 0 1
618 1 29.10029924429247 26.127020558613605 50.23289799311282 0 0 0
2758 1 36.21805669702681 23.98461707110187 0.9398280115294482 0 0 0
2545 1 40.19343112481524 26.132760053095527 1.0698765939819408 0 0 0
3721 1 43.215274871205736 23.133891097334832 -0.12124216515010977 -1 0 0
1122 1 42.708423081685424 25.78819874951268 -0.3205109605520728 0 0 1
1199 1 48.81424451930556 25.385280769927533 0.6889214006046522 -1 0 0
3441 1 -0.1801041240511726 28.093256969948893 1.4297377908713655 0 0 0
2678 1 8.156842333641642 28.70870927101413 -0.35030865206060524 0 0 1
1010 1 11.463411632364977 29.211822058249886 -0.32624133945404293 0 0 1
163 1 12.383103648859944 26.55873760104061 -0.09290754066664386 0 0 1
3955 1 15.546179791935003 28.387890321909772 0.3572535969784574 0 0 1
924 1 20.89167069234573 27.331074554390423 -0.13964919337531345 0 0 0
2000 1 23.465265189334026 26.666887459398897 1.0522813379335316 0 0 0
983 1 25.74001818570107 28.276107838773612 0.306463722564456 0 0 1
1344 1 31.691085151664105 27.92916042173524 2.206917127346742 0 0 0
2803 1 35.30456701814856 28.939038679531496 50.29806630943141 0 0 -1
981 1 36.21154874252712 28.541400771319275 1.6151661981547827 0 0 0
429 1 39.04362478590467 28.69714553331446 1.3433792595844003 0 0 0
2680 1 44.61762012266826 27.522782492749073 0.9214327347822446 0 0 0
4018 1 47.48394907459143 27.555307106352377 0.20075154195709521 0 0 0
184 1 48.687012228788866 29.027012954337188 2.0227039220669885 0 0 0
117 1 0.5007767653237891 29.880876863729284 -0.5908278067684686 1 0 1
819 1 2.700423440012519 31.605501899170704 -0.6771495030259709 0 0 1
2855 1 4.664628195512554 31.23760783508379 1.5727108470258018 0 0 1
3118 1 7.294324744175279 31.768722480429325 0.9775806542846917 0 0 1
3435 1 13.881784394449584 30.513187621113882 0.17672857745938209 0 0 1
4127 1 11.062541080603994 30.005716190040175 2.421319989091323 0 0 1
3348 1 15.138117672956522 32.3117751703564 1.991797848805608 0 0 0
1688 1 17.80435203724046 30.208603295395694 -0.3653264167144969 0 0 0
3252 1 20.081831846449973 29.919006044344144 1.3842360172367845 0 0 1
1474 1 21.77273921019075 32.28192443780165 1.7550694571157703 0 0 1
3338 1 28.06233907482536 31.834932013274674 0.11872604478104143 0 0 0
2895 1 26.16215199208782 30.38001605349789 1.855066784693539 0 0 0
2697 1 32.59860659901726 31.675632050275297 0.2544389751501873 0 0 1
510 1 30.455617887006017 30.199538961623528 50.733663235815655 0 0 0
35 1 34.88730164315794 31.828260095051682 50.272767979580166 0 0 -1
1669 1 43.449806711031385 30.04363422541349 -0.21356196678502226 0 0 0
2687 1 42.25766247405107 31.440399255973624 1.8837491666721604 0 0 0
1503 1 45.636090379336366 31.866622237861776 -0.5138881281587907 0 0 0
3941 1 47.87194857966443 31.65001843941878 0.7029477256921377 0 0 0
3925 1 1.6325586092112028 33.52369735667038 1.5165114036696594 0 0 1
1853 1 14.242028483021583 35.0207675185161 1.8448266908392243 0 0 0
2492 1 17.299361443446283 32.85004246366908 0.14272056583331094 0 0 0
1923 1 18.4083545503728 35.47360067461322 1.983414797045019 0 0 0
929 1 21.82023749875212 33.92133855620338 -0.39920243746266326 0 0 1
3169 1 29.301291612367045 34.09847128689737 1.2230422449992193 0 0 0
3624 1 31.89567457476428 34.076704168869014 1.259036265885702 0 0 0
3022 1 36.94376017369174 32.881659776747156 0.2321105957294417 0 0 0
3110 1 39.05449293279627 32.403196131741275 50.310244021917015 0 0 0
3961 1 40.778789806276386 33.75732127148386 1.004242994361748 0 0 0
397 1 42.81840508641966 35.30031700647595 0.1748491668717529 0 0 0
2389 1 0.8102179073851039 36.027189814897774 1.2311927077648652 0 0 0
2148 1 3.5086743247088528 36.63094251608565 0.25215381790530944 0 0 0
3250 1 8.497361223846495 36.41577431432547 0.5044071954219089 0 0 1
1162 1 7.2163478594015675 38.441993943150266 2.0439769152644107 0 0 0
2794 1 10.894397219046063 37.80818346521323 0.2973059910094258 0 0 1
2728 1 12.730990797601324 35.84667532519948 -0.23910761212652876 0 0 1
3510 1 16.014957838775125 36.88199289190587 1.9760328950848796 0 0 1
846 1 20.578494030016795 36.96489589173989 2.47179135350411 0 0 0
888 1 22.38731444839617 36.3177848333474 0.5452076451257117 0 0 1
2523 1 25.094486737573664 36.09259317035808 1.1758638272335282 0 0 1
1339 1 25.62858021605348 38.52109920507258 2.3417583101656994 0 0 0
1662 1 29.20105191591253 36.74379262932302 -0.30859615904834853 0 0 0
588 1 29.69848437520016 38.210137092137195 1.9640286754513383 0 0 0
2594 1 34.088349734942554 38.29072775710173 2.153705465280995 0 0 1
2265 1 36.97499569040007 35.43184053030825 -0.27315623966475844 0 0 1
3880 1 35.79766413354299 36.298164881285075 2.0727546494640423 0 0 1
1865 1 38.746375066171794 37.797948718816684 -0.4093861325107724 0 0 1
2809 1 48.03652143330742 38.28954149911039 1.3633513596563764 0 0 0
4068 1 49.626102137015216 36.1513241206305 0.43070489520143096 -1 0 1
3838 1 0.965442568158833 40.44136554893499 0.5972228074276631 0 0 0
2113 1 6.76681339287319 40.81849545230354 0.5809119736083816 0 0 1
1374 1 14.021008519738274 39.64275093884651 1.9351640957335778 0 0 1
1277 1 15.1828157833791 38.55700778834979 -0.45823968545774096 0 0 1
3055 1 19.407152093568993 39.542951425715074 2.3345209982616244 0 0 0
1034 1 17.91324831393555 39.498376385626024 -0.2132710558683979 0 0 1
3691 1 22.198743160393125 40.4274320054445 2.352290490891496 0 0 0
3729 1 22.93133570571055 40.757904185490325 -0.4496299019592889 0 0 0
189 1 25.48303514446627 40.87376080402065 0.8961288595020271 0 0 1
577 1 29.666951920185987 40.84588285873277 1.1910389163129937 0 0 0
3771 1 32.180125978621696 41.59269354743172 -0.07964655375559637 0 0 0
90 1 33.78484755402445 39.418777726338675 -0.5282025413713076 0 0 0
3147 1 42.33143977356663 39.28475551563001 -0.7177875007129231 0 0 0
2780 1 47.86632617610476 41.16298315337039 0.795800327462219 0 0 0
3222 1 2.1220496586650164 42.65152192799954 0.951801360048083 0 0 0
1295 1 4.513460270792686 42.22192929169519 2.1073784467289145 0 0 0
1314 1 8.600437156478371 42.75080476765399 0.7330707092102364 0 0 1
2005 1 14.097835223347055 42.36166366978465 1.5631145683886052 0 0 0
3917 1 16.578070323346935 43.6515303851885 1.6039670683092848 0 0 1
1012 1 18.233168015101672 43.75668054634532 -0.679294443923697 0 0 0
503 1 20.830769385820126 44.39303453089122 -0.14356357972939904 0 0 1
1493 1 26.257024120913897 43.307154466260606 2.1414967041108333 0 0 0
3385 1 27.011858046022187 44.903940783218424 0.1316039439530443 0 0 0
1521 1 35.29460627795367 44.22930869734972 2.075219820698318 0 0 0
3191 1 33.287374071719775 42.49046995235606 2.2795944926866314 0 0 0
3741 1 37.19088637404043 42.59748969446844 0.9307840885251288 0 0 0
1056 1 39.73184284564153 43.913741480884696 0.6325128464395287 0 0 0
3735 1 44.16005219023815 43.624492900241286 0.9365429108320666 0 0 0
1824 1 41.889338798156544 42.42526053171602 2.0301941616877994 0 0 0
2849 1 45.69723918203176 42.037077003167 -0.5844306302819473 0 0 0
2554 1 0.9108324779032848 44.751488128596336 2.1139188462991565 1 0 0
746 1 2.739792848278678 46.73206159657375 1.5289553342062336 1 0 0
370 1 4.989555237483346 45.016817107151034 2.1308371651300697 0 0 1
1498 1 7.3191811658476045 45.0470343193531 0.48996825573096503 0 0 0
70 1 8.568317034240813 47.543767981537876 0.4407663343135739 0 -1 0
2643 1 11.46901147487473 47.629702153796565 -0.1263614705006233 0 0 0
3799 1 12.875237231172832 46.91362123613288 2.2318528163639813 0 0 0
3305 1 15.741096644856537 46.54186543027941 1.8062366364699494 0 0 0
3901 1 24.132782183473214 47.074078158492505 1.5207408175079915 0 0 0
1998 1 29.421119812456364 46.31422621256793 1.2161700096051011 0 0 1
2505 1 34.3613648481908 46.098461994394626 0.13050848120506153 0 0 1
4160 1 41.586089453461234 46.90140259766167 0.2566111527774637 0 0 0
3091 1 43.584285764715666 45.48733038353903 50.360348302372444 0 0 -1
3084 1 49.92552487649699 44.82691276832231 1.115208917420325 0 0 0
796 1 48.41584417278278 47.00783507094388 0.16498040071051956 0 0 0
2338 1 0.7950620077925477 49.87808739273449 0.10084309769503574 1 -1 0
2312 1 5.601491434774548 50.36912583161105 0.26251203258781985 1 -1 0
3683 1 7.595404105840755 49.59144248124975 50.19260790893428 0 -1 -1
2747 1 13.585725266794434 49.52265867320676 -0.5556400064247903 0 -1 1
1642 1 15.98215168303475 48.150253687610174 -0.43388355731761663 0 0 1
2017 1 18.429919796404945 49.94657598479488 50.40991695906419 0 0 -1
3520 1 21.489546461450637 47.058623053240105 0.9909511493535623 0 -1 0
3380 1 22.238430403180615 50.1140122554848 0.474025786045418 0 0 0
224 1 25.89287124528275 48.988820817358686 2.436351051707741 0 -1 0
1996 1 28.003179482350145 48.73782692171311 0.7628323833697412 0 -1 1
3752 1 30.28117014439391 50.46563142613157 0.4956555249742651 0 -1 0
3975 1 34.61308925982475 48.40994454962595 1.3303607551960979 0 -1 0
3434 1 37.41267045519927 48.73687730074219 1.7724068439414435 0 -1 0
2051 1 38.938308490846744 47.81313590497443 -0.5480914635298475 0 -1 0
1696 1 42.927699376600856 48.98528719416953 1.0952633080053047 0 -1 0
1568 1 0.8834109765410953 0.7829839920076287 3.903728418288825 1 0 0
2062 1 5.069700210957487 0.09101046978640659 4.771527226877667 1 1 0
3931 1 5.134098154612714 2.077707595317773 2.8978398284037934 1 0 0
3597 1 9.643977275668218 1.3639910010276162 3.4574605775427614 0 0 1
228 1 9.330745150042429 -0.36217223325027703 5.583783068296435 0 0 0
2418 1 14.310036214686725 -0.6244848516860717 3.8311209173098497 0 1 0
4023 1 22.312289790626327 0.4606356012820134 4.133551823550641 0 0 0
2934 1 24.077649189902168 2.499266853521052 4.716245699493641 0 0 0
2760 1 26.42469326041885 0.8032025661100426 4.210897017659959 0 0 0
1096 1 29.06329704304145 2.1891154976426854 3.7659080610688447 0 0 0
1015 1 33.03323219171901 0.027788011315563854 4.402419305557728 0 0 0
817 1 38.15419458707959 -0.05649744032465298 2.6102361273237755 0 0 0
2191 1 43.4980908406673 1.0418778384811782 4.98618953318741 0 0 0
1680 1 45.375995568071666 50.57993203110856 4.618322567347767 0 -1 0
1905 1 48.92026088741197 1.1632946568505373 2.480725782354546 0 1 0
769 1 50.033684857976766 0.7184963747493749 4.99093234109065 -1 0 0
1510 1 0.851971772872522 3.4751437827695355 3.3927809280082037 0 0 0
2777 1 -0.5651172184281502 4.8210206281160275 5.44296812118876 0 0 0
3039 1 3.5329453333443697 3.9063105199768797 4.251531779355304 1 0 0
1464 1 7.510859194206162 3.29453292569947 3.0715474905888995 0 1 0
524 1 13.521498130417823 4.396230827566669 2.5794335569085414 0 0 0
2217 1 11.7801847517322 3.139722524145904 4.477260189742757 0 0 0
138 1 15.782629688646828 5.382614049626646 3.5441208421132027 0 0 0
3320 1 18.082146079574834 3.7986961390074576 3.5837829819638767 0 0 0
3381 1 20.76802600511808 3.6265123502506826 2.415693686549182 0 0 0
3040 1 23.227493345151878 4.838459657047502 3.2347375395233606 0 0 1
447 1 28.347014813898284 4.9147902281056846 3.7527147674369132 0 0 1
277 1 33.964112618122584 2.472026304709902 3.4170661255810355 0 0 0
2295 1 34.55522232226012 4.205925996835286 5.325863975711963 0 0 0
151 1 39.794432122643876 3.567893509842791 3.3672422728664886 0 1 0
2890 1 45.365463318046935 3.1250638165460494 4.961962894056652 0 0 0
105 1 47.21644295013969 3.372584696198775 2.92849317177075 0 0 0
2900 1 4.430500778379969 6.718585191846412 3.4833520997243363 0 1 0
3373 1 7.039277133204648 6.0133941518638485 2.5718918561826407 0 0 1
2450 1 9.302355786794232 6.954595063778854 4.092181619898053 0 0 1
4129 1 11.570536792173508 7.794503536070897 2.7455340180329717 0 0 0
68 1 15.082916446850112 6.896056639536391 5.814326955903425 0 0 0
2404 1 19.58089957210822 6.181047029119067 4.9607516571062105 0 0 0
1867 1 22.378346371119676 6.934105954881143 4.871619741086344 0 0 1
9 1 30.383924291362824 6.6928487639268734 3.594725477369529 0 0 0
4145 1 34.16746401713287 6.27344671529389 3.6603039909759536 0 0 0
3916 1 37.616927776336965 7.264492431415269 4.49681375236293 0 0 0
812 1 40.11170158647634 7.746284340373636 3.5321424287062984 0 0 0
1999 1 41.503161645541574 5.586790173519664 2.693795682878678 0 0 0
2170 1 43.37202066406929 5.251222773112683 4.993828174512944 0 1 0
2115 1 44.96482682198878 7.3256811400533515 5.4016275101802025 0 0 0
2205 1 48.88309668212559 5.576150726705244 4.021570123195651 -1 0 0
1640 1 48.11844299132967 7.927210372540049 4.96938161881274 0 0 0
835 1 0.4769650760595916 10.710681463790962 3.8848680489355827 0 0 0
3120 1 13.59134001072311 8.587565003510464 4.402530801690493 0 0 0
2176 1 15.304759317821151 9.614748707056123 2.550547735683948 0 0 0
3962 1 23.054668122317167 9.213692114608394 3.3321859629982935 0 0 0
3052 1 23.70397646027277 11.240784553223303 4.783275118755589 0 0 0
2838 1 29.35329690674874 8.667109224164594 2.1271194506477196 0 0 0
1982 1 27.3016598237282 9.539560505477528 3.5828672160118265 0 0 0
3959 1 32.656243079879616 11.299172151104552 4.290607636609967 0 0 0
2560 1 33.64126078464279 8.671203227243831 5.0626642323895465 0 0 0
2589 1 36.200244586427 9.4133254351491 4.288732460364164 0 0 0
2597 1 40.312122124355476 10.58450383634816 2.484458614898321 0 0 1
1248 1 46.70968473120726 9.180004962371742 2.6887376315640186 0 0 0
3076 1 0.3371329710804689 13.530074398273962 3.8775825816308114 1 0 0
2369 1 8.01289239240875 11.519527358010551 3.8716705307410377 0 0 0
862 1 10.680459865735115 12.50591125669019 2.8758636202536265 0 0 0
1936 1 13.04406681613336 13.5070585699812 4.417175485249554 0 0 0
3021 1 17.486698653150523 11.498629906482202 2.906790297205038 0 0 1
3391 1 20.210681452881005 12.008183413779033 2.7583776298839813 0 0 1
80 1 22.055771653982692 13.181383624847893 4.043522235894442 0 0 1
3821 1 26.22465824783906 12.24703524943467 3.8577247093027998 0 0 0
2981 1 34.40481347189145 13.289178756373056 3.2040601622468667 0 0 0
1740 1 36.29660845361617 13.436863277878318 5.145197953350951 0 0 0
1974 1 41.650394445259344 11.941059516545222 4.560807713273379 0 0 0
3093 1 43.972497393197884 11.639427417521755 5.419094307344995 0 0 0
3284 1 45.616500211635554 11.622886141768248 3.111354176941766 0 0 0
2381 1 47.34513165889117 13.932348955552708 2.6001436029821727 -1 0 1
43 1 2.7487745299618105 14.688007905680164 3.4936670288215366 1 0 0
198 1 10.185031205912598 17.70182932173228 4.530976058718438 0 0 0
3437 1 15.196741338858756 14.879974934168146 3.539340064283719 0 0 1
2384 1 22.853824194580756 15.54109617237522 2.8692508547288305 0 0 1
63 1 29.486984186312906 14.879090707670773 3.358100454490164 0 0 0
11 1 30.818667622526416 17.3752801705781 3.2658835224339446 0 0 0
2898 1 38.227608631445165 14.61799164327193 3.672637445598138 0 0 0
2164 1 42.66476071845633 16.18715019305928 4.351086140162036 0 0 0
1808 1 46.591202648193274 16.327357464930913 3.5059820787719067 0 0 0
119 1 1.5195183562516963 18.48023975979887 5.811054346414438 0 0 0
810 1 2.9438825949142773 17.53295452985172 3.570948044912111 0 0 0
213 1 5.763566842583091 18.146423891270533 3.8086273979267453 0 0 0
3185 1 8.95041167676326 20.27715556632776 4.367292821535124 0 0 0
2079 1 14.261399002485147 18.951193940743472 5.263945263719238 0 0 0
2156 1 14.627620128448298 17.581863902264054 2.800616339793973 0 0 0
1189 1 18.78188925898257 19.15615855286823 2.7970480523479386 0 0 1
1345 1 18.448639135527372 17.35207784758416 5.222460755776335 0 0 1
1348 1 23.558273864615323 18.16000137345674 3.6324281389463717 0 0 1
2879 1 26.17709803531521 17.71205915299767 4.029914570606572 0 0 0
361 1 27.797566659092304 19.95436650656467 4.410420498838484 0 0 0
4007 1 29.44198842560379 19.65220571449576 2.391267079077018 0 0 0
1059 1 35.155549982334215 18.14855519153965 3.7153408401142514 0 0 0
1983 1 37.824051716127094 17.30035797674879 3.1533891678739114 0 0 0
1223 1 42.2829644725954 18.910151090966597 3.9349308647790666 0 0 0
1214 1 49.360649043539546 17.489995890053102 3.1782760866388893 -1 0 0
341 1 48.10029060311051 20.107154640149115 2.0485599595652944 0 0 0
3079 1 0.509681919626557 22.031368058020725 3.607134344123237 0 0 0
954 1 6.193847830361625 20.65790994531756 4.562482291798985 0 0 0
1135 1 5.294591318826705 22.258626328304754 2.528579333196803 0 0 0
1767 1 13.240879049132728 22.817179730338996 3.0461934606246936 0 0 0
3630 1 13.211582270734933 21.52720008172448 5.6155633180210565 0 0 0
3747 1 18.454069149589753 21.91856765588348 3.0438369009289885 0 0 1
4027 1 22.742788632872603 22.549158839198462 2.2276478050561987 0 0 0
527 1 23.71799470486122 22.627854603890942 4.795149161565092 0 0 0
3166 1 26.526637913954584 22.283557892592007 4.109366659789596 0 0 0
1912 1 32.75514675655917 21.57716117358678 4.256146905077906 0 0 0
172 1 35.276463839002524 20.91296022048405 4.24525848245284 0 0 0
1532 1 37.21402284597124 21.53531859327038 2.436118176569695 0 0 0
1129 1 39.75587657264717 22.298616123183546 3.4123320954029976 0 0 0
975 1 45.35975261079268 20.143456425271935 2.6363943987976852 0 0 0
3532 1 49.3307149910206 22.124072319345785 3.6432083504049038 -1 0 0
1298 1 1.7743324089137187 24.78154666155961 3.184737015204717 0 0 0
1275 1 4.65503881123078 24.738955491126003 3.630926830565592 0 0 0
3215 1 9.24793033073744 25.345784779020693 3.2792636369833303 0 0 0
377 1 16.027504720717676 23.50845231703976 2.916481466172486 0 0 1
3492 1 16.404192082003004 25.822827113817205 4.310590437600897 0 0 0
1725 1 20.379972604069735 23.98268841312496 2.258871844014502 0 0 0
2484 1 20.33124032405977 26.158740001367015 4.0934214115874505 0 0 0
4099 1 32.22632084410577 24.43771792037541 4.822542454979088 0 0 0
325 1 32.97535297145226 25.79541755946939 2.685930893783895 0 0 0
72 1 35.860790232955296 26.12982431253076 2.6847671014826 0 0 0
678 1 37.33942339740041 26.184989291833777 4.962865089259876 0 0 0
2882 1 39.75093652133548 25.243913647837747 3.527347450892515 0 0 0
2814 1 41.531525980014834 26.596560271658955 4.932890269651821 0 0 0
3971 1 45.657447277521584 24.557780847772325 3.808018867553084 0 0 0
42 1 48.295794692913965 24.53247420431325 3.491601001452561 0 0 0
1007 1 1.2461701602844675 28.805033371271207 3.7442542964769787 0 0 0
2839 1 5.2192021226692775 26.795001438382183 1.8573969643347357 0 0 1
2358 1 7.909838365099175 27.528678309111154 2.0578060299109784 0 0 0
2782 1 12.4305538066751 28.03452988247034 3.8258472733927293 0 0 0
3506 1 14.962136965722259 27.902892184835785 2.919765992713004 0 0 0
2786 1 16.922652456425766 29.22566212155046 4.488084174059357 0 0 0
3071 1 19.608010246935102 28.722196542214135 4.133149554381185 0 0 0
1632 1 22.995474495327176 26.720318438220275 3.999633727404748 0 0 0
2829 1 23.499218794305566 29.543905311545085 4.910406899078878 0 0 0
2784 1 29.25365765141595 26.97287911069953 3.3606846211368815 0 0 0
2049 1 44.15700524990975 26.744987532079975 3.5790802554126913 0 0 0
2846 1 48.31851182636415 28.57389352054453 4.834977939929526 -1 0 0
3404 1 0.3426261897235048 31.10221044694767 4.847929804573945 0 0 0
1127 1 4.00529646627273 29.061160817449082 3.3582020421683536 0 0 0
69 1 8.389833613077835 30.08352935892039 3.0589996401312893 0 0 0
2074 1 16.481998017785383 31.918770770732657 4.244475038625592 0 0 0
1694 1 24.08188005222252 31.676552874511927 3.190087459015482 0 0 0
108 1 28.00952396720185 29.422193409403597 3.8345122465873995 0 0 1
3134 1 30.28999772883893 30.63545369527848 4.73779110986138 0 0 0
3802 1 32.64926319059673 30.42034941671837 2.859908000348925 0 0 0
2082 1 35.08418356409387 30.10964762285078 3.8170099183363817 0 0 0
4118 1 35.91669101588128 32.498909559516704 2.86415655040154 0 0 0
2002 1 38.459607310343586 32.293289275901465 4.134557930382611 0 0 0
3104 1 40.118423637945746 30.331629329521267 3.4541963711073445 0 0 0
2684 1 3.8218522002061617 33.061592119536485 3.231736871837293 0 0 0
4 1 5.77136481872303 34.97507897762574 3.56852891150257 0 0 0
918 1 8.037134623418783 34.30949866560408 2.1084963384903124 0 0 0
3003 1 9.754086727064227 34.5129701231773 4.426199333594569 0 0 0
4107 1 11.972815779109123 32.55401820283304 3.6973909666253837 0 0 1
1665 1 18.288804710873073 34.1660680521881 4.404445522845606 0 0 0
1563 1 21.122611329774927 33.30018422786683 4.622337872568797 0 0 1
1424 1 23.64233577931506 34.891447467512464 5.307161647411767 0 0 0
707 1 25.42705156977032 34.18145066739232 3.423148440903244 0 0 0
4016 1 28.057299700631134 34.54183888778221 3.5563699663551054 0 0 1
4157 1 29.95210900936849 33.33842971831062 5.303087573487685 0 0 1
8 1 32.10830081916075 34.78952026589106 3.9962728804002934 0 0 0
121 1 34.842508011568576 34.70640275679303 4.191918297674646 0 0 0
3187 1 39.66388067450824 34.62968250028639 3.458205867673171 0 0 0
2557 1 44.00937415815674 32.81804433526742 3.704562606194737 0 0 0
1702 1 42.3763582147003 35.15385782640751 4.289053611053051 0 0 0
2672 1 46.16897358172063 34.55017450995425 3.277082017509376 -1 0 1
3474 1 48.48810662574073 33.95996733127973 1.886762112206842 0 0 1
3723 1 -0.558382870118 33.287345722804346 3.178216743318537 0 0 0
1932 1 0.8260085009016243 37.19892576738082 3.694572484919605 0 0 0
3472 1 4.858819216338328 37.46677442830692 2.6206827237310137 0 0 0
1689 1 3.2500534379636723 38.17494437034971 4.677398407310461 0 0 0
1013 1 12.148586702818763 35.96892656877978 3.6891629891622015 0 0 0
3872 1 21.982219701771346 37.03421736269375 4.6703694602425365 0 0 0
3295 1 27.827900623922364 37.57053225068294 3.784283738520144 0 0 0
976 1 31.935953601575278 37.503902136863346 3.517937264411146 0 0 0