
# Create simulation box of size 50 x 50 x 50 Angstrom
#
lattice	            sc 1
Lattice spacing in x,y,z = 1.0000000 1.0000000 1.0000000
region 	            all block 0 50 0 50 0 50 units box
create_box          1 all
Created orthogonal box = (0.0000000 0.0000000 0.0000000) to (50.000000 50.000000 50.000000)
  1 by 1 by 1 MPI processor grid

# fill box with 4175 randomly distributed atoms
#
create_atoms        1 random 4175 63782 all
Created 4175 atoms
  create_atoms CPU = 0.000 seconds
mass                1 18.015

# Define potential
#
pair_style          sw
pair_coeff          * * ML_mW.sw mW
Reading sw potential file ML_mW.sw with DATE: 2019-02-27

# Run minimization
#
minimize            1.0e-8 1.0e-8 10000 1000
WARNING: Using 'neigh_modify every 1 delay 0 check yes' setting during minimization (../min.cpp:187)
Neighbor list info ...
  update every 1 steps, delay 0 steps, check yes
  max neighbors/atom: 2000, page size: 100000
  master list distance cutoff = 6.0032907
  ghost atom cutoff = 6.0032907
  binsize = 3.0016454, bins = 17 17 17
  1 neighbor lists, perpetual/occasional/extra = 1 0 0
  (1) pair sw, perpetual
      attributes: full, newton on
      pair build: full/bin/atomonly
      stencil: full/bin/3d
      bin: standard
Per MPI rank memory allocation (min/avg/max) = 4.759 | 4.759 | 4.759 Mbytes
Step Temp E_pair E_mol TotEng Press 
       0            0    7792709.3            0    7792709.3    5898794.3 
     631            0   -45138.185            0   -45138.185   -130.57836 
Loop time of 7.37946 on 1 procs for 631 steps with 4175 atoms

100.0% CPU use with 1 MPI tasks x no OpenMP threads

Minimization stats:
  Stopping criterion = max force evaluations
  Energy initial, next-to-last, final = 
      7792709.32924456  -45137.9104522973  -45138.1854596308
  Force two-norm initial, final = 2.0191930e+08 4.4741522
  Force max component initial, final = 1.0948746e+08 1.0165594
  Final line search alpha, max atom move = 0.045182713 0.045930911
  Iterations, force evaluations = 631 1000

MPI task timing breakdown:
Section |  min time  |  avg time  |  max time  |%varavg| %total
---------------------------------------------------------------
Pair    | 7.1157     | 7.1157     | 7.1157     |   0.0 | 96.43
Neigh   | 0.16702    | 0.16702    | 0.16702    |   0.0 |  2.26
Comm    | 0.019337   | 0.019337   | 0.019337   |   0.0 |  0.26
Output  | 0          | 0          | 0          |   0.0 |  0.00
Modify  | 0          | 0          | 0          |   0.0 |  0.00
Other   |            | 0.07738    |            |       |  1.05

Nlocal:        4175.00 ave        4175 max        4175 min
Histogram: 1 0 0 0 0 0 0 0 0 0
Nghost:        3825.00 ave        3825 max        3825 min
Histogram: 1 0 0 0 0 0 0 0 0 0
Neighs:        0.00000 ave           0 max           0 min
Histogram: 1 0 0 0 0 0 0 0 0 0
FullNghs:     119936.0 ave      119936 max      119936 min
Histogram: 1 0 0 0 0 0 0 0 0 0

Total # of neighbors = 119936
Ave neighs/atom = 28.727186
Neighbor list builds = 26
Dangerous builds = 0

# Add velocity/set timestep
#
velocity            all create ${TEMP} 120598 rot yes dist gaussian
velocity            all create 205 120598 rot yes dist gaussian
timestep            5.0

# Define output
#
compute	            1 all msd
thermo	            100
thermo_style        custom step temp press vol etotal ke pe c_1[4] density

# Neighbor lists
#
neigh_modify        delay 0 every 1 check yes

# Set fixes
#
fix                 1 all momentum 10 linear 1 1 1 rescale
fix                 2 all nve
fix                 3 all temp/csvr ${TEMP} ${TEMP} 500.0 928347
fix                 3 all temp/csvr 205 ${TEMP} 500.0 928347
fix                 3 all temp/csvr 205 205 500.0 928347
fix                 4 all press/berendsen iso ${PRES} ${PRES} 1000.0 modulus 20000
fix                 4 all press/berendsen iso -600 ${PRES} 1000.0 modulus 20000
fix                 4 all press/berendsen iso -600 -600 1000.0 modulus 20000

# Run 0.5 ns equilibration
#
dump                1 all custom 1000 eq.${NAME}.dump id type x y z vx vy vz
dump                1 all custom 1000 eq.liquid_density_MLmW.dump id type x y z vx vy vz
run                 100000
Per MPI rank memory allocation (min/avg/max) = 4.009 | 4.009 | 4.009 Mbytes
Step Temp Press Volume TotEng KinEng PotEng c_1[4] Density 
     631          205    802.16775       125000   -42587.596    2550.5897   -45138.185            0   0.99914793 
     700    132.55369   -499.03391    126031.68   -41804.883    1649.2199   -43454.103   0.22850845   0.99096905 
     800    162.94786   -570.20565    126001.59   -41096.363    2027.3812   -43123.745   0.56127346   0.99120565 
     900    180.33298   -708.90814    126199.83   -40674.661    2243.6852   -42918.347   0.90191708   0.98964862 
    1000    187.44974    -558.5947    126356.22   -40423.056    2332.2312   -42755.288     1.277828   0.98842381 
    1100    196.32884      -318.45     126581.7   -40254.877     2442.704   -42697.581    1.5523807   0.98666306 
    1200    195.06326   -355.69207    126691.79   -40286.824    2426.9579   -42713.782    1.8934612   0.98580569 
    1300    200.26634    -597.6454    126889.13   -40287.178     2491.694   -42778.872    2.1693682   0.98427258 
    1400    196.81207   -541.12993    126888.29   -40318.984    2448.7164     -42767.7    2.5016687   0.98427909 
    1500    205.72252   -538.12249    126907.22   -40289.341    2559.5793    -42848.92    2.8197156   0.98413231 
    1600    208.80769   -610.44492    127132.83    -40233.97    2597.9646   -42831.935     3.234856   0.98238587 
    1700    207.30647   -573.14602    127195.08   -40278.562    2579.2866   -42857.848    3.4675954   0.98190503 
    1800    202.66565   -392.54607    127317.02   -40376.672     2521.546   -42898.218    3.6894382    0.9809646 
    1900    207.11146   -527.33241    127411.27   -40396.047    2576.8603   -42972.907    3.9649928   0.98023893 
    2000    204.43266   -145.61365    127853.09   -40359.716    2543.5309   -42903.247    4.2647282    0.9768516 
    2100    208.38143   -462.95459    128368.28   -40330.986    2592.6611   -42923.647    4.5746135   0.97293109 
    2200    208.40742   -543.00681    128563.48   -40377.135    2592.9845    -42970.12    4.8056657   0.97145387 
    2300    207.50324   -726.61257    128402.84     -40384.2    2581.7348   -42965.935     5.025239   0.97266924 
    2400    209.00805    -789.4917    128530.26   -40427.542    2600.4575   -43027.999    5.2826818   0.97170494 
    2500    209.78314   -512.44637    128636.35   -40406.188    2610.1011   -43016.289    5.5044985   0.97090357 
    2600    213.86828   -694.10233    128688.53   -40390.555     2660.928   -43051.483    5.7732444   0.97050987 
    2700    209.52356   -474.75188    128733.03   -40419.269    2606.8714   -43026.141    6.0072056   0.97017444 
    2800    209.53019   -527.50905     128748.3   -40414.406     2606.954    -43021.36    6.2243075   0.97005938 
    2900     211.1638   -666.15832    129084.82   -40496.348    2627.2791   -43123.627    6.4234487   0.96753044 
    3000    210.05433   -566.58726     129157.1   -40551.397    2613.4752   -43164.872    6.6071074   0.96698894 
    3100    210.28296   -651.02868    129325.46   -40529.307    2616.3198   -43145.627     6.820782   0.96573008 
    3200    207.01105   -429.88159    129528.66   -40586.072     2575.611   -43161.683    7.0156081   0.96421508 
    3300    207.23863   -381.75039    129727.62   -40599.815    2578.4426   -43178.258    7.1551733   0.96273628 
    3400    208.86663   -377.24711    129927.09   -40633.819    2598.6979   -43232.517    7.3301705   0.96125828 
    3500    206.78186   -457.76121    129975.85    -40678.76    2572.7595    -43251.52    7.5222052    0.9608977 
    3600    203.57525   -584.89144    130181.96   -40749.944    2532.8632   -43282.807     7.766664   0.95937632 
    3700    207.08756   -559.66565    130413.83   -40818.466    2576.5629   -43395.028    7.8604372   0.95767063 
    3800    205.56798   -603.07345    130518.94   -40797.502    2557.6565   -43355.158    8.0352627    0.9568994 
    3900    206.77019   -607.44286    130517.96   -40856.961    2572.6142   -43429.575    8.2454545   0.95690655 
    4000    205.68091   -562.95693    130687.55   -40872.381    2559.0615   -43431.442     8.282828   0.95566482 
    4100    203.09623    -580.4395     130882.6   -40880.857    2526.9032   -43407.761    8.4170681   0.95424061 
    4200    206.67488   -426.32335    130968.58   -40920.022    2571.4284    -43491.45    8.3637479   0.95361414 
    4300    206.87392   -568.17831    131001.61   -40932.711    2573.9049   -43506.616    8.5131121   0.95337373 
    4400    205.96638   -409.16005    130960.61    -40944.77    2562.6133   -43507.384    8.5983063   0.95367217 
    4500    203.63092   -569.60222    130950.82   -40938.972    2533.5557   -43472.528     8.776978   0.95374351 
    4600    202.86624   -639.06257    131105.76   -41014.956    2524.0417   -43538.998    8.9554681   0.95261635 
    4700    206.67569   -569.48516    131157.47   -40939.153    2571.4385   -43510.592    9.0143953   0.95224077 
    4800    202.87201    -588.1651    131129.94   -41006.134    2524.1135   -43530.247    9.0484317   0.95244071 
    4900    207.43687   -460.60369    131143.77   -40906.038    2580.9091   -43486.947    9.2204912   0.95234028 
    5000    206.74217   -320.03868    131280.43   -40874.053    2572.2656   -43446.319    9.3555687    0.9513489 
    5100    207.32601    -494.8334    131527.69   -40945.173    2579.5298   -43524.703    9.5240747   0.94956044 
    5200    205.64849   -570.09961    131582.08   -41007.937    2558.6581   -43566.595    9.5918502    0.9491679 
    5300    208.45424   -561.44734    131682.76   -40979.323    2593.5671   -43572.891     9.711741   0.94844225 
    5400    203.99193   -571.82849    131896.09   -41038.336    2538.0474   -43576.384    9.8689167   0.94690823 
    5500    202.33654     -499.054    131975.74   -41041.948    2517.4512   -43559.399    9.9753459   0.94633671 
    5600      206.457   -431.53022    132094.11   -41062.245    2568.7176   -43630.962    9.9816205   0.94548873 
    5700    203.48276   -735.11191    132123.89   -41068.245    2531.7124   -43599.957    10.035334   0.94527559 
    5800    205.96124   -498.17702     132206.1    -41090.96    2562.5493    -43653.51     10.03673   0.94468782 
    5900    202.50909   -548.14331    132400.38   -41138.742    2519.5981    -43658.34    10.157566   0.94330164 
    6000    204.48092   -580.86599    132355.71    -41151.31    2544.1314   -43695.441    10.210946   0.94361999 
    6100    209.84795   -512.72606    132365.94   -41117.258    2610.9075   -43728.166    10.346737   0.94354704 
    6200    203.54303   -496.15836    132419.46   -41181.236    2532.4623   -43713.698    10.425969   0.94316571 
    6300    205.05122   -660.43091    132426.12   -41158.089     2551.227   -43709.316    10.410723   0.94311822 
    6400    203.76717    -492.9063    132389.19   -41147.515     2535.251   -43682.766    10.429557   0.94338131 
    6500    208.74433   -496.98132    132576.46   -41102.651    2597.1763   -43699.827    10.507879   0.94204877 
    6600    206.34684   -459.72121    132676.36   -41186.319     2567.347   -43753.666    10.484544   0.94133947 
    6700    201.88721    -668.5287    132642.65   -41255.019    2511.8607    -43766.88    10.653617   0.94157868 
    6800    204.53297   -560.67477    132638.07   -41194.324     2544.779   -43739.103    10.802058   0.94161122 
    6900    208.03542   -702.88543    132714.41   -41148.753    2588.3561   -43737.109    10.945865   0.94106958 
    7000    207.71897   -621.85277    132679.33   -41153.484    2584.4189   -43737.903    10.865341   0.94131835 
    7100    207.90415    -470.0041    132756.06   -41176.744    2586.7229   -43763.467    10.945082   0.94077433 
    7200     202.1597    -754.5733    132622.68    -41232.84     2515.251   -43748.091    10.988491   0.94172046 
    7300    201.52749   -681.21661    132483.93   -41292.709    2507.3852   -43800.095    10.991432   0.94270672 
    7400     207.6386   -606.39551    132615.61   -41329.902    2583.4189   -43913.321    11.063232   0.94177067 
    7500    202.21715   -601.55337     132698.8   -41310.514    2515.9657   -43826.479     11.25779   0.94118029 
    7600    198.93443   -468.99773    132771.19    -41372.78    2475.1225   -43847.902    11.250991   0.94066709 
    7700    204.34592   -574.28738    132655.32   -41293.665    2542.4517   -43836.116    11.275833   0.94148873 
    7800    205.94578   -584.00407    132640.61   -41286.954     2562.357   -43849.311    11.458945   0.94159317 
    7900    203.98413   -541.18327    132560.71   -41351.335    2537.9504   -43889.285    11.498726   0.94216071 
    8000    206.01813   -656.47282    132674.25   -41331.198    2563.2573   -43894.455     11.52352   0.94135441 
    8100    203.24817   -659.25335    132589.71   -41402.638    2528.7936   -43931.432     11.59174   0.94195466 
    8200    201.30142   -593.23793    132569.45   -41417.194    2504.5723   -43921.766    11.623356    0.9420986 
    8300    202.50446   -601.21451    132662.61     -41412.6    2519.5405    -43932.14    11.597472     0.941437 
    8400     205.8695   -680.51651    132850.34   -41369.092     2561.408     -43930.5    11.681641   0.94010668 
    8500    205.44485   -571.88891    132903.14   -41306.996    2556.1245   -43863.121    11.692086   0.93973319 
    8600    205.80624    -602.2443    132879.94   -41342.254    2560.6209   -43902.875    11.679397   0.93989727 
    8700     205.1093   -629.39149    132907.45   -41321.412    2551.9497   -43873.362    11.782322   0.93970272 
    8800     203.8357   -553.57078    132926.58   -41356.459    2536.1036   -43892.563    11.725918   0.93956747 
    8900    201.97248   -658.48284    132931.84   -41422.921    2512.9216   -43935.842    11.815057   0.93953031 
    9000    205.13552   -666.81553    133019.07   -41394.537    2552.2759   -43946.813    11.882378   0.93891416 
    9100    200.56678   -622.71807    133030.36    -41434.58    2495.4321   -43930.012     11.89094    0.9388345 
    9200    204.25705   -587.07777    133031.64   -41353.742    2541.3461   -43895.088    11.956921   0.93882545 
    9300    204.56329   -579.32648    132934.53   -41404.828    2545.1562   -43949.985    11.977031   0.93951126 
    9400    203.50633   -509.33543    132930.07    -41393.91    2532.0056   -43925.916      12.0742   0.93954278 
    9500    203.42856   -688.77542    132803.64   -41409.983     2531.038   -43941.021    12.158894   0.94043727 
    9600    204.95752   -497.43262    132760.28   -41386.664    2550.0613   -43936.725    12.180569   0.94074444 
    9700    207.94939   -593.64835    132817.52   -41327.838    2587.2858   -43915.124    12.241613   0.94033898 
    9800    204.42469   -480.19025    132916.03   -41400.214    2543.4318   -43943.646    12.273179   0.93964208 
    9900    203.53891   -612.21838    132970.22   -41462.124     2532.411   -43994.535     12.28979   0.93925912 
   10000    200.81244   -592.61482     132964.1   -41463.609    2498.4885   -43962.097    12.371675   0.93930237 
   10100      203.417   -525.04651    133166.88   -41427.155    2530.8942   -43958.049    12.470695     0.937872 
   10200    199.96155   -801.62993    133074.11   -41484.846    2487.9018   -43972.748    12.673254   0.93852583 
   10300    202.96833   -573.71768    132976.11   -41477.292    2525.3119   -44002.604    12.506244   0.93921754 
   10400    205.14734   -530.64558    133057.08   -41427.769    2552.4229   -43980.192    12.456063   0.93864597 
   10500    206.75291   -434.12244    133089.77   -41406.912    2572.3992   -43979.311    12.459443    0.9384154 
   10600    206.56921   -701.54916    133133.97   -41372.239    2570.1136   -43942.353    12.571599   0.93810383 
   10700    205.79282   -572.10412    133090.28    -41360.89    2560.4539   -43921.344    12.613898   0.93841184 
   10800    209.84593   -574.59692     133130.7   -41366.276    2610.8824   -43977.158    12.786841   0.93812689 
   10900    206.01097   -504.24793     133103.6   -41403.668    2563.1681   -43966.836    12.841008   0.93831794 
   11000     207.3124   -562.19102    133328.05   -41396.215    2579.3604   -43975.576    12.888624   0.93673828 
   11100     203.6113   -553.57512    133245.34   -41428.202    2533.3116   -43961.513    12.844985   0.93731977 
   11200    208.48371   -670.99113    133384.12   -41437.781    2593.9337   -44031.715    12.749143   0.93634451 
   11300    207.23143   -584.90423    133479.86   -41454.971     2578.353   -44033.324    12.878064    0.9356729 
   11400    205.78563   -667.46443     133370.5   -41463.117    2560.3644   -44023.482    13.044236   0.93644017 
   11500    207.01809   -544.00825    133518.98   -41487.921    2575.6986    -44063.62    12.990567   0.93539878 
   11600    203.61695   -567.04516     133603.5   -41498.179    2533.3819   -44031.561    13.014982   0.93480703 
   11700    209.27088   -630.06665     133415.3   -41414.962    2603.7276   -44018.689     13.04038   0.93612569 
   11800      209.244   -592.39246    133452.87   -41487.252    2603.3932   -44090.646    13.247493   0.93586217 
   11900     206.2684   -718.79866    133368.97   -41509.356     2566.371   -44075.727    13.183154   0.93645093 
   12000     201.9517    -517.7302     133281.8   -41500.741    2512.6631   -44013.404    13.238273   0.93706337 
   12100    203.89067    -743.7192    133323.31   -41461.612    2536.7875   -43998.399    13.321026    0.9367716 
   12200    205.36589   -771.44273    133271.34    -41468.73    2555.1421   -44023.872    13.451239   0.93713688 
   12300    204.96108   -635.39595    133423.97   -41484.315    2550.1055   -44034.421    13.380448   0.93606486 
   12400    205.23093   -513.64859    133491.63   -41464.249    2553.4629   -44017.712    13.402802   0.93559042 
   12500    202.03203   -610.93593    133626.14   -41548.712    2513.6626   -44062.375    13.411197   0.93464866 
   12600    201.07687   -548.84241    133713.59   -41481.631    2501.7785    -43983.41    13.522103   0.93403737 
   12700    203.36718    -724.0251    133717.49    -41471.71    2530.2743   -44001.984    13.611758   0.93401014 
   12800    205.68759   -584.32753    133641.43   -41441.698    2559.1446   -44000.843    13.598222   0.93454169 
   12900     205.2347   -581.14588    133620.55   -41481.484    2553.5098   -44034.994     13.61843   0.93468772 
   13000    212.19634    -537.8493     133753.2   -41436.931    2640.1259   -44077.057    13.687077   0.93376075 
   13100    205.30803   -367.71927     133785.4    -41450.63    2554.4222   -44005.052    13.742253   0.93353605 
   13200    212.82747   -642.10421     133782.6   -41378.241    2647.9783   -44026.219    13.650442   0.93355556 
   13300    206.25399   -603.12828    133719.08   -41420.503    2566.1917   -43986.695    13.594242   0.93399903 
   13400    203.99899   -558.30425    133819.17   -41483.954    2538.1353    -44022.09     13.82246   0.93330043 
   13500    203.21854   -630.97133    133700.83   -41520.145     2528.425    -44048.57     13.83044   0.93412655 
   13600    200.73522   -520.21425    133673.61   -41531.146    2497.5278   -44028.674    13.911059   0.93431672 
   13700    205.59956    -614.2256     133523.5   -41533.192    2558.0494   -44091.241    13.785827   0.93536714 
   13800    205.08628   -673.20788    133580.09   -41450.787    2551.6632   -44002.451    13.764236   0.93497089 
   13900     203.0712   -637.81283    133454.37   -41478.627    2526.5917   -44005.219    13.814543   0.93585167 
   14000    203.33076   -559.95424    133474.95   -41454.754    2529.8212   -43984.575     13.94479   0.93570736 
   14100    200.49339   -559.04786    133495.29   -41450.217    2494.5189   -43944.735    13.889801   0.93556477 
   14200    202.63444   -692.79173    133695.35   -41485.012    2521.1576   -44006.169    13.959026   0.93416479 
   14300    204.35268   -475.42463     133679.6   -41527.848    2542.5358   -44070.384    13.925915   0.93427488 
   14400    201.65155   -569.53097    133778.97   -41504.899    2508.9287   -44013.828    14.097932   0.93358092 
   14500    204.88544   -547.93861    133841.02   -41464.276    2549.1643   -44013.441    14.065888   0.93314806 
   14600    205.62481   -510.56672    133898.16   -41489.641    2558.3636   -44048.005    14.134998   0.93274986 
   14700    205.97853   -583.99937    133942.01   -41515.615    2562.7646   -44078.379    14.271388   0.93244449 
   14800    201.57152   -602.18131    133874.76   -41569.087     2507.933    -44077.02    14.292207   0.93291289 
   14900    200.33359   -583.53843     133818.5    -41638.93    2492.5307   -44131.461    14.306836   0.93330513 
   15000    203.04085   -650.84682    133892.45   -41634.775    2526.2141   -44160.989     14.32263   0.93278962 
   15100     196.9145   -671.63738     133906.4   -41659.094    2449.9907   -44109.085    14.294304   0.93269245 
   15200    201.51551   -661.25445    133634.89   -41600.934    2507.2361    -44108.17     14.28927   0.93458746 
   15300     202.7336   -519.73351    133762.19   -41613.506    2522.3914   -44135.897    14.353528   0.93369803 
   15400    200.44989   -779.73614    133881.44   -41597.237    2493.9777   -44091.215    14.394114   0.93286637 
   15500    201.45229   -603.75955    133964.36   -41577.546    2506.4495   -44083.995    14.418475   0.93228891 
   15600    205.14823   -579.37102    134003.76    -41520.34     2552.434   -44072.774    14.473684   0.93201484 
   15700    204.26559   -595.80129    133880.24   -41601.024    2541.4523   -44142.476    14.282965   0.93287469 
   15800    200.24656   -722.62048    133794.02   -41611.522     2491.448    -44102.97    14.413566   0.93347592 
   15900    200.47418   -571.22616     133732.6   -41636.378    2494.2799   -44130.658    14.472677   0.93390459 
   16000    205.32092   -548.42456    133964.66   -41580.616    2554.5826   -44135.199     14.48567   0.93228683 
   16100    208.47075   -552.16309    133967.55   -41535.025    2593.7725   -44128.798     14.52026   0.93226676 
   16200    204.14784   -442.20631    133943.36   -41610.106    2539.9872   -44150.094    14.584745   0.93243513 
   16300    203.67878   -671.65596    133799.21   -41628.643    2534.1512   -44162.794     14.63908   0.93343965 
   16400    209.40808   -697.48412    133850.67    -41544.46    2605.4347   -44149.894    14.629291   0.93308083 
   16500    205.17064   -566.48931     133864.2   -41536.346    2552.7128   -44089.058    14.681612   0.93298647 
   16600    207.85414   -580.94069     133953.8   -41516.459    2586.1007    -44102.56    14.763194   0.93236243 
   16700    204.73284   -473.12966    133839.51   -41539.302    2547.2658   -44086.568    14.802443   0.93315863 
   16800    205.25496   -629.88619    133749.76    -41536.11     2553.762   -44089.872    14.842819   0.93378477 
   16900    206.69576   -715.65547    133795.23   -41490.928    2571.6883   -44062.617    14.812802   0.93346745 
   17000    206.55216   -665.49982    133730.07   -41517.758    2569.9016   -44087.659     14.87998   0.93392224 
   17100    212.24053   -597.31445    133645.02    -41452.79    2640.6757   -44093.465    14.816001   0.93451659 
   17200    204.53177    -621.8928    133748.61   -41453.781     2544.764   -43998.545    14.774312   0.93379285 
   17300    206.83737   -628.62348    133743.61   -41524.364    2573.4501   -44097.814     14.80844   0.93382774 
   17400    206.93424   -568.65657    133923.05    -41533.56    2574.6554   -44108.215    14.934791    0.9325765 
   17500    209.85939   -512.08332    133991.61   -41533.665    2611.0498   -44144.714    15.052438   0.93209934 
   17600    204.79962   -748.97117     134067.1   -41538.648    2548.0966   -44086.744    15.105419   0.93157453 
   17700    202.39765   -783.72539    134056.36     -41556.9    2518.2116   -44075.111    15.171972   0.93164912 
   17800    206.83561   -515.93791    133983.73   -41530.147    2573.4282   -44103.575    15.084906   0.93215413 
   17900    205.61731   -440.06369    134071.57   -41496.495    2558.2702   -44054.765    14.986148   0.93154342 
   18000    207.30486   -501.73118    134100.89   -41449.835    2579.2665   -44029.101    15.028736   0.93133979 
   18100    203.11072   -536.09238    134126.21   -41547.245    2527.0835   -44074.328    15.112106   0.93116393 
   18200    208.12151   -528.87894    134132.57   -41567.732    2589.4272   -44157.159    15.263778   0.93111979 
   18300    208.65946   -589.13684    134055.15   -41500.046    2596.1204   -44096.166    15.364682   0.93165757 
   18400    208.93173   -623.61994    134057.22   -41565.275    2599.5079   -44164.783    15.360748   0.93164315 
   18500    207.83021   -458.03148    134126.49   -41535.586    2585.8029   -44121.389     15.41471   0.93116199 
   18600    205.38877   -511.06651    134135.26   -41583.335    2555.4268   -44138.762    15.268164   0.93110112 
   18700    206.62844   -600.15087    134142.69   -41569.048    2570.8506   -44139.899    15.191579   0.93104953 
   18800    207.41056   -573.52719    134206.83   -41543.402    2580.5817   -44123.984    15.316882   0.93060459 
   18900    203.61475   -609.73157    134120.89   -41570.988    2533.3546   -44104.343    15.264234   0.93120086 
   19000    207.46807   -534.38575    134129.88   -41551.824    2581.2972   -44133.121    15.423856    0.9311385 
   19100    204.77335    -477.4381     134093.1   -41616.692    2547.7698   -44164.462    15.471098   0.93139385 
   19200    207.27753   -640.88961    134223.82   -41607.999    2578.9266   -44186.926    15.468807   0.93048679 
   19300    209.35701   -741.38179     134153.2   -41560.871    2604.7992    -44165.67    15.371225   0.93097664 
   19400    207.88663   -723.11985    133924.19   -41578.981    2586.5048   -44165.486    15.437723   0.93256857 
   19500    207.25092   -530.75069    133920.07   -41564.904    2578.5954   -44143.499    15.414719   0.93259726 
   19600    203.17249   -719.68543    133970.32   -41599.656     2527.852   -44127.508     15.39038   0.93224745 
   19700    209.33213   -572.53827    133947.76   -41575.655    2604.4896   -44180.145    15.374892   0.93240451 
   19800     204.5463   -531.74891    133975.83   -41615.689    2544.9448   -44160.634    15.440629    0.9322091 
   19900    208.54947   -602.97312    134134.11   -41617.595    2594.7518   -44212.347    15.569753   0.93110911 
   20000    209.20168   -467.21175    134130.82   -41656.071    2602.8666   -44258.937    15.543817   0.93113193 
   20100    203.27224   -632.25691    134140.06   -41632.873    2529.0931   -44161.966    15.429674   0.93106778 
   20200    202.97997     -581.824    133933.37       -41675    2525.4567   -44200.456    15.542349   0.93250467 
   20300    202.81414   -449.38274     133964.5   -41699.792    2523.3935   -44223.186    15.558815     0.932288 
   20400      199.547   -643.32007    134207.52   -41680.932    2482.7441   -44163.676    15.576193    0.9305998 
   20500    202.77739   -682.22965    134256.26   -41648.989    2522.9362   -44171.925    15.560854   0.93026196 
   20600      203.118   -614.46638    134270.94   -41673.497    2527.1741   -44200.671    15.574004   0.93016026 
   20700    206.56802   -547.42087    134153.93   -41625.396    2570.0988   -44195.495    15.532574   0.93097152 
   20800    204.99726   -627.89367     134118.6   -41625.464    2550.5556   -44176.019     15.67638   0.93121677 
   20900    203.73908   -649.77286    134284.15   -41656.755    2534.9015   -44191.657    15.749338   0.93006873 
   21000    202.23684    -701.4076    134254.98   -41738.266    2516.2108   -44254.476    15.686499   0.93027085 
   21100     199.8565   -568.97133    134259.07   -41762.622    2486.5948   -44249.217    15.765862    0.9302425 
   21200    203.20899   -603.79529    134451.97   -41724.293    2528.3062     -44252.6    15.800514   0.92890788 
   21300    201.15424   -528.44899    134466.51   -41739.318    2502.7412   -44242.059    15.856375   0.92880741 
   21400     203.3348   -595.72019    134436.96   -41713.076    2529.8715   -44242.947    15.863659   0.92901156 
   21500    200.76726   -546.70499    134426.97   -41700.937    2497.9264   -44198.864    15.940958   0.92908058 
   21600    204.82253   -520.39581     134479.3   -41643.042    2548.3817   -44191.424    15.841411   0.92871905 
   21700    205.24748   -706.27706    134582.92   -41626.493    2553.6689   -44180.162    15.883862   0.92800405 
   21800     205.0542   -702.36156    134476.84   -41632.435    2551.2641   -44183.699    16.084232   0.92873609 
   21900    208.16892   -714.13155    134568.67   -41651.374    2590.0171   -44241.391    16.178675   0.92810231 
   22000    201.17713   -686.85025    134506.71   -41689.131    2503.0259   -44192.157     16.07667   0.92852979 
   22100     207.5211   -501.76825    134485.93   -41653.087     2581.957   -44235.044    16.071872   0.92867332 
   22200    206.90773   -537.56053    134476.92   -41689.878    2574.3255   -44264.204    15.945759   0.92873549 
   22300    207.95179   -423.41109    134581.68   -41655.622    2587.3157   -44242.938    15.872057   0.92801259 
   22400    205.96026   -690.42345    134599.75   -41628.574    2562.5372   -44191.111    15.959612   0.92788799 
   22500    207.36129   -577.71101    134723.69    -41635.98    2579.9686   -44215.948    16.013327   0.92703439 
   22600    203.23206   -562.11615    134752.81   -41617.347    2528.5932   -44145.941     15.99448   0.92683404 
   22700    206.91854   -575.17401    134759.85   -41628.122      2574.46   -44202.582    16.090301   0.92678564 
   22800    206.76323   -666.28609    134747.66   -41629.431    2572.5277   -44201.959    16.108713   0.92686948 
   22900    204.07372    -562.7874    134800.02    -41670.59    2539.0651   -44209.655    16.010484   0.92650945 
   23000    201.81822   -621.87373    134549.85   -41651.608    2511.0023    -44162.61    15.958248   0.92823209 
   23100    205.39489    -720.6248    134595.52   -41752.425     2555.503   -44307.928    16.039991   0.92791716 
   23200     208.2986   -503.04289    134628.27   -41691.284    2591.6305   -44282.915    16.103886   0.92769141 
   23300     202.4025   -510.79047    134558.43   -41734.799    2518.2719   -44253.071    16.178858   0.92817295 
   23400    204.32429   -718.94426       134424   -41667.397    2542.1826    -44209.58    16.091113   0.92910111 
   23500     204.7066   -557.66964    134403.53   -41689.482    2546.9392   -44236.421    16.133722   0.92924264 
   23600    208.16974   -676.77108    134274.29    -41677.77    2590.0273   -44267.798    16.112768   0.93013706 
   23700    203.55157   -497.94394    134249.91    -41706.06    2532.5685   -44238.629    16.188203   0.93030595 
   23800    202.65331   -555.44238    134352.52   -41765.182    2521.3924   -44286.575    16.154938   0.92959546 
   23900    201.80434   -544.75477       134528   -41756.374    2510.8296   -44267.203    16.070829    0.9283829 
   24000    199.81796   -635.91774    134373.45    -41687.96    2486.1152   -44174.076    16.064151   0.92945065 
   24100    203.00288   -457.00704    134487.16   -41675.954    2525.7418   -44201.696     16.18028   0.92866478 
   24200    200.47306   -690.17613    134477.45    -41725.28     2494.266   -44219.546    16.367516   0.92873187 
   24300    204.57123   -572.85736    134431.39   -41694.951    2545.2551   -44240.206    16.461669   0.92905006 
   24400    201.94464    -733.7019    134389.83   -41744.395    2512.5752   -44256.971    16.377058   0.92933737 
   24500    205.61535   -621.22435    134400.42   -41702.367    2558.2459   -44260.613    16.406805   0.92926411 
   24600    206.82175   -668.31321    134367.84   -41709.911    2573.2557   -44283.167    16.375973   0.92948943 
   24700    203.95382   -559.73609    134246.87   -41703.266    2537.5732   -44240.839    16.445154     0.930327 
   24800    200.85099   -588.29757    134311.33   -41704.088    2498.9682   -44203.057    16.411315   0.92988057 
   24900    205.41064   -611.98876     134203.2   -41660.002    2555.6989   -44215.701     16.47852   0.93062975 
   25000    203.94813   -591.41622    134229.98   -41639.075    2537.5025   -44176.577    16.589504   0.93044405 
   25100     205.3246   -492.78711    134163.74   -41637.678    2554.6283   -44192.306    16.602103   0.93090348 
   25200     205.9574   -643.59128    134270.05   -41666.804    2562.5016   -44229.305    16.678761    0.9301664 
   25300    206.68667   -597.81849    134321.37   -41691.006    2571.5751   -44262.582    16.673802     0.929811 
   25400    203.79649   -663.23945    134497.19   -41687.391    2535.6157   -44223.007    16.702099   0.92859554 
   25500      204.731   -662.58775    134452.79   -41651.755    2547.2429   -44198.998    16.746755   0.92890219 
   25600    204.01349   -736.83755    134423.88    -41718.76    2538.3157   -44257.076    16.841185   0.92910197 
   25700    201.66959   -519.30544    134412.29   -41740.654     2509.153   -44249.807    16.964554    0.9291821 
   25800    205.25557   -655.87289    134487.71   -41714.659    2553.7695   -44268.429    16.879463   0.92866099 
   25900     205.1767   -555.20511    134531.25   -41681.761    2552.7882   -44234.549    16.832253   0.92836043 
   26000    205.71708   -580.88479    134432.71   -41631.099    2559.5116    -44190.61    16.825242   0.92904092 
   26100    202.84052   -618.41006    134466.06   -41705.533    2523.7217   -44229.254       16.933   0.92881049 
   26200    201.21597   -432.63766    134447.21   -41708.912    2503.5092   -44212.421    16.924041   0.92894073 
   26300    205.37612   -534.34359    134499.75   -41685.406    2555.2693   -44240.676    16.866303    0.9285779 
   26400    207.71849    -586.2932    134491.98   -41676.424    2584.4129   -44260.837    16.998448    0.9286315 
   26500    208.05462   -596.95792    134504.22   -41728.084     2588.595   -44316.679    16.921793   0.92854698 
   26600    203.26639   -440.28544    134553.86   -41772.923    2529.0203   -44301.943    16.863473   0.92820445 
   26700    204.37543   -817.80335    134644.62     -41793.3    2542.8188   -44336.119    16.948326   0.92757876 
   26800    204.98693   -383.48245    134665.92   -41726.472    2550.4271   -44276.899    16.910852   0.92743202 
   26900    205.57318   -457.07565    134731.72   -41720.104    2557.7212   -44277.825    17.037135   0.92697913 
   27000     204.5074   -609.70925    134609.58   -41768.729    2544.4609    -44313.19    17.047535   0.92782021 
   27100    207.18276   -615.65454    134608.77   -41777.979    2577.7474   -44355.727    17.136518    0.9278258 
   27200    203.53894   -503.89392    134654.55   -41787.412    2532.4114   -44319.823     17.07084   0.92751037 
   27300    200.81772   -658.23259     134711.7   -41808.014    2498.5543   -44306.568    17.021042   0.92711688 
   27400    206.73008    -606.0672    134625.79   -41772.655    2572.1152    -44344.77     17.03947   0.92770851 
   27500    208.52472    -513.7686    134737.12   -41702.133     2594.444   -44296.577    17.077399   0.92694197 
   27600    200.89543   -575.73137    134657.77   -41733.182    2499.5211   -44232.703    17.130448   0.92748817 
   27700    204.82476   -597.62611    134535.23   -41740.004    2548.4094   -44288.414    17.196498   0.92833301 
   27800    207.03244   -649.34086    134423.03    -41675.01    2575.8771   -44250.887    17.190253   0.92910781 
   27900    204.80384    -625.0511    134667.78   -41694.821    2548.1492   -44242.971    17.223928   0.92741922 
   28000    204.88992   -705.91949    134641.77   -41747.115    2549.2201   -44296.335    17.111157   0.92759837 
   28100    199.82902   -655.86094     134606.4    -41710.01     2486.253   -44196.263    17.170695   0.92784211 
   28200    204.13814    -712.2888    134663.07   -41767.403    2539.8665   -44307.269    17.217767   0.92745167 
   28300    205.09936   -524.27906    134556.72   -41755.043     2551.826   -44306.869    17.185014   0.92818469 
   28400    202.92172   -584.69662    134654.19   -41799.699     2524.732   -44324.431    17.305964   0.92751288 
   28500    205.81172   -651.61766    134434.28   -41815.677     2560.689   -44376.366    17.442075    0.9290301 
   28600    205.45255   -606.79345    134602.83   -41772.436    2556.2204   -44328.657    17.337184   0.92786674 
   28700    203.89934   -551.99819    134450.39   -41780.116    2536.8954   -44317.012    17.387758   0.92891875 
   28800    206.29056   -641.48582    134470.47   -41750.681    2566.6467   -44317.327    17.399971   0.92878005 
   28900    205.44463   -475.84434    134391.23   -41714.518    2556.1218    -44270.64    17.498631   0.92932769 
   29000    204.64798   -674.35914    134309.62   -41774.969    2546.2099   -44321.179    17.429429   0.92989236 
   29100    205.17392   -580.23647    134335.41   -41725.514    2552.7537   -44278.268    17.400608   0.92971383 
   29200    208.37341    -614.1234    134316.68   -41689.278    2592.5613    -44281.84    17.476053   0.92984348 
   29300    208.34729   -386.96085    134376.92    -41757.99    2592.2363   -44350.227    17.370161   0.92942668 
   29400    205.02902   -592.73713    134378.82    -41809.35    2550.9508   -44360.301    17.521515   0.92941352 
   29500    205.62292   -461.84858    134347.66   -41832.318      2558.34   -44390.658    17.497204   0.92962908 
   29600    203.79597   -523.49011    134405.87   -41745.095    2535.6093   -44280.705    17.497143   0.92922649 
   29700    201.49673   -621.39154     134555.8   -41776.103    2507.0024   -44283.105    17.626677   0.92819103 
   29800    203.71622   -600.23604    134417.87   -41765.092    2534.6171   -44299.709    17.626763   0.92914349 
   29900    203.71836   -520.13407    134564.58   -41789.878    2534.6437   -44324.521    17.670916    0.9281305 
   30000    201.67521   -546.46415     134706.8   -41774.541    2509.2231   -44283.765    17.691511   0.92715064 
   30100    202.38095   -576.04501    134701.99   -41763.032    2518.0037   -44281.036    17.640902    0.9271837 
   30200     203.0152   -700.28235    134573.54   -41774.242    2525.8951   -44300.137    17.766266   0.92806868 
   30300    206.37285   -600.09885    134522.52   -41723.103    2567.6706   -44290.774    17.954351    0.9284207 
   30400    204.76628   -630.48692    134539.89   -41714.913    2547.6818   -44262.595    17.789382   0.92830082 
   30500    203.89847   -568.57378    134482.39   -41722.195    2536.8846   -44259.079    17.783393   0.92869776 
   30600    208.95249   -588.22462    134555.98   -41717.782    2599.7663   -44317.548    17.747671    0.9281898 
   30700    204.88729   -611.11947    134507.07     -41735.5    2549.1874   -44284.687     17.81216   0.92852733 
   30800    210.26308   -580.99994    134660.31   -41688.841    2616.0724   -44304.914     17.85673   0.92747071 
   30900    206.15542    -525.4167    134740.92   -41805.786    2564.9654   -44370.751    17.888129    0.9269158 
   31000    203.10024   -530.25137    134614.34   -41854.709     2526.953   -44381.662    18.021685   0.92778739 
   31100    204.51315   -611.98225    134528.68   -41862.367    2544.5323   -44406.899    17.939851   0.92837819 
   31200    201.88329   -481.31125    134573.18   -41876.737     2511.812   -44388.549    18.139335   0.92807117 
   31300    205.27265    -696.7857    134394.78   -41841.203    2553.9821   -44395.185      18.0758   0.92930313 
   31400    207.20994   -550.88188    134451.53    -41814.13    2578.0856   -44392.216    17.880726   0.92891086 
   31500    201.08197   -629.64867    134488.13   -41853.167     2501.842   -44355.009    18.007407   0.92865807 
   31600    205.66717   -517.48573    134388.61   -41786.874    2558.8906   -44345.764    17.976837   0.92934582 
   31700    206.82827   -561.99526     134470.9   -41815.171    2573.3369   -44388.508    18.106515   0.92877711 
   31800    204.85955    -634.7516    134554.95    -41764.15    2548.8423   -44312.992    17.964311   0.92819694 
   31900    209.86729   -588.42601    134590.68   -41759.132    2611.1481   -44370.281    17.929962    0.9279505 
   32000    208.90419   -523.38645    134572.14   -41769.974    2599.1652    -44369.14    18.120043   0.92807835 
   32100    207.38706   -560.13566    134636.01   -41794.106    2580.2893   -44374.396    18.126466   0.92763809 
   32200    205.67358   -651.62403    134691.49   -41802.803    2558.9703   -44361.773     18.16435   0.92725601 
   32300     208.5871   -613.46444    134666.85   -41785.378    2595.2201   -44380.598    18.209311   0.92742562 
   32400    203.42643   -654.65842    134754.91   -41859.637    2531.0115   -44390.648    18.306492   0.92681963 
   32500    204.29909   -544.54892    134758.76   -41863.028    2541.8691   -44404.897    18.263281   0.92679313 
   32600    208.58517   -638.65594    134812.92   -41817.783    2595.1961   -44412.979    18.207798   0.92642078 
   32700    203.15776    -640.6684     134830.9   -41876.892    2527.6687   -44404.561    18.118028   0.92629724 
   32800    202.66782   -590.96214    134743.88   -41911.471    2521.5729   -44433.044    18.100609   0.92689545 
   32900    203.73389   -653.32533    134623.48    -41904.83    2534.8369   -44439.667    18.179703   0.92772444 
   33000    199.47078   -561.19701    134712.88   -41955.235    2481.7957   -44437.031    18.313732   0.92710879 
   33100    204.86552   -636.64671    134822.23   -41872.642    2548.9165   -44421.559     18.30403   0.92635678 
   33200    201.35334   -727.38831    134620.73   -41909.962    2505.2183   -44415.181     18.21834   0.92774335 
   33300    204.72935    -603.9558    134426.65    -41848.18    2547.2223   -44395.402    18.299996   0.92908283 
   33400    202.83125   -647.02493    134418.36   -41909.963    2523.6064   -44433.569    18.164882   0.92914011 
   33500    201.59198   -569.83319    134449.09   -41879.714    2508.1875   -44387.901    18.236838   0.92892773 
   33600    205.46949   -567.20165    134545.68   -41850.024    2556.4311   -44406.455    18.322229    0.9282609 
   33700    204.80278   -517.25688    134433.46   -41840.538    2548.1359   -44388.673    18.328315   0.92903579 
   33800    204.36498   -621.21847    134579.36   -41844.419    2542.6889   -44387.107    18.281483   0.92802856 
   33900    205.19703   -694.07553    134439.58   -41855.535    2553.0412   -44408.576    18.377438   0.92899344 
   34000    208.14522   -579.62292    134458.35   -41812.871    2589.7222   -44402.594    18.361354    0.9288638 
   34100    204.34651   -589.34492    134405.96    -41851.47    2542.4591   -44393.929    18.233344   0.92922582 
   34200     205.1517   -616.48412    134570.79   -41850.422    2552.4772     -44402.9    18.320112   0.92808764 
   34300    199.71534   -668.66191    134583.16    -41898.95    2484.8385   -44383.789    18.218117   0.92800235 
   34400    203.16516   -487.42585     134639.5   -41826.732    2527.7608   -44354.493    18.333497   0.92761408 
   34500    204.93633   -743.32685     134720.8   -41850.745    2549.7975   -44400.543    18.271684   0.92705428 
   34600    204.36288   -619.21174    134779.81   -41842.221    2542.6627   -44384.884    18.402106   0.92664834 
   34700    205.19014   -545.47638    134740.93   -41916.407    2552.9554   -44469.363    18.466809   0.92691575 
   34800    201.48686   -692.91351    134718.38    -41912.33    2506.8796   -44419.209    18.526625   0.92707094 
   34900    203.67683   -656.81411    134664.39   -41909.464     2534.127   -44443.591    18.348734   0.92744261 
   35000    199.37362   -635.67089    134564.43   -41986.213    2480.5869     -44466.8    18.314432   0.92813154 
   35100    203.81777   -527.87391    134575.44   -41922.007    2535.8805   -44457.887    18.330786    0.9280556 
   35200    207.91883   -520.67321    134603.66   -41925.904    2586.9056    -44512.81    18.401205   0.92786107 
   35300    205.28217   -573.45794    134580.27   -41912.289    2554.1005    -44466.39     18.37825   0.92802228 
   35400    205.35815   -630.53685    134581.51   -41929.351    2555.0458   -44484.396    18.425061   0.92801373 
   35500    209.78059   -520.29638    134534.08   -41843.564    2610.0694   -44453.633    18.409612   0.92834093 
   35600    203.07259   -577.86147    134698.61   -41869.334    2526.6091   -44395.943    18.560154   0.92720697 
   35700     205.4998   -610.01478    134720.45   -41841.045    2556.8082   -44397.854    18.448055   0.92705669 
   35800    207.77692     -612.668     134760.5    -41878.41    2585.1399    -44463.55    18.498666   0.92678116 
   35900    204.99339   -581.55173    134716.76   -41831.093    2550.5076     -44381.6     18.43849   0.92708203 
   36000    208.57418   -543.07125    134627.88   -41796.587    2595.0594   -44391.647     18.51222   0.92769409 
   36100    204.20449   -610.37106    134588.24   -41822.477    2540.6921   -44363.169    18.526493   0.92796733 
   36200    206.25977   -545.61198    134698.36    -41846.77    2566.2637   -44413.034    18.535392   0.92720871 
   36300    199.29536   -695.46908    134601.79   -41907.832    2479.6132   -44387.445     18.70013   0.92787389 
   36400    207.97166    -653.2784    134601.59   -41855.582    2587.5628   -44443.145    18.702433    0.9278753 
   36500    206.37847   -678.99659    134454.53   -41838.609    2567.7405   -44406.349    18.672748   0.92889016 
   36600    200.60921   -693.55522    134468.21   -41955.054      2495.96   -44451.014    18.619828    0.9287957 
   36700    202.70527    -520.4826    134514.99   -41893.912     2522.039   -44415.951    18.751603   0.92847269 
   36800    204.85833    -717.5548    134584.14   -41888.043    2548.8271    -44436.87    18.855341   0.92799562 
   36900    201.85122   -801.50687    134853.72   -41892.458    2511.4129   -44403.871    18.834103    0.9261405 
   37000    207.50945   -585.54571    135087.94    -41832.63    2581.8121   -44414.442    18.825044   0.92453469 
   37100    209.47184   -644.94882     134936.1   -41839.359     2606.228   -44445.587    18.793874   0.92557507 
   37200    202.98371   -499.85444    134744.32   -41893.616    2525.5032    -44419.12    18.758718   0.92689242 
   37300    206.31889   -660.88742    134660.04   -41916.687    2566.9992   -44483.686    18.721668   0.92747254 
   37400    199.43638   -612.05306    134626.24   -41950.384    2481.3677   -44431.752    18.832109    0.9277054 
   37500    203.43915   -463.23317     134703.1   -41965.517    2531.1698   -44496.687    18.844262   0.92717607 
   37600    207.31911    -502.1485    134744.59   -41924.513    2579.4439   -44503.957    18.915814   0.92689056 
   37700    204.35085   -562.41208     134807.2   -41923.267     2542.513    -44465.78    19.025274   0.92646007 
   37800     201.2428   -587.20103    134795.79    -42009.21     2503.843   -44513.053    18.885046    0.9265385 
   37900    202.38438   -515.39234    134743.36   -41966.977    2518.0464   -44485.023    18.714674   0.92689904 
   38000    203.39798    -548.3097    134859.91   -41940.024    2530.6576   -44470.681    18.850741   0.92609799 
   38100    201.66436   -599.95856    134750.18   -41904.042    2509.0881    -44413.13    18.865072   0.92685214 
   38200    203.35961   -593.95717    134777.78   -41914.394    2530.1801   -44444.575      19.0106    0.9266623 
   38300     205.6031   -647.49983    134783.68   -41851.546    2558.0935    -44409.64    19.022943   0.92662176 
   38400    205.25983   -613.19862    134713.84   -41907.148    2553.8225    -44460.97    18.906939   0.92710216 
   38500    201.89564    -646.0323    134760.93   -41929.748    2511.9656   -44441.714     18.88025   0.92677821 
   38600    203.39159   -597.12512    134744.38   -41884.962    2530.5781    -44415.54    18.874325   0.92689204 
   38700    203.55687   -575.97053    134785.56   -41903.214    2532.6345   -44435.849    18.930833   0.92660884 
   38800    203.33407   -540.50343       134734   -41925.451    2529.8624   -44455.313    19.000078   0.92696346 
   38900    207.01137   -589.17886    134870.57   -41890.231     2575.615   -44465.846    19.131923   0.92602481 
   39000    205.82643   -635.54894    134826.38    -41923.92    2560.8721   -44484.793    19.043022    0.9263283 
   39100    206.00647   -522.14482    134788.68   -41888.067    2563.1121   -44451.179    19.056464   0.92658739 
   39200    207.77976   -509.72867    134824.23   -41910.335    2585.1753    -44495.51     19.15402   0.92634306 
   39300    203.55437   -470.12121    134847.59   -41907.027    2532.6034    -44439.63    19.139238   0.92618263 
   39400    200.28215    -538.3082    135000.86   -41872.903    2491.8907   -44364.794    19.221833    0.9251311 
   39500     208.2355    -696.3765    134916.54   -41854.977    2590.8456   -44445.822    19.185086    0.9257093 
   39600    205.21321   -678.90754    134953.88   -41886.464    2553.2425   -44439.706    19.223908   0.92545311 
   39700    208.42946   -663.21314       134989   -41839.587    2593.2587   -44432.845    19.416964   0.92521237 
   39800    204.68018   -573.67566    134941.42   -41899.201    2546.6105   -44445.812    19.331509   0.92553856 
   39900    201.78542   -519.95183    135036.46   -41940.844    2510.5943   -44451.438     19.28374   0.92488719 
   40000    204.85326   -576.51254    134960.33   -41960.235     2548.764   -44508.999    19.254349   0.92540888 
   40100    202.27677   -595.07007    135148.23   -41872.742    2516.7076    -44389.45     19.22162   0.92412227 
   40200    207.18358   -656.95479    135193.66   -41896.694    2577.7576   -44474.451    19.212968   0.92381173 
   40300    206.24293   -522.69358    135268.27   -41880.656    2566.0541    -44446.71    19.289711   0.92330219 
   40400    207.21743   -576.63388    135335.43   -41805.321    2578.1788     -44383.5    19.384616   0.92284401 
   40500    207.52439   -584.41389    135295.22   -41813.151    2581.9979   -44395.149    19.381771   0.92311829 
   40600    208.56895   -793.44575       135326   -41864.368    2594.9943   -44459.362    19.328728   0.92290831 
   40700    204.24173   -574.07159    135250.37   -41905.536    2541.1555   -44446.691    19.271997   0.92342439 
   40800    204.38047   -611.75317    135233.75   -41942.295    2542.8816   -44485.176    19.226484   0.92353785 
   40900    203.33418   -547.36108    135235.08   -41974.791    2529.8638   -44504.654    19.268282   0.92352879 
   41000    201.82779   -647.21929    135279.99   -41895.619    2511.1215   -44406.741    19.380366   0.92322223 
   41100    206.42387   -630.54935    135346.54   -41874.618    2568.3054   -44442.924    19.431863   0.92276826 
   41200    204.65633   -558.58846    135273.53   -41885.204    2546.3139   -44431.518    19.446214   0.92326627 
   41300    203.10004   -565.90584     135346.5   -42020.566    2526.9507   -44547.517    19.403048   0.92276853 
   41400    200.60315   -750.81464    135263.12   -41977.637    2495.8845   -44473.522     19.28063   0.92333732 
   41500    205.08483   -617.45256    135323.61   -41972.845    2551.6452    -44524.49    19.355629   0.92292465 
   41600    204.11434   -584.15162     135134.7   -41927.641    2539.5705   -44467.212    19.335396   0.92421483 
   41700    203.08564   -506.35137    135153.99   -41900.253    2526.7715   -44427.024    19.349444    0.9240829 
   41800    203.33814   -644.62218    135215.94   -41905.632     2529.913   -44435.545    19.271335   0.92365953 
   41900    206.05983   -593.64706    135223.24    -41893.57     2563.776   -44457.346    19.375485   0.92360964 
   42000    203.50489   -641.57574     135352.6   -41889.854    2531.9878   -44421.842    19.507676   0.92272692 
   42100    203.59239   -816.59998    135292.23   -41884.833    2533.0763   -44417.909    19.416812   0.92313867 
   42200    210.99206   -579.52182    135101.38   -41845.164    2625.1423   -44470.306     19.41275   0.92444273 
   42300    208.07152   -501.71152    135185.93   -41836.309    2588.8053   -44425.115    19.421854   0.92386459 
   42400    205.67469    -623.5204    135205.04   -41876.119    2558.9841   -44435.103    19.495889   0.92373399 
   42500    209.23954   -492.73887    135259.97   -41877.608    2603.3377   -44480.946    19.435987   0.92335887 
   42600    200.84016    -604.5273    135447.73   -41886.993    2498.8335   -44385.826    19.487289   0.92207888 
   42700    208.56134   -633.53696    135273.42   -41896.329    2594.8995   -44491.228    19.539168   0.92326707 
   42800    204.31773   -565.47323    135294.21    -41864.89    2542.1011   -44406.991    19.553265   0.92312516 
   42900    205.40966   -715.21922    135225.93    -41931.85    2555.6867   -44487.537    19.626798   0.92359131 
   43000     203.1675   -618.27006    135226.17   -41953.546    2527.7899   -44481.336    19.643965   0.92358962 
   43100    206.38836    -633.9278    135310.57   -41930.975    2567.8636   -44498.839    19.475775   0.92301355 
   43200    205.94329   -630.02933    135233.51   -41895.918     2562.326   -44458.244    19.541792   0.92353949 
   43300    205.26233   -565.51163    135185.89   -41904.589    2553.8536   -44458.442    19.476248   0.92386482 
   43400    206.20467   -553.69866    135370.29   -41861.083    2565.5781   -44426.661    19.572568   0.92260636 
   43500     206.1904    -746.2349    135422.91   -41857.116    2565.4005   -44422.516    19.538744   0.92224786 
   43600    208.99692   -578.93336    135413.35   -41777.247    2600.3191   -44377.566    19.428445   0.92231295 
   43700    208.53691   -697.32003    135377.12   -41813.445    2594.5956   -44408.041    19.541498   0.92255984 
   43800    205.20261   -713.63037     135186.5   -41821.443    2553.1106   -44374.553    19.503745   0.92386064 
   43900    209.67793   -705.05049    135211.03   -41862.798    2608.7921    -44471.59    19.496647   0.92369306 
   44000    205.21302   -705.86473    135066.59   -41886.063    2553.2401   -44439.303    19.467801   0.92468088 
   44100    204.00581   -504.80956       135095   -41908.456    2538.2201   -44446.676    19.474971   0.92448639 
   44200    203.70977   -473.18194    135122.14   -41942.397    2534.5368   -44476.934    19.567134   0.92430074 
   44300    201.80243   -591.09192     135120.1   -41945.359    2510.8059   -44456.165    19.590852   0.92431471 
   44400    205.58765   -540.63975    135133.82   -41899.961    2557.9013   -44457.862    19.522145   0.92422084 
   44500    205.76116   -677.28621    135141.82   -41941.272      2560.06   -44501.332    19.460107   0.92416614 
   44600    203.60583    -675.4555    135137.45    -41999.33    2533.2436   -44532.573    19.606297   0.92419604 
   44700    201.76106   -646.74674     135022.3   -41975.767    2510.2912   -44486.059    19.550321   0.92498417 
   44800    206.43822   -567.88794    134956.93   -41941.282     2568.484   -44509.766    19.603082    0.9254322 
   44900    207.34004   -519.51606    135090.09   -41893.738    2579.7042   -44473.442    19.583792   0.92452004 
   45000    205.41653   -600.02068    134991.51   -41884.996    2555.7721   -44440.768     19.66287   0.92519518 
   45100    202.73262   -663.23557    135015.79   -41839.058    2522.3792   -44361.437    19.637084   0.92502879 
   45200    207.32696   -620.26911    135036.75   -41898.702    2579.5415   -44478.243     19.75908   0.92488518 
   45300     202.5768   -466.55075    134981.77   -41899.981    2520.4406   -44420.422    19.649119   0.92526189 
   45400    206.91101   -520.61524    134970.07     -41892.2    2574.3663   -44466.566    19.555635    0.9253421 
   45500    202.30578   -639.57721    134899.55   -41899.436    2517.0685   -44416.505    19.619923   0.92582585 
   45600     205.3636   -624.97436       134838   -41895.735    2555.1136   -44450.849    19.731457    0.9262485 
   45700    208.40388   -606.05882    134763.61   -41894.521    2592.9405   -44487.462    19.766436   0.92675973 
   45800    206.64444   -607.34043    134833.21    -41849.07    2571.0497    -44420.12    19.851502   0.92628137 
   45900    209.91957   -591.36221    134918.71   -41784.678    2611.7985   -44396.477    19.848423   0.92569438 
   46000    210.98532   -655.92814    134864.63   -41774.609    2625.0585   -44399.668    19.838901    0.9260656 
   46100    212.71861   -625.47931     134923.4    -41739.08    2646.6239   -44385.704    19.775206    0.9256622 
   46200    210.93029    -548.8693    135055.59   -41741.378    2624.3738   -44365.752    19.878028   0.92475615 
   46300     213.5876   -605.10989    135200.22   -41763.868    2657.4358   -44421.303    19.927218   0.92376696 
   46400    209.38723   -617.49318    135202.06   -41814.307    2605.1752   -44419.482    20.012704   0.92375432 
   46500    205.61705   -610.28391    135236.31   -41833.161     2558.267   -44391.428    19.918618    0.9235204 
   46600    210.29535    -557.7496    135165.42   -41829.937    2616.4739   -44446.411    19.823882   0.92400479 
   46700    205.10497   -637.10679    135145.33   -41901.821    2551.8958   -44453.717    19.884716    0.9241421 
   46800    204.38059   -539.49773    134981.44     -41952.7    2542.8831   -44495.583    19.928522    0.9252642 
   46900    206.05994   -574.64872    135056.29   -41891.329    2563.7774   -44455.106     19.91456   0.92475137 
   47000    208.48259    -671.4342       135110   -41874.693    2593.9197   -44468.612    20.037438   0.92438375 
   47100    208.12169   -510.48328    135139.38    -41852.22    2589.4295   -44441.649    19.977935   0.92418282 
   47200    204.69712   -704.11945    135126.78   -41911.045    2546.8214   -44457.866    20.002312   0.92426895 
   47300    203.91053   -467.52912    135107.65   -41927.326    2537.0347   -44464.361    20.051665   0.92439987 
   47400    206.59525   -703.91487    135214.15   -41886.245    2570.4376   -44456.683    20.096453   0.92367174 
   47500    205.66793   -635.92802    135131.09   -41823.115       2558.9   -44382.015    19.967942    0.9242395 
   47600    208.89622   -543.52619    135101.71   -41775.176    2599.0661   -44374.242    20.066136   0.92444049 
   47700    207.18614   -369.57245    135188.13   -41818.596    2577.7895   -44396.386    20.051959   0.92384954 
   47800    208.89858    -637.3571    135284.54   -41836.801    2599.0955   -44435.896    20.117624   0.92319114 
   47900    204.92347   -717.26563    135334.85   -41908.432    2549.6376    -44458.07    20.183492   0.92284796 
   48000    205.83329   -593.29904    135311.02    -41926.58    2560.9574   -44487.537    20.200027    0.9230105 
   48100    206.93244    -670.0112    135335.11   -41901.307     2574.633    -44475.94    20.150705   0.92284618 
   48200    206.98128   -577.07713    135209.39   -41949.001    2575.2406   -44524.242    20.128987    0.9237043 
   48300    206.99894    -569.2143    135234.24   -41935.064    2575.4603   -44510.524     20.07886   0.92353455 
   48400    206.64319   -614.51517    135296.64   -41856.866    2571.0341     -44427.9    20.133723   0.92310862 
   48500    205.52828   -514.56558    135255.86   -41918.602    2557.1625   -44475.765    20.254966   0.92338694 
   48600    205.34865   -566.05656    135301.79   -41913.274    2554.9276   -44468.202     20.19405   0.92307347 
   48700    207.89057   -608.56392    135200.48   -41895.074    2586.5539   -44481.628    20.253456   0.92376517 
   48800    204.06116   -567.09191    135183.96   -41918.366    2538.9088   -44457.275    20.143605   0.92387802 
   48900    208.55019   -595.37221    135329.63   -41904.925    2594.7609   -44499.686     20.19001   0.92288357 
   49000    204.94248   -590.43418    135373.62   -41941.263    2549.8741   -44491.137     20.14255   0.92258364 
   49100    203.66415   -480.87751    135252.09   -41948.889    2533.9692   -44482.858    20.146557   0.92341268 
   49200    203.72968    -465.2068    135409.27   -41958.738    2534.7846   -44493.522     20.25558   0.92234079 
   49300      207.409   -523.26553     135296.5   -41921.563    2580.5623   -44502.125    20.161691   0.92310953 
   49400     208.3626   -607.45138    135466.63   -41884.728    2592.4269   -44477.155    20.199774   0.92195025 
   49500    207.27813    -565.7916     135325.3   -41921.757     2578.934   -44500.691    20.139013   0.92291312 
   49600    210.24168    -641.1671    135230.38   -41913.437    2615.8062   -44529.243    20.131823   0.92356087 
   49700    205.26844   -580.77281    135199.36   -41933.792    2553.9297   -44487.722    20.301583    0.9237728 
   49800     203.7811    -574.5623    135179.14   -41974.059    2535.4243   -44509.483    20.258711   0.92391099 
   49900    206.49888   -573.73278    135205.58   -41869.329    2569.2387   -44438.568    20.276475   0.92373031 
   50000    203.90539   -525.87166    135246.88   -41917.162    2536.9708   -44454.133    20.336456   0.92344821 
   50100    206.20576   -707.32502    135201.98   -41931.199    2565.5917   -44496.791    20.369111   0.92375492 
   50200    204.21968   -587.11279    135264.28   -41978.848    2540.8811   -44519.729    20.274949   0.92332943 
   50300    203.74262   -580.28816    135230.23   -41964.121    2534.9455   -44499.066    20.257841   0.92356191 
   50400    205.66425   -629.30297    135431.95   -41994.329    2558.8543   -44553.183    20.215437   0.92218629 
   50500    204.11062   -501.82168    135381.64   -42024.137    2539.5241   -44563.661     20.33893   0.92252903 
   50600    204.60765   -715.46348    135414.35    -42042.15    2545.7081   -44587.858    20.373986   0.92230615 
   50700    201.76745   -769.49805     135253.9    -42062.64    2510.3707   -44573.011    20.356508    0.9234003 
   50800    206.59423   -520.55906    135406.95   -42052.881     2570.425   -44623.306     20.46842   0.92235655 
   50900    203.63621    -706.9558    135469.38   -41989.395    2533.6216   -44523.017    20.326535   0.92193152 
   51000    204.18621   -692.97188    135390.28   -41997.821    2540.4646   -44538.286    20.314915   0.92247015 
   51100    206.89645    -483.5808    135363.34   -42029.984    2574.1851   -44604.169    20.252562   0.92265373 
   51200     204.1628   -522.46828    135400.12   -41996.466    2540.1734   -44536.639    20.481054    0.9224031 
   51300    202.42266   -651.19647    135441.03   -42072.796    2518.5227   -44591.319    20.368295   0.92212447 
   51400    203.22986   -656.60532    135289.67   -42064.677    2528.5658   -44593.243    20.333162   0.92315618 
   51500    200.39265   -628.58293    135311.24   -42070.947    2493.2655   -44564.212     20.39595   0.92300898 
   51600    204.20379   -606.82373    135263.58    -42001.46    2540.6834   -44542.144    20.318297   0.92333421 
   51700    204.86334    -668.2023    135132.59   -41993.974    2548.8894   -44542.864    20.319176   0.92422926 
   51800     203.3794   -545.63367    135270.65    -42029.32    2530.4264   -44559.747    20.265056   0.92328595 
   51900    202.80546   -509.94969    135302.33   -42068.409    2523.2855   -44591.694    20.320168   0.92306978 
   52000    198.78703   -631.41088    135330.22   -42076.694    2473.2886   -44549.983    20.455531   0.92287956 
   52100    204.79294   -698.82776    135300.39   -42013.312    2548.0135   -44561.326    20.286783   0.92308301 
   52200    201.09654   -606.46619     135187.9   -42032.725    2502.0233   -44534.748    20.323048   0.92385114 
   52300    205.28101   -505.65261    135159.41   -42019.021    2554.0861   -44573.107    20.373786   0.92404586 
   52400    204.33749   -563.33201    135246.03   -41974.158    2542.3468   -44516.504     20.32365   0.92345406 
   52500    207.15061   -594.89664    135242.49   -41954.525    2577.3474   -44531.872    20.347782   0.92347821 
   52600    202.68294   -611.19341    135389.71   -41978.613    2521.7611   -44500.374    20.380844   0.92247402 
   52700    206.66278   -719.16622    135299.91   -42007.398    2571.2778   -44578.676     20.33574   0.92308629 
   52800    202.47765   -603.57318    135396.29   -41967.402    2519.2069   -44486.609    20.496772   0.92242919 
   52900    203.93029   -701.42829    135388.24   -41956.463    2537.2805   -44493.743    20.415107   0.92248404 
   53000    205.14954   -562.84669    135378.58   -41936.131    2552.4503   -44488.581    20.476347   0.92254989 
   53100    206.04529   -526.01774    135318.18   -41985.167    2563.5952   -44548.763    20.452771   0.92296166 
   53200     205.1704   -525.71976    135320.83   -41976.958    2552.7099   -44529.668    20.557021   0.92294359 
   53300    203.24403   -578.50039    135338.66   -41962.796    2528.7421   -44491.538    20.546594     0.922822 
   53400    203.50289   -648.81652    135361.59   -42038.604    2531.9628   -44570.566    20.548149   0.92266568 
   53500    202.32054   -607.01491    135304.82   -42033.962    2517.2522   -44551.214    20.481938   0.92305277 
   53600    204.22663   -688.18256    135391.04   -42027.071    2540.9675   -44568.038    20.442985   0.92246494 
   53700    202.20751    -759.7572    135330.02   -42055.002    2515.8459   -44570.848    20.450551   0.92288087 
   53800    205.52859   -610.26173    135240.82   -41939.945    2557.1664   -44497.111    20.662169   0.92348961 
   53900    208.76172   -490.51753    135303.25   -41986.362    2597.3927   -44583.755    20.822346   0.92306348 
   54000    206.63149   -625.55922    135346.32   -41958.783    2570.8886   -44529.671    20.583392   0.92276975 
   54100    205.68312   -648.59361       135465   -41970.984     2559.089   -44530.073    20.600012   0.92196132 
   54200    204.07563   -571.79523    135327.27   -41959.548    2539.0888   -44498.636     20.59205   0.92289963 
   54300    207.85167   -566.50058    135313.96   -41933.867    2586.0699   -44519.937    20.544896   0.92299041 
   54400    209.14045   -571.21009    135377.49   -41970.782    2602.1049   -44572.887     20.72792   0.92255731 
   54500    206.85161    -585.5445    135361.12   -41974.492    2573.6273   -44548.119    20.636299   0.92266889 
   54600    207.19165   -476.43229    135508.82   -41894.388     2577.858   -44472.246    20.632613   0.92166316 
   54700    207.94002   -616.99925    135459.82   -41912.977    2587.1691   -44500.146    20.726512   0.92199659 
   54800    207.92438   -761.36205    135432.63    -41976.39    2586.9746   -44563.365    20.565391   0.92218167 
   54900    202.10958   -586.18781    135372.04    -42024.99    2514.6274   -44539.618    20.679113   0.92259446 
   55000    201.15924   -594.69139    135499.96   -42077.719    2502.8034   -44580.523    20.779481   0.92172345 
   55100    201.07061    -537.3688    135298.91   -42032.783    2501.7007   -44534.484    20.828079   0.92309311 
   55200    198.05312   -575.70337    135232.09   -42048.231    2464.1574   -44512.389    20.848578   0.92354922 
   55300    203.39868   -570.97298    135354.28   -42003.391    2530.6663   -44534.057    20.815165   0.92271548 
   55400    206.12509   -589.67842    135558.16   -41990.227     2564.588   -44554.815    20.814991   0.92132771 
   55500    204.72232   -624.00132    135457.31   -41955.431    2547.1348   -44502.565    20.752597   0.92201367 
   55600    200.25839   -656.06693    135420.35   -41984.488    2491.5951   -44476.083    20.776839    0.9222653 
   55700    203.35014   -650.83233    135313.33   -41985.145    2530.0624   -44515.207    20.751778   0.92299475 
   55800    208.40832   -554.81352    135406.26   -41984.867    2592.9957   -44577.863    20.785973   0.92236131 
   55900    205.25308   -635.34502    135399.76   -41950.411    2553.7385    -44504.15    21.073585   0.92240557 
   56000    209.22422   -561.69407     135401.7   -41949.984    2603.1471   -44553.131    20.963827   0.92239233 
   56100     204.5251   -572.40438    135268.21   -41918.297    2544.6811   -44462.978    20.959351   0.92330261 
   56200    202.72627   -608.98318    135322.71   -41911.117    2522.3002   -44433.417    20.918808   0.92293073 
   56300    205.73873   -657.98867    135377.08   -41940.635     2559.781   -44500.416    20.889496   0.92256006 
   56400    204.39786   -559.92327    135247.37    -41927.42    2543.0979   -44470.518    20.770894   0.92344491 
   56500    203.49489   -638.38533    135177.72    -42002.13    2531.8633   -44533.993    20.840092   0.92392066 
   56600    205.28938   -398.79862    135409.83   -42022.646    2554.1902   -44576.836    20.948823   0.92233697 
   56700    204.64392   -529.52104    135448.19   -42055.529    2546.1594   -44601.688    20.953228   0.92207574 
   56800    204.18345   -660.23263    135356.51   -41997.984    2540.4303   -44538.414    20.878281   0.92270027 
   56900    202.49925   -569.80575    135376.39   -41967.308    2519.4757   -44486.784    20.865917   0.92256478 
   57000    205.85873   -749.91603    135270.79   -41920.848     2561.274   -44482.122     20.82288   0.92328497 
   57100    202.27416   -604.62185    135357.59   -41965.798    2516.6751   -44482.473    20.858082   0.92269295 
   57200    203.52004   -491.65025    135436.86   -42012.545    2532.1763   -44544.721    20.841811   0.92215289 
   57300    203.60973   -530.02488    135505.47   -42063.585    2533.2921   -44596.877    20.855983   0.92168599 
   57400    203.89713    -588.2971    135558.53   -42070.901     2536.868   -44607.769    20.919761   0.92132521 
   57500    201.50126   -675.05558    135487.69   -42115.497    2507.0588   -44622.556    21.011243   0.92180693 
   57600    204.61787   -629.84527    135403.87   -42079.498    2545.8354   -44625.333    21.035603   0.92237759 
   57700    202.15582   -592.75566    135349.35   -42113.537    2515.2027   -44628.739    20.958851   0.92274907 
   57800    203.24654   -483.76857    135466.32   -42134.612    2528.7734   -44663.385    20.950433   0.92195236 
   57900    201.45155   -623.85803    135369.78   -42115.356    2506.4403   -44621.797    20.872499   0.92260984 
   58000    198.68134   -418.51543    135203.13   -42100.844    2471.9736   -44572.818    20.869632   0.92374704 
   58100    201.67838    -666.3306    135278.18   -42042.314    2509.2624   -44551.577    20.873501   0.92323453 
   58200    206.60789   -523.72072    135472.03    -41988.72    2570.5949   -44559.315    20.955751   0.92191351 
   58300     207.6091   -666.66994    135561.62   -41935.095     2583.052   -44518.147    21.041738   0.92130423 
   58400    208.64367   -590.11123    135665.66   -41949.012    2595.9239   -44544.935    20.983137    0.9205977 
   58500    210.28082   -698.59878    135590.26   -41952.898    2616.2932   -44569.191     20.96055   0.92110959 
   58600    205.52252   -648.41978    135551.28    -41932.68    2557.0909   -44489.771    21.013921   0.92137448 
   58700    208.34952   -623.46032    135690.72   -41943.175    2592.2641    -44535.44    20.938081   0.92042768 
   58800    204.91952   -618.44834    135743.79   -41986.313    2549.5885   -44535.901    20.997355   0.92006778 
   58900    205.12411   -602.50315    135638.35   -42024.696     2552.134    -44576.83    20.885407   0.92078301 
   59000    202.47923   -619.40843    135691.54   -42020.185    2519.2266   -44539.412    21.139197   0.92042207 
   59100    202.09238   -543.29763    135738.88   -42027.336    2514.4135   -44541.749    21.140764   0.92010107 
   59200    203.75734   -569.49759    135689.88   -42035.061    2535.1287    -44570.19    21.032377   0.92043333 
   59300    206.02633   -453.15017    135731.47   -42023.236    2563.3593   -44586.595    21.043201   0.92015135 
   59400     201.9342   -668.88336    135591.22   -42077.923    2512.4454   -44590.368    21.054186   0.92110305 
   59500    205.97189   -657.59118    135716.44   -42032.767    2562.6819   -44595.449    21.128826   0.92025325 
   59600    201.84728    -544.3182    135676.01     -42027.6     2511.364   -44538.964    21.074139   0.92052744 
   59700    202.78941   -645.80354    135646.65    -42039.79    2523.0858   -44562.876    21.077411   0.92072672 
   59800    204.42978   -505.85516    135573.02   -42032.702    2543.4951   -44576.197    21.051133   0.92122673 
   59900    204.22829   -564.23038    135675.82   -42014.216    2540.9881   -44555.204    21.081888   0.92052874 
   60000    203.79934   -641.36437    135728.74   -42055.393    2535.6512   -44591.044    21.163811   0.92016985 
   60100    206.26761   -597.79998    135663.03   -42023.492    2566.3612   -44589.854    21.145429   0.92061551 
   60200    203.51876   -592.55797    135704.53   -42007.724    2532.1603   -44539.884    21.253094   0.92033399 
   60300    207.69198   -694.67321    135690.15   -41960.175    2584.0831   -44544.258    21.133117   0.92043152 
   60400    207.84946   -467.76248     135724.1   -41914.804    2586.0425   -44500.846    21.269303   0.92020129 
   60500    205.66068   -609.59368    135700.65   -41960.299    2558.8098   -44519.109    21.141951   0.92036031 
   60600    205.84408    -629.5589    135671.06   -41997.417    2561.0917   -44558.509    21.276589   0.92056101 
   60700    205.42543   -590.24128    135644.62   -42020.044     2555.883   -44575.927    21.095344   0.92074045 
   60800    205.90389   -496.51849     135618.1   -41980.363    2561.8358   -44542.199    21.102732   0.92092052 
   60900     206.0409   -599.08291    135809.37   -41978.984    2563.5406   -44542.525    21.123096   0.91962353 
   61000    204.24168   -616.37319    135722.69   -42017.543    2541.1548   -44558.697    21.177798   0.92021086 
   61100    199.78431   -521.68906    135725.11    -42041.86    2485.6966   -44527.556    21.179046   0.92019443 
   61200    203.97597   -650.88894    135665.93   -42055.546    2537.8488   -44593.395    21.158504   0.92059587 
   61300    207.91799   -568.06079    135760.65   -42046.615    2586.8951    -44633.51    21.000987   0.91995355 
   61400    205.70815   -649.51727    135773.77   -42077.656    2559.4005   -44637.057    21.160219   0.91986464 
   61500    201.91744   -643.30443    135864.03   -42083.592    2512.2369   -44595.829    21.267939   0.91925352 
   61600    205.58595   -616.44938    135863.89   -42047.959      2557.88   -44605.839    21.246834   0.91925448 
   61700    199.29218   -580.14142    135762.77   -42123.052    2479.5735   -44602.625    21.124244   0.91993921 
   61800    198.00454   -556.22768    135744.15   -42181.092    2463.5529   -44644.645    21.236785   0.92006534 
   61900    203.39956   -585.45232    135778.46   -42125.704    2530.6772   -44656.381    21.205976   0.91983286 
   62000    203.87882   -461.53074    135945.54   -42087.506    2536.6401   -44624.146    21.307061   0.91870237 
   62100    201.86395   -592.82812    135930.38   -42098.825    2511.5714   -44610.396    21.230759   0.91880487 
   62200    209.54078   -648.86605       135854   -42052.792    2607.0856   -44659.878    21.151078   0.91932139 
   62300    202.41468   -605.78446    135835.38   -42077.007    2518.4234    -44595.43    21.413366   0.91944743 
   62400    202.84854   -685.70894    135778.06   -42027.707    2523.8215   -44551.529    21.278792    0.9198356 
   62500    203.99894   -581.91777    135694.93   -42041.145    2538.1347    -44579.28    21.247003   0.92039908 
   62600    204.15902   -509.78907    135760.42   -42035.405    2540.1264   -44575.531    21.222048    0.9199551 
   62700    206.06241   -589.55458    135718.24   -42058.592    2563.8082     -44622.4     21.17868   0.92024104 
   62800    203.39365    -570.6121     135580.5   -42053.632    2530.6036   -44584.236    21.143548   0.92117592 
   62900    207.90877   -552.91146       135560     -42003.2    2586.7803    -44589.98    21.262466   0.92131519 
   63000    203.64099   -669.54915    135592.33   -41964.257    2533.6811   -44497.938    21.332158   0.92109558 
   63100    207.87149   -564.11249    135659.09   -41952.826    2586.3165   -44539.142    21.357973   0.92064226 
   63200    203.42722   -688.77957    135615.12   -41993.585    2531.0213   -44524.607    21.319905   0.92094077 
   63300    209.82048   -722.33188    135558.04   -42020.949    2610.5657   -44631.514    21.412954   0.92132856 
   63400    211.21896    -511.9423    135555.06   -41935.764    2627.9655    -44563.73    21.338557   0.92134881 
   63500     208.1537   -663.02281    135685.61   -42020.512    2589.8278    -44610.34    21.262285   0.92046233 
   63600    206.37189   -512.63014       135537   -42018.543    2567.6586   -44586.202    21.320217   0.92147153 
   63700    205.04263   -661.18235    135649.72   -42029.002    2551.1202   -44580.123    21.284907   0.92070585 
   63800    200.73584   -563.37975    135567.74   -42123.452    2497.5355   -44620.987    21.460153    0.9212626 
   63900    203.11805   -619.66596    135581.23   -42107.822    2527.1747   -44634.997    21.388637   0.92117097 
   64000    204.46044   -609.47279    135608.16   -42103.204    2543.8766   -44647.081    21.481176     0.920988 
   64100    209.14206   -520.47088    135568.76   -42024.398    2602.1249   -44626.523    21.403826   0.92125567 
   64200    205.57527   -596.60679    135649.91   -42011.675    2557.7472   -44569.423    21.422608   0.92070454 
   64300    210.90226   -555.26986    135689.56   -41942.351     2624.025   -44566.376     21.41426   0.92043553 
   64400    205.73039   -693.69021    135745.07   -41967.741    2559.6772   -44527.418    21.339465   0.92005912 
   64500    208.54589   -640.44734    135814.11   -41968.601    2594.7074   -44563.308    21.475679   0.91959144 
   64600    208.07907   -770.49011    135771.28   -42008.263    2588.8992   -44597.163    21.346085   0.91988151 
   64700     203.1014   -676.20259    135761.43   -42042.111    2526.9675   -44569.079    21.405633   0.91994825 
   64800    208.82386   -604.42291    135661.52   -42043.056    2598.1658   -44641.222    21.385284   0.92062578 
   64900    206.66058   -591.86976    135689.57   -42019.501    2571.2504   -44590.751    21.367591   0.92043548 
   65000    207.30178   -791.80821    135603.97   -41989.129    2579.2282   -44568.357    21.244759    0.9210165 
   65100    204.83657   -629.93543    135653.09   -42017.132    2548.5564   -44565.688    21.458842   0.92068297 
   65200    209.04126   -663.90763    135434.93    -42004.87    2600.8707   -44605.741    21.309463   0.92216605 
   65300    209.60324   -528.88622    135424.99   -42002.259    2607.8628   -44610.122    21.328712   0.92223368 
   65400    210.34311   -671.43998    135628.94   -41956.241    2617.0682    -44573.31    21.284761   0.92084691 
   65500    208.87705   -743.66554    135555.83   -42027.545    2598.8276   -44626.373    21.376031   0.92134355 
   65600    205.83936   -628.23851    135462.09   -42064.847    2561.0329    -44625.88    21.352525   0.92198114 
   65700    206.20725   -555.42612    135378.49   -42110.659    2565.6103    -44676.27    21.398144   0.92255051 
   65800    199.28184   -581.64685    135431.85   -42114.101    2479.4449   -44593.546    21.449741   0.92218703 
   65900     201.7176   -631.38197    135462.03   -42084.863    2509.7505   -44594.614    21.470765   0.92198155 
   66000    208.61982   -606.89163     135391.3   -41993.414    2595.6271   -44589.041    21.443956    0.9224632 
   66100    208.31335   -545.47204    135344.84   -41950.467     2591.814   -44542.281    21.397889   0.92277984 
   66200     211.6814    -544.1203    135372.87    -41915.88     2633.719   -44549.599    21.412617   0.92258879 
   66300    204.65132   -593.61153    135460.49   -41951.199    2546.2515   -44497.451    21.485474   0.92199204 
   66400    205.12365   -647.22612       135380   -42000.104    2552.1281   -44552.232    21.410129   0.92254018 
   66500    203.96829   -608.64616    135337.54   -42024.093    2537.7533   -44561.846    21.555727   0.92282964 
   66600    205.22299   -607.18249    135456.61   -42046.836    2553.3642     -44600.2    21.452248   0.92201843 
   66700    201.64226     -636.069    135356.64   -42065.764     2508.813   -44574.577    21.386359   0.92269942 
   66800    206.42717   -609.68849    135419.43   -42005.195    2568.3465   -44573.542    21.562324   0.92227156 
[...]
   84600    204.12334   -573.38436     135599.4   -42149.499    2539.6824   -44689.181     22.93838   0.92104753 
   84700    201.20016   -567.93796    135638.16   -42155.624    2503.3125   -44658.936    23.052941   0.92078434 
   84800    201.92713   -499.26218    135691.34   -42124.759    2512.3574   -44637.117    23.101251   0.92042347 
   84900    203.28939   -604.00692    135647.99   -42115.372    2529.3065   -44644.679    22.935583   0.92071758 
   85000    203.38791   -684.74087    135540.04   -42070.078    2530.5322   -44600.611    22.896399   0.92145091 
   85100    203.40751   -584.86891    135607.12   -42064.411    2530.7761   -44595.187    23.067871   0.92099505 
   85200    203.51357    -606.6374    135542.66   -42075.306    2532.0957   -44607.401    23.057079   0.92143306 
   85300    203.42282   -640.13198     135454.4   -42098.653    2530.9666   -44629.619    23.043075   0.92203346 
   85400    202.42611    -498.1281    135607.36     -42088.4    2518.5657   -44606.966    23.080137   0.92099343 
   85500    205.60848   -571.70881    135643.97   -42052.748    2558.1604   -44610.908    23.148542   0.92074487 
   85600    209.71531   -633.84386    135504.09   -42039.465    2609.2571   -44648.722    23.083378   0.92169534 
   85700    205.47277   -580.09594    135380.96   -42085.504    2556.4719   -44641.976    23.136623   0.92253363 
   85800    205.42696   -655.59965    135516.03   -42082.512     2555.902   -44638.414    23.161749   0.92161416 
   85900    201.23993   -595.73544    135452.09    -41995.57    2503.8073   -44499.377     23.16031   0.92204921 
   86000     208.4647   -593.84173    135633.97   -42041.145    2593.6972   -44634.843    23.150762   0.92081275 
   86100    208.09803    -615.5394    135495.68   -42041.517    2589.1351   -44630.652    23.260533   0.92175258 
   86200    207.19556   -565.17215    135538.43    -42009.03    2577.9067   -44586.936    23.252934   0.92146183 
   86300    204.98091   -562.53097     135568.9    -42049.26    2550.3522   -44599.612    23.384369   0.92125476 
   86400    203.18604   -719.19307    135526.12   -42059.653    2528.0206   -44587.674    23.280794   0.92154552 
   86500    205.65192    -534.8971     135634.6   -42044.981    2558.7009   -44603.682    23.238254   0.92080849 
   86600    209.78283   -530.55039    135582.44   -42005.919    2610.0973   -44616.016    23.309755   0.92116274 
   86700    206.03425   -698.82405    135622.95   -42002.245    2563.4578   -44565.702    23.294051   0.92088759 
   86800    203.96473   -507.07774    135643.22   -42073.618     2537.709   -44611.327    23.264693      0.92075 
   86900    209.78792    -481.0063    135604.08   -42040.516    2610.1605   -44650.677    23.282946   0.92101573 
   87000    204.38572    -674.3693     135552.3   -42054.313    2542.9469    -44597.26    23.373643   0.92136754 
   87100    205.30204   -608.50717    135475.52   -42074.947    2554.3477   -44629.294    23.165091   0.92188976 
   87200    208.23284   -511.00064    135399.03   -42082.665    2590.8124   -44673.477    23.177161    0.9224105 
   87300    205.22877   -657.12837    135352.14   -42075.047    2553.4361   -44628.483    23.263887   0.92273009 
   87400    202.96817   -609.62129    135349.79   -42081.341    2525.3099   -44606.651    23.272351   0.92274613 
   87500    203.50543    -601.5963    135429.66   -42080.305    2531.9945     -44612.3    23.397962   0.92220194 
   87600    203.23542   -756.31932    135435.27   -42070.034     2528.635   -44598.669    23.346767   0.92216371 
   87700    205.71883    -608.5298    135471.62   -42085.886    2559.5333   -44645.419    23.419898   0.92191625 
   87800    204.59396   -569.74629    135404.26   -42066.962    2545.5379   -44612.499    23.447236   0.92237492 
   87900    204.93097   -600.15451    135392.67   -42089.063    2549.7309   -44638.794    23.348997   0.92245385 
   88000    203.16999   -598.88985    135391.37   -42107.419    2527.8209    -44635.24     23.41198   0.92246271 
   88100    203.70676   -594.57043    135293.68   -42043.872    2534.4994   -44578.372    23.331975   0.92312877 
   88200    204.11488   -647.52068    135246.55   -42005.782    2539.5772   -44545.359    23.301457   0.92345048 
   88300    204.82084   -561.97246    135428.66   -42050.112    2548.3606   -44598.473    23.379893   0.92220872 
   88400    202.47824   -588.53829    135409.99   -42143.478    2519.2143   -44662.692    23.404222   0.92233586 
   88500    201.04556   -507.57655    135414.29   -42072.336     2501.389   -44573.725    23.366772   0.92230658 
   88600    203.02643   -606.50831    135432.35   -42014.972    2526.0348   -44541.007    23.332494   0.92218358 
   88700    208.57111   -523.50037     135481.4   -41993.581    2595.0211   -44588.602    23.316661    0.9218497 
   88800    208.06165    -620.0371    135469.69   -41938.089    2588.6825   -44526.771    23.285708   0.92192939 
   88900    203.97888   -551.42898    135458.64   -41979.582    2537.8851   -44517.467    23.311002   0.92200458 
   89000    206.70497   -610.00824     135452.6   -41976.148    2571.8028   -44547.951    23.405009   0.92204573 
   89100     202.1342   -596.41583    135553.37   -42059.094    2514.9337   -44574.027    23.384253    0.9213603 
   89200    200.29796   -686.18253    135537.05   -42089.418    2492.0875   -44581.506    23.416755   0.92147123 
   89300    203.86549   -612.06384     135507.3     -42106.3    2536.4742   -44642.775    23.416226   0.92167352 
   89400    200.76799   -639.69316    135565.29   -42124.943    2497.9355   -44622.878    23.358184   0.92127929 
   89500    199.05685   -580.95435    135425.31   -42140.003    2476.6456   -44616.648    23.385269   0.92223156 
   89600    199.27345   -699.83859     135501.9   -42171.594    2479.3405   -44650.935    23.486997   0.92171027 
   89700    202.54964   -569.85319    135522.13   -42128.329    2520.1026   -44648.431     23.43515   0.92157265 
   89800    204.08739   -589.15268    135448.19   -42105.615    2539.2351    -44644.85    23.415018   0.92207576 
   89900    202.47636   -513.36064    135461.78   -42165.471    2519.1909   -44684.662    23.344257   0.92198322 
   90000    205.25006   -704.10241     135563.7   -42076.423     2553.701   -44630.124    23.387461   0.92129008 
   90100    202.70943   -601.98243    135611.45   -42080.701    2522.0907   -44602.792    23.398486   0.92096565 
   90200    203.20274   -606.09317    135502.96   -42123.955    2528.2285   -44652.184    23.531748   0.92170305 
   90300    203.56445   -614.16141     135496.6   -42140.554    2532.7288   -44673.283    23.469164    0.9217463 
   90400    205.08402    -585.2921    135565.42   -42134.033    2551.6351   -44685.668    23.605381   0.92127837 
   90500     203.8272   -682.38248    135587.54   -42101.125    2535.9979   -44637.123    23.585548   0.92112812 
   90600    203.27018   -579.45573    135569.88   -42022.044    2529.0675   -44551.112    23.626125   0.92124804 
   90700    206.06626   -549.03446    135661.08   -42016.726     2563.856   -44580.582    23.565067   0.92062875 
   90800    201.58227   -454.73407    135702.14   -42060.304    2508.0667    -44568.37    23.659214    0.9203502 
   90900    203.61363   -738.43377    135665.72   -42135.216    2533.3407   -44668.556    23.520633    0.9205973 
   91000    202.53064   -591.82479    135673.21   -42152.152    2519.8662   -44672.019    23.540521   0.92054647 
   91100    202.57316   -570.99368    135701.75   -42137.317    2520.3952   -44657.712    23.611208   0.92035284 
   91200    204.19214   -582.84044    135600.26   -42098.621    2540.5384   -44639.159    23.539226   0.92104168 
   91300    205.48532   -612.72275    135550.01   -42014.518     2556.628   -44571.146    23.585119   0.92138311 
   91400    204.21176    -689.3051    135551.49   -41974.917    2540.7825     -44515.7    23.529744   0.92137304 
   91500    205.56414   -652.82729    135615.02   -41981.268    2557.6088   -44538.876    23.599109   0.92094146 
   91600     204.1879   -646.67533    135696.57   -42017.491    2540.4857   -44557.976    23.679635   0.92038799 
   91700    205.03928    -675.3165    135698.64   -42091.045    2551.0785   -44642.123    23.646839    0.9203739 
   91800     205.1745   -629.91601    135663.46    -42064.94    2552.7609   -44617.701    23.738351   0.92061257 
   91900    204.31691   -540.62198    135727.87   -42063.718    2542.0909   -44605.809    23.693878   0.92017573 
   92000    203.42418   -545.08663    135789.96   -42072.172    2530.9835   -44603.155    23.665169   0.91975496 
   92100    199.48776     -652.553    135769.58   -42114.718     2482.007   -44596.725    23.700949   0.91989302 
   92200    201.06996   -633.61626     135727.5   -42054.151    2501.6926   -44555.843    23.792625   0.92017827 
   92300    208.10774   -590.24635    135675.68   -41994.326    2589.2559   -44583.582    23.718318   0.92052971 
   92400    206.56465   -643.19039    135636.81   -41998.743    2570.0569     -44568.8    23.751129   0.92079347 
   92500    204.96614   -575.72411    135687.81   -42038.058    2550.1685   -44588.226    23.791883   0.92044741 
   92600    208.17041   -625.31222    135684.67   -42028.793    2590.0356   -44618.828    23.749194   0.92046872 
   92700    204.06326   -637.83405    135647.78   -42018.986     2538.935   -44557.921    23.911126   0.92071903 
   92800    203.28401   -674.49083    135806.83   -42056.563    2529.2395   -44585.802    23.781386    0.9196407 
   92900    209.07124   -591.50312    135844.91   -42028.612    2601.2437   -44629.856     23.92908   0.91938293 
   93000    205.41004   -625.98739     135970.3   -42054.172    2555.6914   -44609.863    23.843269   0.91853511 
   93100    207.45322   -648.22789     136016.6   -42003.078    2581.1125    -44584.19    23.829925   0.91822241 
   93200    205.09244   -692.52093    135856.19    -42031.86    2551.7399     -44583.6    23.841959   0.91930658 
   93300    203.93403   -578.46827    135762.26   -42066.147    2537.3271   -44603.474    23.831617   0.91994261 
   93400    207.58918   -421.82675    135760.31   -42093.343    2582.8041   -44676.147    23.817636   0.91995583 
   93500    204.17449   -521.17547    135723.29   -42134.294    2540.3188   -44674.613    23.818759   0.92020678 
   93600    204.59681   -563.67878    135746.69   -42197.601    2545.5733   -44743.174      23.8115   0.92004817 
   93700    201.79998   -538.01449    135726.12   -42161.163    2510.7754   -44671.938     23.84439   0.92018757 
   93800    205.58898    -648.2628    135727.23   -42122.696    2557.9177   -44680.614    23.869295   0.92018004 
   93900    204.11607   -540.32656       135737   -42116.455     2539.592   -44656.047    23.819952   0.92011386 
   94000    202.58138   -610.84281     135710.3   -42116.827    2520.4975   -44637.325    23.954812   0.92029486 
   94100    204.66849   -605.65732    135666.33   -42123.263    2546.4652   -44669.728    23.780157   0.92059315 
   94200    203.31975   -578.42454    135524.75   -42105.351    2529.6842   -44635.035    23.759941   0.92155483 
   94300    205.21413   -706.45747    135499.13   -42064.366    2553.2539    -44617.62    23.771324   0.92172912 
   94400    210.18741   -509.14964    135694.23   -42049.308     2615.131   -44664.439    23.749321   0.92040381 
   94500    208.88614    -621.2675    135759.44   -41996.203    2598.9407   -44595.144    23.821189   0.91996173 
   94600    208.77024   -629.23227    135723.44   -42047.976    2597.4987   -44645.474    23.846174   0.92020579 
   94700     207.5977   -555.66334    135676.56   -42091.714    2582.9101   -44674.624    23.861119    0.9205237 
   94800    205.28175   -549.61669     135673.2   -42084.471    2554.0953   -44638.566    23.838652   0.92054653 
   94900    209.88605   -594.29227    135684.43    -42065.29    2611.3815   -44676.671    23.903329   0.92047034 
   95000    207.63094   -601.00401    135716.76   -42037.074    2583.3236   -44620.398    23.866846   0.92025104 
   95100    205.68996   -616.05662     135735.6   -42044.081    2559.1741   -44603.255    23.960993   0.92012335 
   95200    206.05376   -667.17374    135741.51   -42052.851    2563.7006   -44616.552    23.913343   0.92008326 
   95300    208.28316   -664.82167    135752.73   -41954.768    2591.4385   -44546.206    23.900437   0.92000723 
   95400    206.14494   -647.17007    135745.28   -42026.591     2564.835   -44591.426    23.867807   0.92005768 
   95500    207.65143   -600.12841    135875.04   -42019.534    2583.5785   -44603.113    23.839887   0.91917903 
   95600    205.63321   -540.70939    135893.32   -42019.645    2558.4681   -44578.113    23.937803   0.91905539 
   95700    205.05558   -515.15359    135966.01   -42070.499    2551.2813    -44621.78    23.923557   0.91856408 
   95800    201.18998   -615.19166    136003.68   -42125.613    2503.1859   -44628.799    23.867956   0.91830963 
   95900    204.54477   -688.75626    136033.59   -42080.345    2544.9258   -44625.271    23.820971   0.91810772 
   96000    205.08028   -629.78673    136012.44   -42157.844    2551.5886   -44709.432    24.080499   0.91825048 
   96100    205.31317   -600.38724    136023.93   -42114.968    2554.4861   -44669.454    23.974712    0.9181729 
   96200    202.94527   -706.88857    136050.52   -42149.093     2525.025   -44674.118    23.851306   0.91799346 
   96300    206.71895   -562.20323    136093.05   -42103.707    2571.9767   -44675.684    23.793711   0.91770657 
   96400    204.62552   -650.74391    136061.72   -42085.723    2545.9306   -44631.654    23.952221   0.91791793 
   96500    203.88923    -611.4707    135999.35   -42126.043    2536.7696   -44662.812    24.117623   0.91833886 
   96600    203.43496    -549.3766    136076.38   -42116.893    2531.1176   -44648.011      24.0518   0.91781905 
   96700    203.12546   -626.28116    136105.51   -42183.909    2527.2668   -44711.176    24.005201   0.91762262 
   96800    197.70801   -622.83605    135873.03   -42211.483    2459.8635   -44671.347    23.993363   0.91919266 
   96900    203.11301   -593.76174    135987.16   -42139.323     2527.112   -44666.435    23.911489   0.91842119 
   97000    203.20847   -651.56066    135962.35   -42150.951    2528.2997   -44679.251    23.985485   0.91858881 
   97100    203.26185   -620.58973    135939.66   -42136.448    2528.9639   -44665.412    23.976417    0.9187421 
   97200    204.07697   -513.03173    135916.18   -42140.794    2539.1055     -44679.9    23.990669   0.91890085 
   97300    203.94294    -566.8813    135883.24    -42131.78    2537.4379   -44669.218    23.917565   0.91912361 
   97400     203.7384   -656.69165    135892.56   -42136.566    2534.8931    -44671.46    24.034994   0.91906053 
   97500    204.95676   -754.31069    135875.82   -42037.312    2550.0517   -44587.363    24.014001    0.9191738 
   97600    204.41547   -608.59824     136004.3   -42102.484    2543.3171   -44645.801    23.938698   0.91830544 
   97700    204.41438   -521.54684    135979.66   -42053.015    2543.3035   -44596.318    23.951445   0.91847183 
   97800    206.36611    -648.5745    135949.68   -42022.814    2567.5867     -44590.4    24.005794   0.91867443 
   97900    207.62626   -567.98693       135931   -41995.387    2583.2655   -44578.653    24.111781   0.91880066 
   98000    205.55493   -583.69638    135947.04   -42014.892    2557.4941   -44572.386    24.187181   0.91869226 
   98100    201.75906   -560.90415    136085.76    -42090.29    2510.2662   -44600.557    24.079459   0.91775576 
   98200    206.32747   -662.43444    135970.12   -42067.871     2567.106   -44634.977    24.009116   0.91853628 
   98300    205.81246   -586.58716    135894.09   -42090.571    2560.6983   -44651.269    24.002895    0.9190502 
   98400    205.22761   -677.30601    135846.94   -42100.821    2553.4216   -44654.243    24.190673   0.91936921 
   98500    200.16469   -634.19699     135777.2   -42107.195    2490.4293   -44597.624     24.05077   0.91984139 
   98600    199.62155   -550.73921    135811.32   -42119.708    2483.6716    -44603.38     24.01312   0.91961031 
   98700    203.50709   -709.41094     135792.1   -42161.517    2532.0151   -44693.532    23.971218    0.9197405 
   98800    199.52456   -608.35596    135897.17   -42127.131    2482.4649   -44609.596    24.103906   0.91902939 
   98900     205.2656   -605.11372    135915.66   -42136.532    2553.8943   -44690.426    24.018398   0.91890436 
   99000    201.18166   -597.04518    135877.55   -42167.467    2503.0823   -44670.549    24.008659   0.91916205 
   99100    203.42698   -647.74143    135891.91   -42098.761    2531.0184   -44629.779    23.996779   0.91906496 
   99200    202.34759   -650.29383    135786.18   -42086.269    2517.5887   -44603.858    24.068512   0.91978055 
   99300    203.14695   -619.49565    135686.19    -42043.66    2527.5342   -44571.194    24.101663    0.9204584 
   99400    204.71095    -613.3546    135805.98   -42020.909    2546.9934   -44567.903     24.03452   0.91964646 
   99500    208.49172   -605.94632     135787.5    -41906.17    2594.0334   -44500.203    23.976648   0.91977167 
   99600    208.44396   -529.00526    135706.06   -41951.805    2593.4392   -44545.244    23.977181   0.92032364 
   99700    210.37887    -606.3192    135893.82   -41956.598    2617.5131   -44574.111    24.079043   0.91905206 
   99800    205.94623   -680.33523    135918.47   -41973.642    2562.3626   -44536.005    24.164313   0.91888535 
   99900    206.27804   -656.47114     135744.5   -42044.255    2566.4909   -44610.746    23.915749   0.92006296 
  100000    202.41907   -612.01454    135775.51    -42042.12     2518.478   -44560.598    24.143591   0.91985288 
  100100    208.85942   -592.76225     135787.3   -41986.621    2598.6083    -44585.23    23.979402   0.91977302 
  100200     206.9658   -618.46437    135810.83   -41983.006     2575.048   -44558.054    24.091888   0.91961364 
  100300    207.79241   -528.30826    135742.56   -41970.582    2585.3326   -44555.914    24.065609   0.92007613 
  100400    207.34357   -580.51958     135844.4   -42008.146    2579.7482   -44587.894    24.032809   0.91938636 
  100500     209.4903   -535.37725    135798.34   -41938.402    2606.4577    -44544.86    24.227837   0.91969819 
  100600    205.36024   -607.81977    135708.09   -42004.193    2555.0718   -44559.265    24.013861   0.92030985 
  100631    206.28132    -596.0287    135706.67   -41992.396    2566.5318   -44558.928    24.015135   0.92031947 
Loop time of 446.794 on 1 procs for 100000 steps with 4175 atoms

Performance: 96.689 ns/day, 0.248 hours/ns, 223.817 timesteps/s
100.0% CPU use with 1 MPI tasks x no OpenMP threads

MPI task timing breakdown:
Section |  min time  |  avg time  |  max time  |%varavg| %total
---------------------------------------------------------------
Pair    | 402.74     | 402.74     | 402.74     |   0.0 | 90.14
Neigh   | 31.312     | 31.312     | 31.312     |   0.0 |  7.01
Comm    | 2.0214     | 2.0214     | 2.0214     |   0.0 |  0.45
Output  | 0.9181     | 0.9181     | 0.9181     |   0.0 |  0.21
Modify  | 8.3358     | 8.3358     | 8.3358     |   0.0 |  1.87
Other   |            | 1.464      |            |       |  0.33

Nlocal:        4175.00 ave        4175 max        4175 min
Histogram: 1 0 0 0 0 0 0 0 0 0
Nghost:        3655.00 ave        3655 max        3655 min
Histogram: 1 0 0 0 0 0 0 0 0 0
Neighs:        0.00000 ave           0 max           0 min
Histogram: 1 0 0 0 0 0 0 0 0 0
FullNghs:     112344.0 ave      112344 max      112344 min
Histogram: 1 0 0 0 0 0 0 0 0 0

Total # of neighbors = 112344
Ave neighs/atom = 26.908743
Neighbor list builds = 5057
Dangerous builds = 0

undump              1
unfix               2
unfix               3
unfix               4


################################################
#######         Run Simulation         #########
################################################

reset_timestep      0
log                 log.run_${NAME}
log                 log.run_liquid_density_MLmW
