LAMMPS data file via write_data, version 29 Oct 2020, timestep = 800000

4175 atoms
1 atom types

-0.6148180477112994 50.614818047714465 xlo xhi
-0.6148180477112994 50.614818047714465 ylo yhi
-0.6148180477112994 50.614818047714465 zlo zhi

Masses

1 18.015

Atoms # atomic

2016 1 1.298183914263669 -0.4463947246901685 0.26442115125549104 0 0 1
490 1 -0.20818371157553323 0.840895475548948 2.485624144687452 1 0 0
267 1 3.8238763241983245 1.0560648902866918 0.8268503087081918 1 0 0
1980 1 6.191683132772901 -0.2751657019810956 -0.5881936580870786 0 0 1
437 1 9.602725459560233 2.1015249744796387 2.4051527562287425 0 0 0
4134 1 8.760640495610588 -0.5714904438822493 2.5331810215502877 1 1 1
1885 1 13.43426563242904 0.4582280656996891 0.8705632211594574 0 0 1
55 1 11.66616387688637 2.380697154034774 0.5707038844732659 0 0 0
1972 1 15.790716077714979 1.9840704228028012 1.6384269471716362 0 0 1
576 1 18.351680298276836 0.5275217319668208 2.4228768317339746 0 0 0
2665 1 21.780759524524395 2.3298104144402534 0.6398159201771274 0 1 0
2752 1 23.997575513752736 2.0954507486628793 2.1930655165091535 0 1 0
1695 1 26.049709164828602 0.3353139071402784 1.274865632565741 0 0 1
74 1 28.455650793833886 0.5444840991785835 2.5246377536538716 0 0 0
1632 1 32.124649603810695 2.472914904044969 2.797277626153439 0 0 1
4133 1 34.40111067074781 -0.3099127159666834 -0.36706957025346143 0 1 1
1463 1 36.265835755498 0.9036283788346171 1.4344093167439125 0 0 1
1963 1 38.67804117868371 -0.34933607437012437 2.1758830619961618 0 0 1
2394 1 40.42942791612931 1.7913025235013875 2.1820744213797383 0 1 0
2421 1 42.780488064036234 0.8644374163412278 1.326544498669267 0 1 0
281 1 48.55546998300477 0.3231229509820931 0.6459249709283852 0 0 0
1473 1 3.1162555857553134 3.5422569801588386 0.1872866787996037 1 0 1
1494 1 3.7677327713352016 5.332455307732146 2.0748057879050044 1 0 1
169 1 7.883989402013482 3.8951268741567784 1.4983838753489147 0 0 0
57 1 12.729623642106205 5.004591393070253 0.09483567882520816 0 0 0
3696 1 16.57445588338953 3.6078050815873244 -0.447904463707971 0 1 1
1819 1 18.632521295347292 4.957753421239828 0.4250343136182475 0 0 1
179 1 19.664000096784267 2.870648518737909 2.0575123224593557 0 0 0
2593 1 27.496757621968392 5.238833001093682 2.17942019921128 0 1 0
115 1 29.708177006008224 2.9470397154635974 1.5973697691800441 0 0 0
3155 1 33.2303608915788 4.857579948935865 1.5526623298192588 0 1 0
96 1 35.90934310215145 4.882785038040405 2.2100741090712446 0 0 0
604 1 37.025727238791504 3.2189407724550714 0.3745821204563625 0 0 0
2041 1 39.52491228395502 2.685052777938528 -0.26529263019081906 0 0 1
2001 1 44.30717168695101 3.1444895548714262 0.49815718523786745 0 0 1
3751 1 49.608964663681206 3.163568702068709 0.6049618250175912 0 1 1
121 1 48.28974501620985 5.431158624464184 2.021312401831324 0 0 0
174 1 4.076061839093964 8.036276995799133 1.570105701739334 1 0 0
1262 1 6.416218561680792 7.8503498195688355 0.32793151679573984 0 0 0
564 1 8.597545180770824 6.388292506803493 1.2799402421319757 0 0 0
1517 1 10.599003480084729 6.841443418516443 -0.5553205715983864 0 0 1
219 1 13.555490031140764 5.972384195724066 2.7647839753767327 0 0 0
1770 1 14.332494077088999 8.512553037203217 2.4248219135721523 0 0 1
223 1 16.521383310794036 8.85822326067898 0.88931890681921 0 0 0
548 1 18.547535269956388 7.590496956851551 1.879591568403173 0 0 0
474 1 21.064178743311462 8.610054795687768 0.5006257993022769 0 0 0
1628 1 23.014695819232063 6.930194222472485 0.8826297189072099 0 0 1
434 1 27.011878941623994 6.965066300745705 0.05727558492207674 0 0 0
339 1 31.786307975700023 7.128488070355493 2.077776345284995 0 0 0
3460 1 36.49787988906672 7.313529296932098 1.3656673964485884 0 1 0
1854 1 39.34157589180043 7.122030466071643 1.0424300272296108 0 0 1
1805 1 43.058394917636804 8.223530221240487 1.2301823082168475 0 0 1
1874 1 47.349305126967025 6.865530777796061 -0.1080165515137057 0 0 1
87 1 1.9243811140774816 9.303294748473249 0.8516381684828205 0 0 0
56 1 3.226037566502324 11.936721003796835 0.60644750485218 1 0 0
426 1 8.286540794566587 11.556583938545232 2.0294691167179364 0 0 0
458 1 7.338811404351444 10.564327013878861 -0.30604136962549444 0 0 0
301 1 12.658729548296387 10.384500714973242 1.6308780626829291 0 0 0
1761 1 17.322917310908124 11.59733028228974 0.6167190704892611 0 0 1
410 1 22.564520596725078 10.758585537488326 1.8518152868233293 0 0 0
251 1 24.971375309876034 9.039308230657179 0.6306836976529264 0 0 0
192 1 28.942629064601803 9.050455117780857 -0.33391986784051675 0 0 0
1910 1 27.55786233908178 10.414427765412457 1.6442632103222654 0 0 1
1692 1 31.99340734614086 11.190291991824912 2.76472358694389 0 0 1
1631 1 32.97002167862797 11.443109689924336 0.011251730741637989 0 0 1
882 1 36.39357204196486 11.537394140527446 2.5728645345043377 0 0 0
1559 1 40.478849050680026 9.354417052540747 0.2794293467740715 0 0 1
20 1 39.20430513312499 10.814468960528442 2.450033760796066 0 0 0
594 1 43.87473453271899 12.150781588094857 2.3285518452950376 0 0 0
691 1 45.326116244461545 9.766407912541634 2.084612296807345 0 0 0
1849 1 47.32893353411265 9.684690650899922 0.28285399197233574 0 0 1
3821 1 48.99638106402351 10.654912179077392 2.3100896386064975 0 0 1
1659 1 1.203360789726192 13.349257884359858 -0.4117084163045684 1 0 1
457 1 7.109827947505027 15.32773771433009 0.7951431012619119 0 0 0
607 1 9.08058635748698 13.846719608856503 1.8547173127421366 0 0 0
302 1 11.38327692847288 14.223294262141248 0.3746659927394339 0 0 0
1928 1 13.53306468533483 12.761698767232497 1.4562939323768864 0 0 1
2027 1 15.51274377601716 13.337416306816262 -0.5868190824286614 0 0 1
178 1 19.418013432125296 14.830789860143094 2.722053328128001 0 0 0
570 1 21.49054664679959 15.02150883086048 0.9145804556460109 0 0 0
1531 1 23.782835151109982 13.543693410701772 1.773870809193137 0 0 1
1541 1 25.51275862469382 13.229211493372905 -0.39372168162959886 0 0 1
338 1 27.807511907286333 13.228716451787058 1.1893403287853133 0 0 0
3635 1 31.8200768087389 13.81818079594531 -0.4824621261797688 0 0 1
545 1 35.62631967605597 12.341470525436305 0.20923326490099858 0 0 0
1693 1 37.56736372340623 14.498813581454305 -0.03924954143087356 0 0 1
119 1 41.33508610113962 12.552600710666143 1.278163799323945 0 0 0
438 1 39.68631780732851 15.220910030348243 1.6697611098351617 0 0 0
1954 1 45.666959349746335 14.168306078043816 2.2567457724129865 0 0 1
562 1 48.18691481509356 14.621786192832737 0.7903130324653278 0 0 0
1733 1 50.404837715239964 12.810028126243424 1.5204253798654737 0 0 1
191 1 2.3803797871775587 15.912203291194842 -0.5657323657146662 0 0 0
50 1 2.915855203727278 16.922883872492154 1.8981780239887787 1 0 0
311 1 7.6074898262020465 17.98168441721256 1.1194939640341448 0 0 0
205 1 11.966230191200598 17.194185238711164 0.1867528319661238 0 0 0
22 1 12.764607249184117 17.975866519051987 2.6845939501837046 0 0 0
2493 1 17.267575022764706 16.67057197542242 2.1414492032185604 0 0 0
1699 1 15.937824933406798 15.982173938195938 -0.43826098998537666 0 0 1
796 1 22.334013110133487 17.7742586189288 1.2104071291918737 0 0 0
172 1 24.623518143488226 17.648349704221268 -0.3368843261273527 0 0 0
2475 1 26.717598953588734 17.523485040783886 1.5880791399870806 0 0 0
402 1 33.01420452923536 16.20181206363207 0.8170786261944061 0 0 0
869 1 35.834058788264656 16.586540532951403 1.1437706404358632 0 0 0
2652 1 40.77420756939652 17.550183325522326 0.7350199544018741 0 0 0
2049 1 45.34171766246807 16.926750198215153 1.0746189644522968 0 0 1
1902 1 49.21236540592527 16.95585370353456 -0.03761234202801844 -1 0 1
666 1 49.938485540341105 18.057801096084795 2.4213613399087848 0 0 0
2438 1 1.2833592380065486 20.573412193268226 0.9155669829413817 1 0 0
443 1 3.6355150187369363 19.708074301980478 1.9858064691337853 1 0 0
1779 1 5.539818819692388 19.69747326575365 0.1204619690269304 0 0 1
1525 1 13.904820708242818 20.48731664367268 2.190505021642452 0 0 1
622 1 11.479422976471705 21.614736548591843 1.041902854121148 0 0 0
693 1 16.25510290139491 20.689895795891644 0.6330468135362208 0 0 0
678 1 18.032694019232007 19.20832222678909 1.9248427065636604 0 0 0
2071 1 20.253962962354322 19.322701616686846 0.20051203378024962 0 0 1
1445 1 29.9440529096185 19.328277478959652 1.4100860619329678 0 0 1
4084 1 32.42646539375272 18.887863484511495 0.2508581636159447 0 0 1
1888 1 34.11906466239952 20.624680489285563 1.8915063390476408 0 0 1
188 1 36.5130336836517 19.18928747855122 1.4452670663852083 0 0 0
299 1 40.854010082589696 19.85790782543625 2.2304128990803274 0 0 0
275 1 42.71831493481248 21.005639591347247 0.0029507921464428932 0 0 0
2426 1 45.254228346331914 20.914064326186462 1.402860150587852 0 0 0
3887 1 47.48388034192594 20.71055127655789 -0.24145510431177086 0 0 1
3968 1 49.762709981500805 20.65579285927505 1.7534237934444277 0 0 1
2043 1 1.7985695326724023 23.401402282513807 0.9920498383955172 1 0 1
3518 1 4.241205720345961 24.190351653654652 -0.04958963497717406 0 0 1
2167 1 6.285583485386956 22.289687428940734 0.4418282016343693 0 0 0
3872 1 11.559496041440433 24.233025938536723 0.2664143650114793 0 0 1
2500 1 17.384429608546053 23.493626267786546 0.2509418295090041 0 0 0
640 1 21.368017866487996 21.984668993042817 0.6788678943424624 0 0 0
361 1 23.80494668036721 22.672120047739455 0.011371917417091648 0 0 0
2179 1 25.421600818573744 22.3031453843778 2.1159876274425504 0 0 0
2538 1 27.79892274654946 23.77113927002922 2.0926812209981986 0 0 0
3646 1 29.74940750360613 22.064239699244872 1.4798026440983372 0 0 1
3732 1 31.808878359414688 24.251065963122457 1.870210650526034 0 0 1
671 1 34.492128693339154 23.360826006660233 1.210661564287473 0 0 0
151 1 40.05931877680649 22.5211774929382 1.153533844007213 0 0 0
312 1 0.8798600163080841 2.4069441585380535 4.463634890234724 1 0 0
3936 1 2.983309789889352 0.8957696322012172 5.59744794223102 1 1 1
2542 1 4.611595992346288 1.1776981522582168 3.3008302897279638 1 1 0
203 1 11.922893854968766 1.8011326308189761 6.199257311631589 0 0 0
3680 1 23.14670045345268 0.34033483899570116 4.151540768465364 0 1 1
4135 1 21.701188835051585 2.0828874130061843 6.118494291883415 0 1 1
2811 1 27.402141707851726 0.446673540293969 5.169746757214728 0 1 0
2517 1 31.514048916542382 2.5484877450081944 5.459349346279066 0 1 0
285 1 31.356764281275073 -0.10858901197873216 5.871364996315605 0 0 0
987 1 34.42783313996348 0.6128709792688134 3.430457873614822 0 0 0
430 1 35.99934631524866 0.26629844072594455 5.6212299168209094 0 0 0
2418 1 40.15660497378296 -0.39354615240304724 5.646373942392398 0 1 0
2153 1 44.33170317839442 0.09855974859982142 3.4012223382020093 0 1 0
2331 1 44.06762945500505 2.290848075727986 4.99055610463993 0 1 0
432 1 1.6421475477435359 4.910057092089151 3.5779351765239866 1 0 0
118 1 2.2562002141339863 5.77251063263941 5.968616361017164 0 0 0
2037 1 5.700836076753421 3.548734387846233 3.1063940468262876 1 0 1
80 1 6.320142603987575 4.7507431202706165 5.435925348133365 0 0 0
379 1 10.329132498332944 3.3786724268031256 4.667203991370051 0 0 0
2031 1 14.388929529441633 3.2721511407045374 5.800085102278794 0 0 1
107 1 15.205439797682468 4.018795096874579 3.2647030163661492 0 0 0
155 1 20.007895598960637 3.8308340736936053 4.914628818020023 0 0 0
442 1 17.475718635487034 5.4032549072238885 3.677098292395094 0 0 0
1655 1 25.452460324493547 4.176421281257249 3.360136924814689 0 0 1
976 1 26.983007341165788 3.005011379581977 5.695253737044966 0 0 0
67 1 29.380683296269424 4.468815294478559 5.633183316243826 0 0 0
69 1 37.287034007231426 4.677441081796585 4.471103776502439 0 0 0
620 1 35.916225109646135 2.9798632888564804 6.161218754295392 0 0 0
384 1 39.97536713607491 3.671640125585008 4.279983948718049 0 0 0
2020 1 44.371338414661665 4.235877520627128 3.0390440397197875 -1 0 1
289 1 46.94113889445826 4.566509815006311 4.1186149158024135 -1 0 0
460 1 47.39152571181063 2.6395088823468322 5.891614106144119 0 0 0
2731 1 -0.5590605688666415 6.4550115413623255 2.9966420123154016 1 1 0
665 1 3.305338145843288 8.34649089121294 5.926398074217843 1 0 0
540 1 5.272862619883081 8.843669854509816 4.1965334119877635 0 0 0
626 1 7.467083367980948 7.2938277704599574 5.3753329013162885 0 0 0
70 1 9.536637055533935 7.470195181547485 3.6728951457069057 0 0 0
48 1 11.585471522752359 5.8734510688315575 4.629061222836335 0 0 0
1242 1 16.98583329134476 7.352136463024396 5.835537647755242 0 0 0
793 1 19.330026723537305 8.35712909263026 4.296278692677892 0 0 0
449 1 21.33484531905805 6.084425268258286 4.77726982434095 0 0 0
1115 1 23.742680905258727 6.248451745699673 3.483256977631058 0 0 0
506 1 25.258393767286663 8.059735625580302 4.5190624263381425 0 0 0
2371 1 27.91115892337586 8.433017307091177 4.547666577874558 0 1 0
58 1 29.35846602749232 6.378134094920632 3.469691988330746 0 0 0
579 1 32.6745819718991 8.83401006461247 3.9569331563084305 0 0 0
1180 1 36.94349430076515 7.352771529489687 5.221899477183863 0 0 0
2917 1 40.54985727809995 6.447359534072148 3.4536294570964383 0 1 0
569 1 39.30268701432611 8.666493040270087 4.714606354519377 0 0 0
574 1 43.179388905634866 6.7379314266631 3.3056775577762956 0 0 0
293 1 43.824791701631995 6.754445971987323 6.072935600262015 0 0 0
344 1 47.093984908439595 6.771214874071637 5.811466136214254 -1 0 0
701 1 49.97563474363784 7.417644898273032 5.453466701056023 -1 0 0
1567 1 0.05147339351385105 9.247672891068241 2.825543435323319 1 0 1
494 1 1.0639547559004547 10.079678118221088 5.171117772674578 0 0 0
1413 1 6.3340361050390355 11.312864434894445 4.024346834844642 0 0 1
1052 1 10.350688971486216 10.133612079091453 2.8732789634624143 0 0 0
3 1 10.842280830095625 10.75814024000708 5.414001280230323 0 0 0
1794 1 15.17557721769184 9.464562204055628 4.966792435800508 0 0 1
3655 1 16.342365067979824 12.018817427736467 4.839408282789962 0 0 1
2581 1 18.60750438091812 12.02842708451868 3.1079961642251197 0 0 0
106 1 20.812719809136397 10.608773569646155 3.988365568299283 0 0 0
1853 1 25.073784987360433 10.634532426792386 3.363473770698501 0 0 1
9 1 29.342151334605123 10.863315213729091 3.8163122609767015 0 0 0
809 1 35.41621076223302 9.061643522577302 3.445004607630847 0 0 0
1840 1 42.872706560268725 11.73684501436576 4.948926641935243 0 0 1
2525 1 45.88157009392944 9.058494923103954 4.796360717372643 0 1 0
462 1 48.17938284255287 10.517772228210081 4.778268295043547 0 0 0
127 1 2.007499675806859 12.720851918161163 5.0056240212807 0 0 0
635 1 0.06520622833231549 14.06449685133111 3.779584574523212 0 0 0
237 1 4.2378718430607965 12.833815827822363 3.148335195714213 1 0 0
84 1 9.847156802377187 14.874955781023441 4.255627995020253 0 0 0
554 1 11.974138293649188 13.360184569606872 5.468687655101072 0 0 0
333 1 14.301967198352315 13.742879849326325 3.983875821952749 0 0 0
137 1 25.812946002190266 12.31304542642506 5.411765401148521 0 0 0
404 1 25.25024529788291 14.51827993428392 3.9572351659952147 0 0 0
420 1 27.621046329909394 15.308867889651122 2.9288653533809423 0 0 0
165 1 28.573343114183658 12.863817897795107 5.451141728763579 0 0 0
645 1 33.339557135668116 13.338770877515918 4.385662760244477 0 0 0
1309 1 35.81942975311925 13.409832496267661 4.629638228683193 0 0 0
395 1 40.22982881879474 12.460843579496334 4.721690756661712 0 0 0
266 1 39.681795073607816 15.067448402721828 4.452783606033112 0 0 0
207 1 44.81998974315272 13.1408603953456 6.08033831798778 0 0 0
187 1 47.13916219273678 13.11675164902784 4.468779762465944 0 0 0
37 1 49.009478407767276 14.671991228743634 5.669089823609194 0 0 0
1487 1 0.6847020977496752 16.573546858130037 3.4088979855959227 1 0 1
346 1 1.4924325817664692 18.0907879826973 5.691949293516398 1 0 0
39 1 4.953697863062981 15.405969737741934 2.8405116725292476 0 0 0
62 1 5.761329371326041 16.42534475314904 5.290149218114255 0 0 0
238 1 10.56798409471479 17.686740317822988 4.262765190749442 0 0 0
2334 1 14.974021367997798 16.68615445027968 3.8513437281752188 0 0 0
3958 1 19.95016962619919 15.504824080944154 5.401658385862227 0 0 1
159 1 18.426335420083692 17.634872560669713 6.160209427759035 0 0 0
2252 1 22.38555935205064 17.109065814369075 5.973594188772553 0 0 0
852 1 29.466983712504483 15.545275335803368 4.811218403182054 0 0 0
529 1 29.49249229518714 18.3928368381657 4.0879482657983806 0 0 0
2553 1 31.907113686250046 15.423937142153282 3.229659697619779 0 0 0
351 1 33.93306617454455 17.430400851029834 4.559327083677636 0 0 0
10 1 36.192305113015934 16.042834183005407 3.972147329652379 0 0 0
277 1 38.17513653180686 17.361682140361737 5.100975645276457 0 0 0
161 1 42.34281785266187 16.268713772598637 5.192654401048214 0 0 0
456 1 44.85467064158718 15.60004283551213 4.568549288073665 0 0 0
1478 1 46.958455352580614 16.531503450481434 5.971088751389553 0 0 1
2253 1 47.7189386557999 18.56865320659505 4.2360912037513385 0 0 0
19 1 3.623544278778785 19.699585958827747 4.700225868545629 0 0 0
214 1 6.206376943687794 18.976520951846073 5.333584913739087 0 0 0
297 1 8.324925252516431 18.956181171115908 3.6420256375665687 0 0 0
3996 1 9.670324835833197 21.33432380445929 2.9824761706533125 0 0 1
2670 1 18.682278156773545 19.902285577640402 4.563209517581541 0 0 0
392 1 22.967923732692544 18.791094941784376 3.6801937559159423 0 0 0
53 1 21.331878532006638 20.630708712121105 4.765256519555912 0 0 0
417 1 25.618762841612874 19.688364182137878 3.3834908843863216 0 0 0
2602 1 27.35146623735435 19.049084436824746 5.5661827114885725 0 0 0
3739 1 31.285891723957892 19.941926652912066 5.808317435576639 0 0 1
3652 1 34.01756561272205 20.008111037724365 4.653398105512615 0 0 1
1416 1 37.79184305103769 21.661142912484816 4.893414316337284 0 0 1
707 1 38.26943801428074 19.27749621291385 3.3899193982206635 0 0 0
536 1 42.50824036669823 18.731826856798822 4.133153016446736 0 0 0
1573 1 42.500978656959376 20.603102728575656 6.146870509799427 0 0 1
2139 1 45.224912876975566 18.733510828883084 3.1086341467709535 0 0 0
609 1 48.56375759771352 20.468852808355635 5.968055778574728 0 0 0
2516 1 0.988628836156797 23.08620354396406 3.8152339936457755 1 0 0
407 1 3.192440289107278 22.111236214097254 5.280431135636931 0 0 0
3512 1 7.462387236679289 22.788355675998908 2.8879894341848904 1 0 1
33 1 6.972169908721279 24.321720621150238 5.3694034308542795 0 0 0
628 1 10.64772174946028 22.270809793177406 5.07852994411713 0 0 0
2137 1 14.314103059099583 24.883176571244633 3.565772090172045 0 0 0
1544 1 13.416131387949253 22.415400577250225 4.483287777515828 0 0 1
680 1 17.39014947445149 21.850767346641533 5.875536945502953 0 0 0
2168 1 17.94985185252474 24.43153875660829 5.105727632152129 0 0 0
2190 1 21.736736789965477 22.897743519409953 3.4074291636216634 0 0 0
1392 1 20.853948734273377 24.826158674151742 5.056917199467419 0 0 0
2277 1 24.42518676465461 24.09833374355922 4.078840240510496 0 0 0
2566 1 28.414098194754434 24.925207174048662 4.815544666706781 0 0 0
2555 1 30.640200246072546 24.729167411408586 6.178229738627804 0 0 0
2108 1 35.412182192736836 22.112774151317343 6.00320318984573 0 0 0
3591 1 38.48240219940237 23.87079546793305 3.1397069163454656 0 0 1
500 1 45.334449319104834 23.30232227982393 3.126953285018625 0 0 0
3534 1 44.81668106797173 22.146820964268667 5.883018600838273 0 0 1
1948 1 49.74418182576508 22.123945323199646 4.040261596134827 0 0 1
1887 1 48.053895957644684 24.38285860001402 3.640259457342408 0 0 1
3656 1 3.940894318823963 1.9002897097756972 7.901629846825308 0 1 1
1982 1 5.81687272667615 -0.1369130194807025 8.740578852979938 0 0 1
477 1 7.477442424616424 0.14069660438140386 6.551633849067285 0 0 0
686 1 11.682204891354683 2.1542707717082417 9.030066103101088 0 0 0
1773 1 16.6317494296741 1.743416402000494 6.290005193589149 0 0 1
532 1 14.802721662378586 0.6364114198895112 7.99937403105721 0 0 0
2523 1 19.546793903600314 0.2998064728640505 7.1018171073340675 0 1 0
11 1 22.334678611870874 0.1542393088980769 9.238850953602915 0 0 0
2810 1 28.59922612039037 -0.4067990051025771 9.474267146220988 0 1 0
567 1 33.82366975483173 -0.35641970541763596 7.198471389601268 0 0 0
2352 1 33.295288026903094 1.6010620855407658 8.976593490092736 0 1 0
332 1 39.22710859442981 -0.3452306153651779 9.345180037410305 0 0 0
1334 1 41.307073591761736 2.3121282285763103 6.255642634627559 0 0 0
380 1 39.57688890058732 2.3821779010761275 8.79907624099506 -1 0 0
616 1 43.96745887039302 0.6006305522647108 7.383905769474886 -1 0 0
552 1 46.976659190836386 0.15623543225355596 7.3569015741204815 0 0 0
2203 1 50.28872324921255 1.647995825710837 9.170344123058188 -1 1 0
2718 1 -0.5247017719558686 5.556600810385288 7.432333049328143 0 1 0
2345 1 4.42751503378917 4.643559296054823 7.2772968620783 0 1 0
1961 1 8.19314821406783 3.08106175148342 6.2340774061017 0 0 1
3336 1 5.5379157288232035 5.273270406414171 9.564618802007324 0 1 0
495 1 9.62131755196251 3.868606855677638 8.486020394449639 0 0 0
298 1 14.95634689595258 5.681758821028344 7.33960935928856 0 0 0
2524 1 17.89651490406198 4.176796349063955 6.510094798161154 0 1 0
947 1 18.888502096007418 4.409921461199468 9.031273348557999 0 0 0
306 1 21.48762977879411 5.168690038374686 8.92113392966446 0 0 0
706 1 22.96027137563634 2.96087795686631 8.864092855002726 0 0 0
2481 1 25.64321906096107 3.070368331187739 8.140613017462893 0 1 0
3597 1 33.496615061775074 3.7841726758684455 6.95398009290872 0 1 1
393 1 37.14900866764404 3.377684781240184 8.517465792178955 0 0 0
290 1 43.00682205602959 4.172169679510318 7.622148458694026 0 0 0
2454 1 45.71241965086452 3.842065433845322 8.317906289983657 0 1 0
386 1 50.20198990194669 2.770579713767884 6.595561398882937 -1 0 0
221 1 8.06394627046099 8.057318681453227 7.888215201706858 0 0 0
373 1 10.154661895557163 6.501132630646357 8.744834667930949 0 0 0
427 1 12.48923883362011 6.879427636787122 6.976136354131742 0 0 0
34 1 17.785056175823595 8.611178116512779 8.063759953752184 0 0 0
195 1 21.895388256460443 6.90111583817152 7.135736231131001 0 0 0
424 1 24.53760422949556 7.693694078218192 7.1878556125789315 0 0 0
746 1 26.02563628302871 5.929816650861701 8.494208359866924 0 0 0
2807 1 28.797451842433095 6.009627621705698 7.886154422479928 0 1 0
322 1 29.370558354986454 8.493188717332462 7.027315378869733 0 0 0
1027 1 32.07914141569496 8.666901544349075 6.602391894528691 0 0 0
273 1 33.376677847326434 6.489382790283339 7.769369362747664 0 0 0
255 1 36.001334759238716 8.164233712215692 7.957463108704108 0 0 0
511 1 37.283891715419074 6.001407961787876 9.426721540868536 0 0 0
502 1 41.06857429812675 8.585783490157578 6.998245222869249 -1 0 0
2698 1 40.008288480648346 6.85066987795823 8.804708434147953 0 1 0
167 1 46.49771981980395 6.263402995859261 8.70009325447005 -1 0 0
330 1 -0.060393096716730876 10.777031635902556 9.42356751217549 0 0 0
73 1 4.108430877107436 9.465182977788045 8.391718952052104 1 0 0
263 1 4.688009640203535 12.151311172504109 8.312469794692953 0 0 0
116 1 8.88111055847622 10.630094187259438 7.391867341728293 0 0 0
744 1 12.93213869336731 9.459670867234111 6.679889002099644 0 0 0
967 1 13.988549542921662 9.925828317315842 9.096411197534508 0 0 0
1330 1 16.40540501091149 10.892275761967422 8.990645427668621 0 0 0
248 1 20.54382036492258 9.355723961295748 7.8351591131701355 0 0 0
378 1 21.527953034376328 11.452232813556428 6.524760250922833 0 0 0
492 1 24.650839006503908 9.963409532751154 9.0808500323665 0 0 0
324 1 24.313930837184557 12.17604835036472 7.585743728553844 0 0 0
1619 1 29.31009462011789 10.118669774568758 9.25119972927556 0 0 1
926 1 32.930132726703675 10.566371534453788 8.407412821303826 0 0 0
243 1 35.534020399602966 10.742421362757193 8.769806380022882 0 0 0
833 1 39.25125348423228 11.09123264318071 6.843904090836416 0 0 0
488 1 40.31305493596224 12.006466158662526 9.22331266538778 0 0 0
1914 1 43.677353789565046 9.636065669424902 6.59902475180097 0 0 1
156 1 44.69882279662089 10.471746325465087 9.093075087810263 0 0 0
71 1 50.05885987249884 10.277752853300417 6.891165035999791 0 0 0
583 1 0.4639587341048097 13.405387680653265 8.9866506429352 1 0 0
631 1 2.6406823194748936 13.900501900626418 7.4099431953099035 1 0 0
193 1 6.829377395876441 12.518776194233949 6.559681015809431 0 0 0
476 1 7.8598179577989224 14.955312869512463 6.238158164993356 0 0 0
246 1 12.571427233298838 14.160533038614322 7.975083334436443 0 0 0
528 1 16.923877076033357 12.843238973386315 7.324949221516265 0 0 0
971 1 15.285940412360226 14.982641213588368 8.216080333420916 0 0 0
658 1 19.70064699999836 13.429299287888192 7.219432886080772 0 0 0
531 1 24.24155686603341 14.55695294252851 8.90605222788313 0 0 0
249 1 28.904818918904535 14.507081079981784 9.571347198257033 0 0 0
556 1 29.805777328419936 12.621914562934583 7.917968958222245 0 0 0
729 1 32.32922700403999 13.023485824083702 7.155978045030883 0 0 0
2461 1 33.2004692228863 14.763531441461298 9.123457447793733 0 0 0
1140 1 36.811645586442225 12.474794551879285 6.844444283659331 0 0 0
581 1 37.74289740281371 14.825159119141535 8.602813107933155 0 0 0
1934 1 40.09516602647503 14.6137364152896 9.513022433815664 0 0 1
366 1 44.07018264777547 14.371858913646262 8.54557699046184 0 0 0
757 1 48.94279985136083 13.052797749771965 7.958047536711373 0 0 0
498 1 48.71462537488395 15.386216417824265 9.549322444254125 0 0 0
446 1 3.6454906980380803 16.449318108811493 6.92446285417006 0 0 0
142 1 8.265351452392016 15.593512333499469 8.902861390422423 0 0 0
496 1 10.89179856713787 16.465011518416695 8.568393132263047 0 0 0
355 1 11.477608804669831 18.363012666208647 6.771125308239954 0 0 0
1877 1 15.707859136164068 17.302076825137704 6.5627162712401415 0 0 1
1173 1 19.167316603231104 18.565345601377253 8.758885483936446 0 0 0
522 1 21.57125432854708 17.534847720869525 8.554178816208276 0 0 0
2410 1 24.391637079461553 15.658474014856651 6.384200598527861 0 0 0
566 1 26.317370416363076 17.272963596440068 7.539800800717439 0 0 0
419 1 28.953458973310397 16.370800382521434 7.552652645917792 0 0 0
973 1 31.35483882209465 17.95467355470752 8.012113590550463 0 0 0
2937 1 33.7087004777523 17.001405407917392 7.293600556084087 0 0 0
51 1 35.287399487334525 18.560508619202555 8.88237670856742 0 0 0
6 1 37.73568759010699 17.516716940512453 7.874796248196869 0 0 0
102 1 42.12509198545675 16.128088351940658 7.970360485082285 0 0 0
1835 1 46.2935390988857 16.188530515109115 8.693907654168063 0 0 1
168 1 44.81388317058425 18.42849056384722 9.614429477774447 0 0 0
325 1 49.928324572970595 17.894862625048617 9.169420079604613 -1 0 0
972 1 -0.176168212565379 19.725584236312738 7.1982918630170465 1 0 0
110 1 6.827785818471188 20.10197391305073 7.839593226269779 0 0 0
31 1 9.593785058067693 20.300326962358653 7.180539300779068 0 0 0
913 1 10.793049033062601 21.148315600842547 9.33237262440755 0 0 0
2188 1 14.07988796264872 19.165166141819743 7.606771037909352 0 0 0
2490 1 14.686736870843552 21.62976615823822 6.783346804310314 0 0 0
667 1 18.894851227218133 21.373751417985254 8.172005033798849 0 0 0
469 1 22.590629818460513 20.00221348987696 9.203014364705647 0 0 0
128 1 25.200638355661667 19.73497707802059 9.091497883376976 0 0 0
2112 1 26.676946025062268 21.3977315765516 7.213845537397557 0 0 0
1865 1 35.3339368882948 21.301022979966156 8.87164534882358 0 0 1
519 1 39.70128361780327 19.025027750186243 9.344367455483008 0 0 0
694 1 39.35513375566373 21.76028819139392 9.122556858534567 0 0 0
204 1 42.35324067917732 18.77242296193417 8.421680999536584 0 0 0
2413 1 1.5258766490585471 21.83690620534304 7.421608495005145 0 0 0
240 1 -0.13085666781774474 24.157205421628152 8.21968948545971 0 0 0
2697 1 4.642880437330996 24.23088286723401 6.686681790905229 0 0 0
252 1 5.404456684365227 22.354910576965857 8.698058019564824 1 0 0
356 1 9.697439816827954 24.22303216077253 6.471914101699629 0 0 0
2150 1 11.14941365070853 23.73833023201515 8.806468176591062 0 0 0
340 1 14.21741959772733 23.700468234642912 8.735673062171205 0 0 0
3704 1 21.622185400102556 21.887395133723555 7.309312729853027 0 0 1
3942 1 21.617129212914556 24.718886608567253 7.631232454807892 0 0 1
1343 1 26.310622997566274 24.158867302821662 6.265374277040514 0 0 0
3432 1 28.366730889279 24.793486587524807 9.614129059531695 0 0 0
2404 1 28.89886546551593 22.15818590989234 8.991368370316426 0 0 0
3496 1 31.154310541039198 22.335267664625235 7.294044244062445 0 0 1
904 1 33.08582745589392 22.72012969452089 9.33335449820145 0 0 0
513 1 40.88998779460918 24.887949008719644 6.485444212558447 -1 0 0
559 1 40.114820111650744 22.15675003507158 6.520526104499798 0 0 0
698 1 43.45172864328633 24.245118861325537 7.239442505176592 0 0 0
636 1 47.106780858791325 21.948756014677176 7.678260867296428 0 0 0
2636 1 48.299980566201725 24.446214499546283 8.300759358645537 0 0 0
2302 1 4.766797093136476 1.1675011320503068 12.617287827580933 0 1 0
893 1 2.9313729814454637 1.9412477053168367 10.48550665309776 1 0 0
100 1 7.274939042270634 1.0779645470672 10.752658773930216 0 0 0
839 1 9.480460790079892 0.06065575048617544 12.07546610755092 0 0 0
465 1 15.521041287544133 1.1490764515399543 10.570334667804474 0 0 0
396 1 19.477237850268086 -0.04221698827993525 10.004828470598204 0 0 0
315 1 23.642078127576443 0.13702768071942795 11.696917215486392 0 0 0
3472 1 27.738658017444223 2.4386057718833705 9.927276611556731 0 1 0
2577 1 27.331117157961753 2.2311937632185033 12.737250273506513 0 1 0
21 1 31.44159298644792 0.49259553449894256 12.939542145762006 0 0 0
2251 1 31.29971823498975 -0.21656831300298746 10.325602437719064 0 1 0
2176 1 35.83177494335544 -0.5896791485963604 12.651689145337269 0 1 0
630 1 35.60073839543682 1.4781332504642495 10.012310331362709 0 0 0
3399 1 39.468827546094886 0.1764882589871435 12.384746422674594 0 1 0
703 1 43.576624413099196 1.0063693049964444 10.181833521938383 0 0 0
507 1 47.853625586705746 0.6665560293482353 10.316370528571953 -1 0 0
1391 1 0.32599014597956166 2.778253981916663 11.309836750466333 1 0 0
2893 1 -0.6109760201116075 5.187125075177857 12.302980234325993 1 1 0
145 1 3.3295981721299173 5.072526566067865 10.887276945310228 0 0 0
2614 1 7.813365943275155 3.950369620187047 10.398629329828433 0 1 0
83 1 8.426503995118914 4.824292995822098 12.94595994883363 1 0 0