
# Create simulation box of size 50 x 50 x 50 Angstrom
#
lattice	            sc 1
Lattice spacing in x,y,z = 1.0000000 1.0000000 1.0000000
region 	            all block 0 50 0 50 0 50 units box
create_box          1 all
Created orthogonal box = (0.0000000 0.0000000 0.0000000) to (50.000000 50.000000 50.000000)
  1 by 2 by 3 MPI processor grid

# fill box with 4175 randomly distributed atoms
#
create_atoms        1 random 4175 63782 all
Created 4175 atoms
  create_atoms CPU = 0.000 seconds
mass                1 18.015

# Define potential
#
pair_style          sw
pair_coeff          * * ML_mW.sw mW
Reading sw potential file ML_mW.sw with DATE: 2019-02-27

# Run minimization
#
minimize            1.0e-8 1.0e-8 10000 1000
WARNING: Using 'neigh_modify every 1 delay 0 check yes' setting during minimization (../min.cpp:187)
Neighbor list info ...
  update every 1 steps, delay 0 steps, check yes
  max neighbors/atom: 2000, page size: 100000
  master list distance cutoff = 6.0032907
  ghost atom cutoff = 6.0032907
  binsize = 3.0016454, bins = 17 17 17
  1 neighbor lists, perpetual/occasional/extra = 1 0 0
  (1) pair sw, perpetual
      attributes: full, newton on
      pair build: full/bin/atomonly
      stencil: full/bin/3d
      bin: standard
Per MPI rank memory allocation (min/avg/max) = 4.255 | 4.258 | 4.261 Mbytes
Step Temp E_pair E_mol TotEng Press 
       0            0    7792709.3            0    7792709.3    5898794.3 
     630            0   -45180.336            0   -45180.336   -154.07449 
Loop time of 1.14734 on 6 procs for 630 steps with 4175 atoms

98.1% CPU use with 6 MPI tasks x no OpenMP threads

Minimization stats:
  Stopping criterion = max force evaluations
  Energy initial, next-to-last, final = 
      7792709.32924461  -45180.0188663597   -45180.336116598
  Force two-norm initial, final = 2.0191930e+08 4.9721331
  Force max component initial, final = 1.0948746e+08 0.73126211
  Final line search alpha, max atom move = 0.053306038 0.038980685
  Iterations, force evaluations = 630 1000

MPI task timing breakdown:
Section |  min time  |  avg time  |  max time  |%varavg| %total
---------------------------------------------------------------
Pair    | 0.86602    | 0.97963    | 1.0477     |   6.0 | 85.38
Neigh   | 0.023734   | 0.024697   | 0.025873   |   0.4 |  2.15
Comm    | 0.053516   | 0.12281    | 0.23798    |  17.1 | 10.70
Output  | 0          | 0          | 0          |   0.0 |  0.00
Modify  | 0          | 0          | 0          |   0.0 |  0.00
Other   |            | 0.02021    |            |       |  1.76

Nlocal:        695.833 ave         704 max         685 min
Histogram: 1 1 0 0 1 0 0 1 0 2
Nghost:        1494.17 ave        1515 max        1468 min
Histogram: 1 1 0 0 0 0 1 1 1 1
Neighs:        0.00000 ave           0 max           0 min
Histogram: 6 0 0 0 0 0 0 0 0 0
FullNghs:      19997.0 ave       20462 max       19320 min
Histogram: 1 1 0 0 0 0 0 2 0 2

Total # of neighbors = 119982
Ave neighs/atom = 28.738204
Neighbor list builds = 26
Dangerous builds = 0

# Add velocity/set timestep
#
velocity            all create ${TEMP} 120598 rot yes dist gaussian
velocity            all create 215 120598 rot yes dist gaussian
timestep            5.0

# Define output
#
compute	            1 all msd
thermo	            100
thermo_style        custom step temp press vol etotal ke pe c_1[4] density

# Neighbor lists
#
neigh_modify        delay 0 every 1 check yes

# Set fixes
#
fix                 1 all momentum 10 linear 1 1 1 rescale
fix                 2 all nve
fix                 3 all temp/csvr ${TEMP} ${TEMP} 500.0 928347
fix                 3 all temp/csvr 215 ${TEMP} 500.0 928347
fix                 3 all temp/csvr 215 215 500.0 928347
fix                 4 all press/berendsen iso ${PRES} ${PRES} 1000.0 modulus 20000
fix                 4 all press/berendsen iso -200 ${PRES} 1000.0 modulus 20000
fix                 4 all press/berendsen iso -200 -200 1000.0 modulus 20000

# Run 0.5 ns equilibration
#
dump                1 all custom 1000 eq.${NAME}.dump id type x y z vx vy vz
dump                1 all custom 1000 eq.liquid_density_MLmW.dump id type x y z vx vy vz
run                 100000
Per MPI rank memory allocation (min/avg/max) = 3.506 | 3.508 | 3.511 Mbytes
Step Temp Press Volume TotEng KinEng PotEng c_1[4] Density 
     630          215    824.17143       125000   -42505.327    2675.0087   -45180.336 2.7295415e-33   0.99914793 
     700    137.20739   -176.77072     125648.4   -41682.458    1707.1208   -43389.579   0.25086753   0.99399192 
     800    167.79366   -314.43989    125783.44    -40937.13    2087.6722   -43024.802    0.5775811   0.99292474 
     900    186.40175     8.030098    125662.95   -40527.292    2319.1921   -42846.484   0.96141727   0.99387683 
    1000    199.57672    2.5372049    126069.28   -40260.582    2483.1139   -42743.696    1.3227163    0.9906735 
    1100    206.21837   -223.59625    126036.41   -40093.863    2565.7486   -42659.611    1.6863162   0.99093181 
    1200    210.87496   -316.36992    126365.21    -40144.33    2623.6854   -42768.016    2.0022116   0.98835341 
    1300    208.77682   -251.93211    126528.06   -40121.575    2597.5805   -42719.156    2.2962331   0.98708139 
    1400    206.29503   -138.48949    126757.63   -40152.622    2566.7023   -42719.324    2.6117367   0.98529366 
    1500    208.96357   -208.46352     126819.2   -40102.758    2599.9041   -42702.662    2.8978755   0.98481534 
    1600    217.78081   -238.69718    126860.32   -40023.549    2709.6073   -42733.157    3.2298602   0.98449607 
    1700    213.21968    -215.3499    126885.72    -40054.55    2652.8581   -42707.408    3.6072735   0.98429902 
    1800    214.69044   -104.97751    126691.15   -40161.399    2671.1573   -42832.556    3.9170142   0.98581072 
    1900    215.11612   -194.03182    126712.35   -40159.206    2676.4535   -42835.659    4.2409691   0.98564575 
    2000     215.7523   -196.15581     126825.7   -40128.877    2684.3688   -42813.246     4.505366   0.98476482 
    2100     219.5157    83.346662    126808.85   -40088.253    2731.1927   -42819.445    4.7348104   0.98489569 
    2200    212.97496   -219.59005    127214.82   -40115.218    2649.8134   -42765.031    5.0320814   0.98175269 
    2300    216.51097    161.89644    127368.92   -40128.385    2693.8081   -42822.193    5.3594002   0.98056493 
    2400    215.31747   -71.505899     127233.9   -40163.547    2678.9586   -42842.505    5.6469819   0.98160545 
    2500    217.07752   -152.12725    127622.06   -40126.358     2700.857   -42827.215    5.8524161   0.97861993 
    2600    220.89343   -264.84321    127549.25   -40098.005    2748.3342   -42846.339    6.0867491   0.97917856 
    2700    219.52153   -87.740841       127552   -40141.825    2731.2652    -42873.09    6.3220665   0.97915744 
    2800    219.71033   -134.08049     127581.5   -40149.019    2733.6143   -42882.633      6.46929   0.97893103 
    2900    215.18951   -129.10217    127476.39   -40225.605    2677.3666   -42902.971    6.7974129   0.97973819 
    3000     215.3246    -239.7861    127626.86   -40257.509    2679.0474   -42936.556     7.020753   0.97858315 
    3100    215.67149   -227.35481    127389.77   -40242.909    2683.3634   -42926.273    7.2297705   0.98040441 
    3200    216.34307   -49.908779    127510.06   -40300.158    2691.7191   -42991.877    7.4313296   0.97947952 
    3300    219.36398   -227.12001    127597.37   -40286.643    2729.3049   -43015.948    7.6158244    0.9788093 
    3400    217.25742    51.249043     127886.9   -40334.791    2703.0954   -43037.886    7.9655628   0.97659329 
    3500    216.87392    -3.576593    128129.45   -40360.642    2698.3239   -43058.966    8.3146209   0.97474458 
    3600    213.61577    -68.59918    128012.87    -40402.59    2657.7863   -43060.376    8.5045381   0.97563228 
    3700    208.62656   -198.22868    127870.58   -40452.679     2595.711    -43048.39    8.6013543   0.97671797 
    3800    217.56175   -340.35047    127947.68   -40402.677    2706.8818   -43109.558    8.5872818   0.97612941 
    3900    214.63082   -257.13542    127991.01   -40432.617    2670.4155   -43103.032    8.8704537   0.97579894 
    4000    212.48928   -138.29862     127935.3   -40426.998    2643.7707   -43070.769    9.0995925   0.97622382 
    4100    215.43521   -405.55473    127920.07   -40420.084    2680.4236   -43100.508    9.3213382    0.9763401 
    4200    215.07181   -407.88251     127966.7   -40437.506    2675.9022   -43113.409      9.61016   0.97598432 
    4300    214.13285   -230.62699    127998.31   -40443.157    2664.2197   -43107.376    9.9048833   0.97574332 
    4400    213.51868   -316.37254    127852.91   -40442.018    2656.5783   -43098.597    10.056346   0.97685298 
    4500    217.58452   -56.961296     128063.2   -40447.695    2707.1651    -43154.86     10.20309   0.97524889 
    4600    211.95191   -255.00949    128153.81   -40496.621    2637.0847   -43133.706    10.303968   0.97455933 
    4700    216.42761    -177.2485    128163.85   -40422.024    2692.7709   -43114.795    10.474065     0.974483 
    4800    215.31952   -153.50661    128353.15    -40492.81    2678.9841   -43171.794     10.59322   0.97304576 
    4900    214.44435   -206.71085    128372.36   -40373.174    2668.0954   -43041.269    10.781366   0.97290017 
    5000    218.00555   -158.30268    128536.87   -40332.229    2712.4035   -43044.633    11.151662   0.97165501 
    5100    218.69096   -259.44382    128373.34   -40411.877    2720.9313   -43132.808    11.425172   0.97289274 
    5200    216.78176    11.029105    128380.41   -40473.948    2697.1772   -43171.125    11.493066   0.97283915 
    5300    215.83104   -212.08363     128429.6   -40456.251    2685.3485   -43141.599    11.573842   0.97246657 
    5400    215.62143   -219.87938    128577.82   -40497.489    2682.7405    -43180.23     11.66649   0.97134553 
    5500    215.62165   -196.36128    128760.41   -40499.223    2682.7433   -43181.966    11.861286   0.96996809 
    5600    214.49468    -364.8572     128772.4   -40512.987    2668.7215   -43181.708    12.056273   0.96987777 
    5700    212.71306   -186.23939    128925.39   -40513.566    2646.5549   -43160.121    12.289669   0.96872689 
    5800    215.53759   -402.42782    128972.96   -40545.697    2681.6974   -43227.395    12.552369   0.96836956 
    5900    213.52661   -337.52432    128975.28   -40582.567     2656.677   -43239.244    12.851143   0.96835215 
    6000    210.53522   -77.021858    128887.21   -40594.749    2619.4584   -43214.207    12.903414   0.96901383 
    6100    218.26993   -75.772759    129021.89   -40530.102    2715.6929   -43245.795    12.999546   0.96800236 
    6200    212.39618    -167.0612    129090.56   -40601.131    2642.6122   -43243.743    13.107727   0.96748741 
    6300    213.98714   -28.030254    129388.91   -40557.159    2662.4069   -43219.566     13.24407   0.96525652 
    6400    215.90016   -211.04339    129446.53   -40533.584    2686.2085   -43219.792    13.438266   0.96482691 
    6500     217.6426   -158.38482    129500.66   -40496.469    2707.8878   -43204.356    13.617612    0.9644236 
    6600    215.20702   -178.34925    129380.71   -40584.999    2677.5845   -43262.584    13.730856   0.96531775 
    6700    212.20347   -325.75803    129278.67   -40656.497    2640.2146   -43296.711    13.952691   0.96607965 
    6800    214.15723   -384.25655    129187.87   -40590.515    2664.5231   -43255.038    14.040814   0.96675864 
    6900    218.51686   -314.80169    129264.48   -40536.454    2718.7652   -43255.219      14.2958   0.96618567 
    7000    212.18417    4.9557134    129324.68   -40524.061    2639.9744   -43164.036    14.473307   0.96573594 
    7100    218.35239   -13.473374    129251.02   -40544.492    2716.7188   -43261.211    14.393014   0.96628634 
    7200    216.30006    -184.9692    129096.03   -40606.289    2691.1839   -43297.473    14.719129   0.96744641 
    7300    213.49133   -117.80457    129160.14   -40658.539     2656.238   -43314.777    14.940073   0.96696624 
    7400    209.56111   -531.32355    129083.12   -40674.794    2607.3386   -43282.133    15.069159   0.96754318 
    7500    211.51497   -45.669683    129015.65   -40635.323    2631.6483   -43266.971    15.138903   0.96804916 
    7600     211.6675   -138.13918    129079.23   -40702.019    2633.5462   -43335.565    15.347801    0.9675723 
    7700    214.24879   -307.53701    128934.26   -40602.005    2665.6623   -43267.668    15.387567   0.96866024 
    7800    215.59157   -252.53552    129088.25   -40580.879     2682.369   -43263.248    15.432958   0.96750469 
    7900    213.82313   -330.38996    129055.72   -40647.071    2660.3663   -43307.437    15.643545   0.96774861 
    8000    217.75402   -120.29945    128874.62   -40619.196     2709.274    -43328.47    15.830662   0.96910854 
    8100    209.80826    41.938493    129076.76   -40680.142    2610.4136   -43290.555     16.04207   0.96759086 
    8200     210.8924   -186.63388    129302.36    -40681.03    2623.9024   -43304.933     16.07288   0.96590264 
    8300    214.25416   -54.519432    129402.32   -40665.014    2665.7291   -43330.743    16.236723   0.96515653 
    8400    214.89872   -116.65234     129346.9   -40617.524    2673.7487   -43291.273    16.266044   0.96557004 
    8500    217.31337   -218.71321    129387.92   -40563.834    2703.7915   -43267.625    16.416609   0.96526395 
    8600    215.01571   -128.96083    129419.81   -40592.569    2675.2042   -43267.773    16.559805   0.96502605 
    8700    213.26209    -376.6452    129423.65   -40594.322    2653.3859   -43247.708    16.740607   0.96499745 
    8800    215.48515   -146.57153    129304.75    -40636.29    2681.0449   -43317.335    16.886345   0.96588478 
    8900    208.39475    6.1380418     129578.1    -40710.52    2592.8269   -43303.347     16.95853   0.96384724 
    9000    214.60672   -167.50234    129632.25   -40669.883    2670.1156   -43339.999    17.311002    0.9634446 
    9100    210.30098   -115.40146    129716.58   -40739.215     2616.544   -43355.759     17.48989   0.96281825 
    9200    213.90476   -154.78839    129869.53   -40669.858    2661.3819    -43331.24     17.67679   0.96168435 
    9300    215.91092   -237.05065    129924.66   -40727.978    2686.3423    -43414.32    17.740242   0.96127625 
    9400    215.07875   -253.27515    129759.12   -40698.076    2675.9885   -43374.065    17.719667   0.96250263 
    9500    212.91653   -187.33962     129784.9   -40731.868    2649.0864   -43380.954    18.089959   0.96231144 
    9600    216.28604     -189.016    129904.56   -40703.124    2691.0095   -43394.133    18.154116   0.96142498 
    9700    216.58746   -50.401929    130075.91   -40636.893    2694.7598   -43331.653    18.436389   0.96015848 
    9800     215.8275   -270.66137    130178.56   -40722.453    2685.3044   -43407.758    18.607469   0.95940141 
    9900    212.40636    -262.4512    130129.93   -40806.035    2642.7389   -43448.774    18.820809   0.95975992 
   10000    215.20072   -184.24639    130188.72   -40800.338    2677.5061   -43477.844    18.877252   0.95932653 
   10100    212.74483   -23.278732    130275.61   -40769.146    2646.9502   -43416.096    19.061754   0.95868668 
   10200    212.68779   -75.924571    130248.91   -40829.066    2646.2404   -43475.306    19.144327    0.9588832 
   10300    216.43998   -92.110943    130312.54   -40836.861    2692.9248   -43529.785    19.215033   0.95841495 
   10400    216.36567    -82.48082    130377.86   -40795.516    2692.0003   -43487.516    19.378808   0.95793484 
   10500    217.59746   -83.765658    130378.12   -40787.307     2707.326   -43494.633    19.628572   0.95793288 
   10600    219.58384   -230.09626    130564.42   -40740.893    2732.0405   -43472.933    19.697421   0.95656602 
   10700    221.12502   -45.959718    130655.14   -40738.547    2751.2156   -43489.762    19.738386   0.95590183 
   10800    219.68595    41.396855    130606.77   -40741.757    2733.3109   -43475.068    19.782015   0.95625589 
   10900    219.68495   -150.48755    130542.31   -40788.113    2733.2984   -43521.411     20.07231   0.95672803 
   11000    216.45094   -243.37428    130615.98   -40794.449    2693.0611    -43487.51     20.27673   0.95618845 
   11100    216.89492    -72.95184    130530.81   -40840.593    2698.5851   -43539.178    20.357546   0.95681234 
   11200     217.4307   -98.503546    130507.61   -40844.626    2705.2513   -43549.877    20.324996   0.95698247 
   11300    214.97897   -33.740224    130411.89   -40833.944    2674.7471   -43508.692    20.381779   0.95768487 
   11400     213.0276   -359.76837    130645.91   -40826.062    2650.4683    -43476.53    20.667072   0.95596942 
   11500    214.77205   -81.307693    130515.55   -40854.798    2672.1726    -43526.97    20.556409    0.9569242 
   11600    213.43506   -329.40539     130398.2   -40844.334     2655.538   -43499.872    20.731303   0.95778539 
   11700    217.85025   -196.02662    130188.46   -40739.349    2710.4713    -43449.82    20.853431   0.95932843 
   11800    214.61945   -86.164339    130420.42   -40811.003     2670.274   -43481.276    21.158679   0.95762225 
   11900    215.57181   -257.22016    130514.54   -40825.832    2682.1232   -43507.955    21.344026    0.9569316 
   12000    216.80557   -119.47751    130499.78   -40823.832    2697.4735   -43521.306    21.372759   0.95703988 
   12100    217.84645   -296.06689    130502.64   -40783.638     2710.424   -43494.063    21.286869    0.9570189 
   12200    216.65104   -245.33065       130409   -40783.306    2695.5508   -43478.856    21.355618   0.95770608 
   12300    211.75541   -55.972269    130492.37   -40798.537    2634.6398   -43433.177    21.478361    0.9570942 
   12400    214.80312   -244.39946    130684.66   -40777.223    2672.5592   -43449.782    21.516317   0.95568592 
   12500    215.77071    14.626963    130554.55   -40875.266    2684.5978   -43559.863    21.553514   0.95663839 
   12600    215.36556   -247.89372    130758.31   -40789.738     2679.557   -43469.295    21.669028   0.95514764 
   12700    216.27325    -153.5995    130600.87   -40786.451    2690.8504   -43477.302    21.925858   0.95629911 
   12800    218.71824   -296.50643    130471.88   -40754.786    2721.2707   -43476.057    21.991278   0.95724454 
   12900    214.91952   -110.69101    130581.42    -40823.77    2674.0075   -43497.777     22.27217   0.95644149 
   13000    219.71802   -222.80908     130612.6   -40757.506    2733.7099   -43491.216    22.484961   0.95621322 
   13100    218.19656   -184.65059    130459.68   -40759.472      2714.78   -43474.252    22.459727   0.95733401 
   13200    219.23855   -28.091826    130538.08   -40681.701    2727.7443   -43409.445    22.597831   0.95675906 
   13300    217.97945   -148.15265    130689.45   -40736.248    2712.0788   -43448.326    22.702688    0.9556509 
   13400    216.22446   -232.00737    130612.45    -40832.86    2690.2433   -43523.103    22.535867   0.95621427 
   13500    215.00019   -245.68283    130525.35   -40869.372    2675.0111   -43544.383    22.668232   0.95685236 
   13600    215.35921   -248.67956    130538.91   -40894.499     2679.478   -43573.977      22.6862   0.95675301 
   13700    213.79331   -185.33847    130586.43   -40889.853    2659.9953   -43549.848    22.613173   0.95640483 
   13800    218.88937   -234.51435    130721.37   -40805.078    2723.3999   -43528.478    22.777628   0.95541757 
   13900    212.94314   -230.09188    130485.19   -40847.184    2649.4175   -43496.601     23.00364   0.95714688 
   14000    214.36162   -285.59204    130429.06   -40829.504    2667.0661    -43496.57    23.129616    0.9575588 
   14100    215.77385   -127.85027    130595.07    -40825.98    2684.6369   -43510.616    23.217506   0.95634155 
   14200    214.45204   -317.52243    130540.78   -40868.697     2668.191   -43536.888    23.365253   0.95673925 
   14300    210.26923   -109.73421    130625.51   -40905.258     2616.149   -43521.407    23.231364   0.95611871 
   14400    212.02304   -157.55751    130407.89   -40860.931    2637.9697     -43498.9    23.379861   0.95771423 
   14500    215.07643    -210.6076    130492.69   -40800.654    2675.9597   -43476.614    23.512226   0.95709189 
   14600     215.0903   -75.745758    130500.76   -40817.019    2676.1323   -43493.151    23.535887   0.95703265 
   14700     210.6886   -304.06694    130526.13   -40863.572    2621.3667   -43484.939    23.723668   0.95684668 
   14800    213.99181   -83.219805    130510.42   -40908.907     2662.465   -43571.372    23.888437   0.95696183 
   14900    213.09283   -143.43154    130375.57   -40986.116    2651.2799   -43637.396    23.911252   0.95795162 
   15000    209.86066   -196.84479    130599.64   -40994.795    2611.0656    -43605.86    24.031582   0.95630805 
   15100    213.28483   -242.83198    130727.85   -41017.082    2653.6688   -43670.751    24.107189    0.9553702 
   15200    211.16689   -277.01029    130716.28    -40947.83    2627.3176   -43575.148    24.138812   0.95545473 
   15300    213.23671   -161.97707    130485.35   -40963.779      2653.07   -43616.849    24.222577   0.95714572 
   15400    212.08886   -148.98575    130489.76   -40952.607    2638.7886   -43591.395    24.421749   0.95711333 
   15500    211.97169   -128.06545    130585.12   -40951.021    2637.3308   -43588.352     24.61977   0.95641438 
   15600    214.89641   -169.59182    130706.89   -40890.111    2673.7198   -43563.831    24.789661   0.95552336 
   15700     215.0386   -303.80889    130771.85   -40981.189     2675.489   -43656.678     24.95245   0.95504877 
   15800    214.63235   -231.54492    130724.66   -40984.709    2670.4345   -43655.144    24.884104   0.95539349 
   15900     212.3384   -310.37881    130844.02   -41018.529    2641.8934   -43660.423    24.967609   0.95452196 
   16000    214.72698   -87.965122    131038.64   -40969.353    2671.6118   -43640.965    25.013418   0.95310432 
   16100    217.58112   -138.09509    131187.71   -40924.431    2707.1228   -43631.554    24.860036   0.95202129 
   16200    216.61131   -321.31125    130858.59   -40997.951    2695.0565   -43693.008    24.947308   0.95441566 
   16300    214.09624   -93.121589    130633.88   -41023.011    2663.7643   -43686.775    24.898103   0.95605742 
   16400    220.64751   -144.17249    130831.28   -40937.807    2745.2745   -43683.082     25.04628   0.95461492 
   16500    214.10635   -349.41076    130907.49   -40934.526      2663.89   -43598.416    25.359883   0.95405915 
   16600    219.11512    -153.4108    130953.97   -40929.654    2726.2087   -43655.863    25.598321   0.95372057 
   16700     215.3502   -138.28915    130910.08    -40961.03    2679.3659   -43640.396    25.517131    0.9540403 
   16800    216.12005   -52.742745    130982.67   -40959.084    2688.9444   -43648.028    25.776134   0.95351154 
   16900    216.02556   -204.45633    131072.59   -40918.995    2687.7687   -43606.764    25.726073   0.95285744 
   17000    217.75783   -292.89788    131085.57   -40945.578    2709.3214     -43654.9    25.870914   0.95276308 
   17100    220.42264   -370.73462    130999.12   -40873.903    2742.4766    -43616.38    25.976491   0.95339181 
   17200    215.63807   -202.80137     130991.2    -40888.64    2682.9475   -43571.588     26.01533   0.95344948 
   17300    215.47151   -118.98391    130920.89   -40945.204    2680.8753    -43626.08    26.194442   0.95396152 
   17400    213.80078    -221.4767    130982.35   -40948.708    2660.0881   -43608.796    26.245585   0.95351391 
   17500    216.75896   -158.41669    130953.83   -40934.191    2696.8936   -43631.085    26.409209   0.95372156 
   17600    217.80052    -251.9201    130931.38   -40914.753    2709.8525   -43624.606    26.427245   0.95388511 
   17700    213.74828   -197.78244    131048.99   -40936.204     2659.435   -43595.639    26.701318     0.953029 
   17800    213.38641   -297.07496    131263.07   -40931.394    2654.9326   -43586.326    26.850115   0.95147468 
   17900    217.21736   -131.94381    131307.52   -40898.841    2702.5969   -43601.438    26.883253   0.95115262 
   18000    220.26859   -54.041853     131465.9   -40855.053    2740.5601   -43595.613    27.023089   0.95000676 
   18100    217.72225   -223.04755    131501.85   -40971.697    2708.8787   -43680.575    27.352995     0.949747 
   18200    220.11383   -180.65209    131382.77   -40975.408    2738.6345   -43714.042    27.232087   0.95060785 
   18300    220.66865   -292.64334    131560.48   -40900.981    2745.5375   -43646.518    27.226164   0.94932381 
   18400    216.47948   -200.35754    131282.24   -40984.271    2693.4163   -43677.687    27.175357   0.95133576 
   18500    215.09025   -198.71137     131319.2   -40942.775    2676.1316   -43618.906    27.240539   0.95106801 
   18600    211.32754   -4.1240922    131373.77   -40984.164    2629.3164    -43613.48    27.544319   0.95067296 
   18700    216.65069   -271.71308    131527.22    -40944.59    2695.5464   -43640.137    27.642314   0.94956386 
   18800    218.39205    -184.8844    131467.16   -40918.601    2717.2123   -43635.813     27.80893   0.94999762 
   18900    215.36223   -242.55292    131387.81    -40963.62    2679.5155   -43643.135    27.833339   0.95057138 
   19000    216.77709   -133.83113    131382.79   -40944.642    2697.1191   -43641.761    27.923989   0.95060772 
   19100    216.79996   -278.31617    131453.77   -41001.425    2697.4037   -43698.829    28.045476   0.95009439 
   19200    214.68596   -229.95418    131412.21   -40979.377    2671.1015   -43650.478    27.979314   0.95039486 
   19300    217.66996   -112.29328    131397.69   -40920.519    2708.2282   -43628.747    27.963239   0.95049989 
   19400    217.54513   -147.92861    131532.77   -40916.253     2706.675   -43622.928    28.022566   0.94952379 
   19500    215.84297   -228.20036    131564.44   -40917.876    2685.4969   -43603.373    28.058739    0.9492952 
   19600    212.86541    -166.4974    131645.12   -40965.324    2648.4503   -43613.774    28.304576    0.9487134 
   19700    221.48701   -155.84507    131637.36   -40954.142    2755.7195   -43709.861    28.436081   0.94876933 
   19800    215.53157   -252.58349    131747.13   -40986.761    2681.6225   -43668.384    28.396676   0.94797884 
   19900    213.33427   -149.83019    131792.74   -40996.505    2654.2839   -43650.789    28.487118    0.9476508 
   20000    218.39772   -218.86111    131777.14   -41043.118    2717.2829   -43760.401    28.708268   0.94776296 
   20100     214.4196   -46.991948    131846.22   -41011.085    2667.7875   -43678.873    28.704511   0.94726636 
   20200    214.63798   -223.99107    131916.84   -41069.666    2670.5046   -43740.171    28.875188    0.9467593 
   20300    211.16184   -177.98134    131886.83   -41107.596    2627.2548    -43734.85    29.117606   0.94697468 
   20400    213.70953    -311.7114    131811.36   -41103.527    2658.9528    -43762.48    28.992513   0.94751691 
   20500     216.4758   -106.09804    131792.35   -41071.543    2693.3706   -43764.913    29.328776   0.94765355 
   20600    213.63929   -181.20676    131912.88   -41110.037    2658.0789   -43768.116    29.329982   0.94678768 
   20700     217.1051   -153.91606    131912.07   -41053.952    2701.2002   -43755.152    29.398262   0.94679348 
   20800    215.72417   -207.77616    131957.02   -41056.405    2684.0188   -43740.424    29.366903   0.94647102 
   20900    214.02996   -275.17561    132033.95   -41102.704    2662.9396   -43765.643     29.46365   0.94591951 
   21000     212.5747   -294.89766     131874.7   -41197.385    2644.8333   -43842.218    29.664718   0.94706179 
   21100    208.78938    -301.5467    131932.06   -41202.547    2597.7368   -43800.284    29.755932   0.94665005 
   21200    209.29058   -196.69617    131933.02   -41172.993    2603.9727   -43776.966    29.845304   0.94664314 
   21300     212.3293   -130.35357    132002.35   -41179.605    2641.7802   -43821.385    29.920022   0.94614598 
   21400    214.43644   -196.35105    131980.55   -41152.144     2667.997   -43820.141    29.798128   0.94630224 
   21500    215.72241   -154.20076    132108.68   -41140.816    2683.9969   -43824.813    29.956115   0.94538444 
   21600    214.19398   -139.37978    132052.55   -41084.306    2664.9803   -43749.287    30.122468   0.94578632 
   21700    214.46146   -226.84995    131949.08   -41035.817    2668.3083   -43704.125    30.129534   0.94652797 
   21800    214.66721   -143.93614    131898.51   -41022.293    2670.8682   -43693.161    30.149655   0.94689087 
   21900    218.05553   -140.39126    131817.87    -41047.66    2713.0254   -43760.685    30.129119    0.9474701 
   22000    215.69751   -301.59945    131678.87   -41080.897    2683.6871   -43764.584    30.192515   0.94847028 
   22100    215.05377   -178.08566    131691.57    -41028.77    2675.6777   -43704.448    30.246264   0.94837879 
   22200    212.61857   -277.81661    131640.16   -41061.943    2645.3792   -43707.323    30.281402   0.94874915 
   22300    218.36731   -222.67163     131670.6   -41049.471    2716.9044   -43766.375    30.296464   0.94852986 
   22400    217.13346   -145.13439    131720.42   -41018.401     2701.553   -43719.954    30.485917   0.94817107 
   22500     221.4511   -166.93831    131618.62   -41015.661    2755.2727   -43770.934    30.409388   0.94890443 
   22600    214.26882   -275.83014     131688.6   -40987.924    2665.9114   -43653.835    30.538317    0.9484002 
   22700    215.32808   -198.90571    131736.85   -40985.918    2679.0907   -43665.009    30.518476   0.94805282 
   22800     220.9366   -220.92276    131717.16   -40966.201    2748.8713   -43715.072    30.443576   0.94819451 
   22900    212.51563   -276.73301     131651.2   -41023.533    2644.0985   -43667.631    30.565337   0.94866962 
   23000     215.9001   -334.06258    131604.88   -41001.835    2686.2078   -43688.043    30.587679    0.9490035 
   23100    212.11917   -125.56835    131631.07   -41100.411    2639.1658   -43739.577    30.698845   0.94881465 
   23200    217.78208   -277.75804    131728.86   -41040.042    2709.6231   -43749.665    30.755646   0.94811035 
   23300    212.84397    -282.0283    131896.82   -41078.813    2648.1837   -43726.997    30.948631   0.94690297 
   23400    216.83004    -123.1903    131929.86   -41020.684    2697.7779   -43718.462    30.982835   0.94666582 
   23500    212.14685   -48.059777    131866.61   -41058.618    2639.5101   -43698.128    31.159735   0.94711993 
   23600    216.29466   -391.18145    131774.84   -41039.152    2691.1167   -43730.268    30.991746   0.94777952 
   23700    213.68633   -17.128582     131671.4   -41076.226    2658.6642   -43734.891    31.338877   0.94852403 
   23800    211.30939   -222.36112    131683.92   -41126.817    2629.0905   -43755.908    31.334636   0.94843391 
   23900     212.2665   -221.94602    131668.25   -41136.212    2640.9988   -43777.211    31.365835   0.94854675 
   24000     216.3209    -233.8588    131527.58   -41064.162    2691.4433   -43755.606    31.320114   0.94956127 
   24100    216.09894   -255.88914    131615.43   -41066.404    2688.6817   -43755.086    31.566474   0.94892743 
   24200    214.31941   -143.92734    131626.33   -41125.176    2666.5409   -43791.717    31.497252   0.94884884 
   24300    212.82124   -171.85301    131488.11   -41099.068    2647.9009   -43746.968    31.365998    0.9498463 
   24400    212.80145   -280.44956    131473.47   -41146.464    2647.6546   -43794.119    31.390788   0.94995207 
   24500    212.03994   -87.557087     131634.6   -41092.065      2638.18   -43730.245    31.703743   0.94878922 
   24600    218.15779    -290.8283    131674.66   -41085.055    2714.2977   -43799.353    31.902048   0.94850056 
   24700    215.28661   -88.147255    131922.93   -41103.955    2678.5747    -43782.53    32.089813   0.94671558 
   24800    216.50034   -144.07102       131820   -41101.704    2693.6758    -43795.38    32.101673   0.94745482 
   24900    217.21703   -201.93098     131629.3   -41056.859    2702.5928   -43759.452    32.084257   0.94882745 
   25000    218.62983   -145.71658    131631.53   -41034.644    2720.1708   -43754.815    32.084934   0.94881133 
   25100    215.18799   -310.71709    131670.37   -41041.089    2677.3477   -43718.436    32.061498   0.94853147 
   25200    213.30379    -330.2483    131687.79   -41082.497    2653.9047   -43736.402    32.194058     0.948406 
   25300    217.16305   -188.01862    131853.96   -41090.131    2701.9212   -43792.052    32.313998   0.94721077 
   25400    213.25636   -303.51626    131728.09   -41071.509    2653.3146   -43724.824    32.238571   0.94811588 
   25500    217.33743   -175.15601    131742.55   -41027.758    2704.0908   -43731.849    32.513952    0.9480118 
   25600    214.29284   -103.40343    131827.48   -41116.436    2666.2103   -43782.646    32.665856   0.94740106 
   25700    215.01532   -367.51501    131847.24   -41135.423    2675.1993   -43810.622    32.667773   0.94725903 
   25800     212.7318   -119.51868    131674.02   -41110.949     2646.788   -43757.737    32.572031   0.94850517 
   25900    219.03718   -295.12303     131868.6   -41070.638     2725.239   -43795.877    32.594134   0.94710564 
   26000    219.83459   -256.03363    131756.48   -41017.307    2735.1602   -43752.467     32.62967   0.94791154 
   26100    214.60882   -186.44958    131758.27   -41101.266    2670.1417   -43771.408    32.835554   0.94789866 
   26200    218.33903    -179.5265    131782.06     -41094.4    2716.5527   -43810.953    33.087723    0.9477276 
   26300    212.65944   -219.37329    131779.74   -41072.064    2645.8878   -43717.952    33.089409   0.94774423 
   26400    217.38291   -242.60084    131609.22   -41055.219    2704.6567   -43759.876    33.426026   0.94897221 
   26500    213.05904   -361.08431    131588.73   -41105.407    2650.8595   -43756.267    33.394069      0.94912 
   26600    212.60793   -102.49777    131628.31   -41137.212    2645.2468   -43782.458    33.429152    0.9488346 
   26700    214.38325   -259.38959    131696.25   -41150.825    2667.3352    -43818.16    33.354858   0.94834508 
   26800    215.01836    -92.41621    131599.66   -41086.958    2675.2371   -43762.195    33.269592   0.94904111 
   26900    216.94015   -30.422628    131683.99   -41076.599    2699.1479   -43775.747        33.29   0.94843338 
   27000    215.54086   -240.48657    131829.68   -41129.521    2681.7381   -43811.259    33.566573   0.94738521 
   27100    213.68471   -183.33846    131660.73   -41133.247     2658.644   -43791.892    33.807203   0.94860091 
   27200    208.21118   -184.68026    131654.21   -41139.428    2590.5429   -43729.971    33.908563   0.94864793 
   27300    211.90452   -164.37051    131815.41   -41162.761    2636.4951   -43799.257    34.272251   0.94748781 
   27400    216.32098   -186.68697    131904.99   -41106.989    2691.4442   -43798.433    34.405945   0.94684432 
   27500    218.16534   -206.01974    131758.37   -41045.958    2714.3916    -43760.35    34.299332   0.94789794 
   27600     214.2494   -250.79557    131897.78   -41070.542    2665.6699   -43736.212    34.324708    0.9468961 
   27700    213.20414   -119.18877    131835.72   -41072.625    2652.6648    -43725.29    34.091809   0.94734182 
   27800    217.44534   -127.75987    132031.94   -41013.843    2705.4335   -43719.276    34.090947   0.94593394 
   27900    215.71168   -188.01154    131806.74   -41064.666    2683.8634   -43748.529    34.072523   0.94755013 
   28000     213.2883   -315.23401     131845.3   -41096.425     2653.712   -43750.137    34.281039   0.94727295 
   28100    220.77379   -211.11847    131935.15   -41070.317    2746.8456   -43817.163    34.314695   0.94662791 
   28200     216.0119   -240.83921    131806.48   -41115.199    2687.5987   -43802.798    34.424909   0.94755198 
   28300     212.8566   -304.16009    131870.16   -41110.298    2648.3407   -43758.639    34.695382   0.94709441 
   28400    213.22796   -302.37334    131910.78     -41151.8    2652.9612   -43804.761    34.675506   0.94680275 
   28500    213.51099    -182.6183    132120.34   -41177.892    2656.4826   -43834.375     34.91617     0.945301 
   28600    215.37434   -167.45096    132124.41   -41128.266    2679.6663   -43807.932      35.1488   0.94527189 
   28700    213.22394   -270.55275    131943.86   -41142.079    2652.9112    -43794.99    35.104577   0.94656541 
   28800    216.33858   -172.32639    131886.32   -41110.128    2691.6632   -43801.791    35.142198   0.94697833 
   28900    213.26057   -301.71154    131797.54   -41073.771    2653.3669   -43727.138    35.122418   0.94761626 
   29000    217.11725   -213.72693    131804.84   -41155.466    2701.3514   -43856.818    35.076336   0.94756377 
   29100    215.04465   -238.30012    131763.56   -41084.439    2675.5642   -43760.004     35.19525   0.94786062 
   29200    217.62654   -183.14712    131790.32   -41042.595     2707.688   -43750.283    35.434903   0.94766815 
   29300    217.64263   -261.46986    131834.89   -41100.191    2707.8881   -43808.079    35.542513   0.94734781 
   29400    211.28651   -178.63788    131895.62   -41138.578    2628.8059   -43767.384    35.864519    0.9469116 
   29500    217.02762   -217.31143    131853.89   -41173.614    2700.2361    -43873.85    35.934913   0.94721128 
   29600    216.24219   -185.52472    131797.26   -41094.244    2690.4639   -43784.708    35.843361   0.94761828 
   29700    212.66156   -122.28388    131804.62   -41138.516    2645.9141   -43784.431     35.82226   0.94756537 
   29800    213.22043   -172.87145    131869.58   -41111.158    2652.8676   -43764.026    35.857673   0.94709856 
   29900    214.79337   -221.99802     131822.5   -41141.228    2672.4378   -43813.666    35.808743   0.94743686 
   30000     212.5886   -149.19279    131940.45    -41119.95    2645.0064   -43764.956    35.898577   0.94658984 
   30100    213.75257   -209.72795    131818.36    -41125.17    2659.4884   -43784.658    35.841054   0.94746661 
   30200    214.52707   -188.02566    131857.89   -41121.705    2669.1246   -43790.829    36.133691   0.94718257 
   30300    212.06907   -236.69303    131558.08   -41089.105    2638.5424   -43727.648    36.112532   0.94934112 
   30400    216.17023    -219.0714    131708.19   -41068.729    2689.5686   -43758.298    36.461511   0.94825912 
   30500     218.5858   -375.37743    131750.68   -41070.394    2719.6229   -43790.017    36.541414   0.94795327 
   30600    214.47282   -67.366573    131836.64   -41061.769    2668.4497   -43730.219    36.673344    0.9473352 
   30700    213.60407   -195.78772    131916.15   -41085.375    2657.6407   -43743.016    36.590097   0.94676419 
   30800    219.10084   -67.045763    132108.09   -41026.259     2726.031    -43752.29    36.653037   0.94538868 
   30900    214.63083   -297.02297    132025.95   -41152.208    2670.4156   -43822.624    36.897104   0.94597681 
   31000    210.33447   -241.96152    132080.97   -41197.916    2616.9607   -43814.877    36.896964   0.94558278 
   31100    214.89471   -351.09811    131847.13   -41195.239    2673.6988   -43868.938    36.706361   0.94725986 
   31200    213.16252   -199.97084     131818.8   -41217.314     2652.147   -43869.461    36.641403   0.94746339 
   31300    211.00447   -320.48074    131772.36   -41160.552    2625.2967   -43785.849    36.619987   0.94779735 
   31400    213.07139   -163.18667     131775.8   -41130.293    2651.0132   -43781.306     36.89151   0.94777256 
   31500    211.41862   -405.18257    131874.42   -41185.031    2630.4496   -43815.481    36.919554   0.94706379 
   31600    215.55247   -323.29074    131734.31   -41117.844    2681.8825   -43799.726    37.049331    0.9480711 
   31700    215.78281    -184.7044     131813.8   -41153.198    2684.7484   -43837.946    37.103022   0.94749934 
   31800    217.53013   -48.889195     131851.4   -41080.494    2706.4883   -43786.982    37.566224   0.94722913 
   31900    213.96631   -304.61897    131751.89   -41073.605    2662.1477   -43735.753    37.335302   0.94794457 
   32000    218.14614   -129.38104    131752.66   -41076.614    2714.1528   -43790.766     37.24857   0.94793905 
   32100    214.22717    -150.5066     131897.4   -41087.426    2665.3932   -43752.819     37.17465   0.94689884 
   32200    215.35435   -231.76502    131831.06   -41075.112    2679.4176   -43754.529    37.247002   0.94737533 
   32300    212.67749   -201.78694    131879.74   -41062.594    2646.1123   -43708.706    37.448781   0.94702561 
   32400    211.43881   -239.31818     131853.4   -41119.617    2630.7008   -43750.317    37.421161   0.94721478 
   32500    213.53045   -171.03488    131911.49   -41131.747    2656.7248   -43788.472    37.570519   0.94679764 
   32600    218.21083   -93.427305    131999.77   -41078.303    2714.9576    -43793.26    37.638059   0.94616449 
   32700    214.36692   -211.59249    132105.05   -41146.863     2667.132   -43813.996    37.754867   0.94541045 
   32800    211.73893   -491.52255    132262.34   -41183.491    2634.4348   -43817.926    38.052377   0.94428611 
   32900    212.88389   -273.60587    132044.75   -41190.557    2648.6803   -43839.237    37.961014   0.94584212 
   33000    211.56457   -279.76718    131869.38     -41246.8    2632.2654   -43879.065    37.859205   0.94710002 
   33100    214.54607   -226.71817    131734.59   -41166.541     2669.361   -43835.902    38.018626   0.94806905 
   33200    209.82645   -370.83304     131988.7   -41193.721      2610.64   -43804.361    38.063419   0.94624379 
   33300    215.88474    -395.3772    131740.31    -41132.87    2686.0166   -43818.886    38.163295    0.9480279 
   33400    211.20077   -238.44344     131708.5   -41204.065     2627.739   -43831.804    38.123302   0.94825687 
   33500    214.75854   -177.87958    131752.09   -41175.256    2672.0045    -43847.26    38.271489   0.94794312 
   33600    213.87146   -266.25643    131778.44   -41151.437    2660.9676   -43812.404    38.371293   0.94775361 
   33700      216.706   -121.36784    131828.01   -41144.335    2696.2347   -43840.569    38.531719    0.9473972 
   33800    214.03701   -242.39236     132017.5    -41139.71    2663.0273   -43802.737    38.768483   0.94603739 
   33900    214.19321   -101.14799    132088.67   -41154.698    2664.9708   -43819.669    38.720228   0.94552766 
   34000    218.48945   -239.21673     132040.3   -41120.982    2718.4242   -43839.406    38.612333   0.94587406 
   34100    213.93938   -129.53432    132032.73   -41167.054    2661.8126   -43828.867    38.873642   0.94592824 
   34200    210.41109     -255.841    132127.32   -41169.855     2617.914   -43787.769    39.015082   0.94525106 
   34300    212.11499   -198.59786    132079.64   -41224.939    2639.1138   -43864.053    39.244843    0.9455923 
   34400    217.48641   -64.057078    131974.52   -41168.733    2705.9444   -43874.677    39.362815   0.94634546 
   34500    217.03362   -140.39307     132101.5   -41192.873    2700.3108   -43893.184    39.217798   0.94543585 
   34600    215.37958   -148.72406    132085.53   -41172.585    2679.7315   -43852.317    39.082476   0.94555011 
   34700     212.1986   -12.001038    132118.57   -41253.202     2640.154   -43893.356    39.305663   0.94531368 
   34800    213.09503   -191.54776     132103.4   -41242.711    2651.3073   -43894.019     39.26722   0.94542221 
   34900    212.27721   -194.28489    132089.33   -41253.547    2641.1321    -43894.68    39.264656   0.94552292 
   35000    211.49231   -124.76037    131939.78   -41315.484    2631.3665    -43946.85    39.370187   0.94659467 
   35100    209.66736   -292.78217     132019.6   -41243.196    2608.6606   -43851.857    39.554953   0.94602235 
   35200    212.57389   -274.63951    132029.42   -41231.934    2644.8233   -43876.757    39.523215   0.94595199 
   35300    213.02223   -297.87365    131819.22   -41221.991    2650.4015   -43872.392    39.593665    0.9474604 
   35400    210.29108   -253.17836    131860.67   -41230.466    2616.4208   -43846.887    39.509792   0.94716255 
   35500    215.33725   -110.99477    132000.29   -41125.565    2679.2048    -43804.77    39.457841   0.94616074 
   35600    214.19712   -188.25351    132044.92   -41170.986    2665.0194   -43836.005    39.953339   0.94584097 
   35700    214.17169   -143.47457    131935.48   -41136.204     2664.703   -43800.907    39.859081   0.94662554 
   35800    213.88683   -116.98618    132121.04   -41168.886    2661.1588   -43830.044    40.130019   0.94529599 
   35900    217.38497   -274.97176    132148.69   -41123.303    2704.6823   -43827.985    40.254232   0.94509823 
   36000    214.77373   -235.96643    132232.21   -41093.848    2672.1936   -43766.042    40.120816   0.94450131 
   36100    219.32095   -304.06652    132028.24   -41115.054    2728.7696   -43843.823    40.006498   0.94596041 
   36200    213.36921   -49.692498    132095.67   -41135.941    2654.7186   -43790.659    39.759199   0.94547753 
   36300    211.94994    -406.7468    132139.72   -41193.664    2637.0602   -43830.724    39.715459   0.94516238 
   36400    214.61676   -244.09997    132322.77   -41135.763    2670.2405   -43806.003    40.099764   0.94385489 
   36500    216.74993   -222.24312    132062.11    -41110.72    2696.7812   -43807.501    40.211251   0.94571779 
   36600     209.5026   -188.75338    132128.34   -41213.285    2606.6107   -43819.896    40.361274   0.94524378 
   36700    211.24261   -101.49056    132150.66   -41150.225    2628.2597   -43778.485    40.303795   0.94508411 
   36800    211.94624   -92.275196     132283.3   -41155.518    2637.0141   -43792.532    40.269232   0.94413649 
   36900    216.72679    -51.36873    132591.86   -41177.612    2696.4933   -43874.105     40.48853   0.94193937 
   37000    215.84705   -208.24815     132471.2   -41133.437    2685.5476   -43818.985     40.58162   0.94279731 
   37100     216.1561   -192.67171    132327.14   -41126.876    2689.3929   -43816.269    40.607363   0.94382367 
   37200    213.45709    23.272836    132339.21   -41196.329     2655.812   -43852.141    40.512852   0.94373761 
   37300    211.98083   -255.01627    132355.99   -41215.676    2637.4445    -43853.12    40.444664   0.94361801 
   37400    211.78762   -207.09702    132409.69   -41255.945    2635.0406   -43890.985    40.509783   0.94323528 
   37500    213.53135   -222.61472    132350.55   -41263.851     2656.736   -43920.587    40.637536   0.94365678 
   37600    215.35433   -66.785319    132511.44   -41224.626    2679.4173   -43904.044    40.699195   0.94251101 
   37700    215.05108   -236.61044    132458.41   -41232.794    2675.6443   -43908.438    40.932175   0.94288833 
   37800    209.81909   -295.31545    132462.63   -41324.284    2610.5484   -43934.832    40.952096   0.94285829 
   37900    214.40627   -242.36193    132303.57   -41283.612    2667.6216   -43951.234    40.929923   0.94399183 
   38000    210.67184   -147.52479    132524.83    -41249.05    2621.1582   -43870.208    41.038491   0.94241577 
   38100    212.61497   -210.31715     132556.4   -41198.325    2645.3345   -43843.659    41.204682   0.94219133 
   38200    213.76604   -192.49514    132584.14   -41222.126     2659.656   -43881.782    41.324944   0.94199417 
   38300    219.37788   -156.98589    132399.79   -41170.534    2729.4779   -43900.011    41.137835   0.94330579 
   38400    215.31873   -177.84388    132594.05   -41230.596    2678.9744    -43909.57    41.308153   0.94192379 
   38500    210.86503   -212.40775    132411.24   -41246.297    2623.5619   -43869.859    41.178442   0.94322425 
   38600      217.508   -222.64922     132530.6   -41209.947    2706.2131    -43916.16    41.392053   0.94237472 
   38700    214.88266   -121.47129    132393.89   -41233.262    2673.5488    -43906.81     41.43886   0.94334781 
   38800    217.39717   -97.676894    132528.19   -41257.273    2704.8341   -43962.107    41.525102   0.94239189 
   38900    216.22328   -65.497013    132695.44   -41213.579    2690.2287   -43903.807    41.623429    0.9412041 
   39000     216.7731   -221.59966    132671.84    -41269.88    2697.0694    -43966.95    41.647181   0.94137154 
   39100    213.52668   -219.39941    132680.93   -41227.209    2656.6778   -43883.887    41.459394   0.94130701 
   39200    214.27221   -253.01106     132625.8   -41247.831    2665.9536   -43913.784    41.566218   0.94169832 
   39300    213.93294   -199.82007    132603.78   -41234.754    2661.7325   -43896.487    41.676777   0.94185466 
   39400    216.39627   -176.53257    132718.95   -41194.836    2692.3811   -43887.217    41.673637    0.9410374 
   39500    223.40488   -92.941294    132495.86   -41177.673    2779.5814   -43957.254      41.7718   0.94262185 
   39600    212.29583   -229.13972     132543.7   -41196.537    2641.3637     -43837.9    41.774604   0.94228161 
   39700     217.4537   -7.0802594    132657.75   -41140.052    2705.5374    -43845.59    41.958486   0.94147153 
   39800    216.05829    -156.9661    132682.96   -41214.913    2688.1758   -43903.089    41.767532   0.94129264 
   39900    213.38203   -209.57909    132631.73   -41258.476    2654.8781   -43913.354    41.872334   0.94165617 
   40000    211.72572   -255.16978    132628.85   -41274.486    2634.2704   -43908.757    41.899541   0.94167663 
   40100    218.68689    -154.2844    132470.99   -41184.167    2720.8807   -43905.048    41.735327   0.94279878 
   40200    214.89026   -67.303563    132503.57   -41217.487    2673.6433   -43891.131    41.872343   0.94256699 
   40300    218.34737    -217.5382    132506.92   -41193.052    2716.6564   -43909.708    42.079271   0.94254314 
   40400     216.9084   -96.386953       132494   -41111.166    2698.7528   -43809.919    42.107453   0.94263509 
   40500    217.72171   -276.32587    132423.42   -41135.671     2708.872   -43844.543    42.019561   0.94313746 
   40600    218.09147   -244.65644    132369.75   -41177.524    2713.4725   -43890.997    42.169205   0.94351985 
   40700    216.25525    -228.1015    132483.54   -41230.161    2690.6264   -43920.787    42.103396   0.94270949 
   40800    214.75446   -375.66071    132492.64   -41279.728    2671.9538   -43951.682    42.096685   0.94264476 
   40900    212.01398   -245.52978    132188.19    -41296.94     2637.857   -43934.797    42.330791   0.94481581 
   41000     216.8761   -69.745951    132488.63   -41218.181     2698.351   -43916.532    42.421477   0.94267327 
   41100    216.51484   -158.73393    132422.76   -41191.827    2693.8562   -43885.684    42.289391   0.94314221 
   41200    218.23226   -148.54347    132464.95   -41209.005    2715.2243   -43924.229    42.374045   0.94284179 
   41300    210.98155   -191.31787    132398.27   -41354.428    2625.0115    -43979.44    42.393694   0.94331662 
   41400     216.7866   -63.099085    132493.08   -41309.695    2697.2375   -44006.932    42.336144   0.94264164 
   41500    214.80552   -114.50205    132523.65   -41317.577    2672.5891   -43990.166     42.55409   0.94242416 
   41600    213.07671   -196.99762       132580   -41290.853    2651.0794   -43941.932    42.600869    0.9420236 
   41700    212.49109   -215.49998    132535.41   -41277.135    2643.7931   -43920.928     42.41804   0.94234053 
   41800    210.82859    -253.7756    132469.68   -41281.179    2623.1084   -43904.287    42.486915   0.94280809 
   41900    217.15368   -245.06776    132407.75   -41252.673    2701.8046   -43954.478    42.435863   0.94324909 
   42000    213.34141   -132.98233    132561.51   -41249.523    2654.3727   -43903.895    42.878917     0.942155 
   42100     214.6123   -203.47598    132503.81   -41243.362     2670.185   -43913.547    43.001742    0.9425653 
   42200    215.98301   -345.25153    132572.19   -41207.481    2687.2393    -43894.72    42.913611   0.94207912 
   42300    215.35513   -128.96964    132594.98   -41179.021    2679.4272   -43858.448    43.034765   0.94191719 
   42400    214.58414   -176.36134    132713.29   -41206.332    2669.8346   -43876.167    43.027739   0.94107748 
   42500    216.31196   -178.78248    132739.02   -41213.531     2691.332   -43904.863    42.913143   0.94089506 
   42600    219.74254   -153.91158    132743.06   -41224.317     2734.015   -43958.332    42.904908   0.94086643 
   42700    219.29411   -241.36839     132678.6   -41240.739    2728.4356   -43969.174    42.938154   0.94132356 
   42800    215.52961   -198.10132    132783.83    -41202.63    2681.5981   -43884.229    43.196487   0.94057754 
   42900    214.67234   -387.09427    132831.04   -41286.375    2670.9321   -43957.308    43.232298    0.9402433 
   43000    216.05226   -227.31379    132814.13    -41309.56    2688.1009   -43997.661    43.263782   0.94036301 
   43100    213.05157   -270.45002    132806.05   -41289.067    2650.7666   -43939.833    43.335839    0.9404202 
   43200    213.44475   -216.87875    132788.35   -41247.923    2655.6585   -43903.581    43.387634   0.94054553 
   43300    215.71104   -119.89382    132711.84   -41255.527    2683.8555   -43939.382    43.421625   0.94108779 
   43400    217.33984   -248.13402     132729.8   -41207.589    2704.1208    -43911.71    43.237595   0.94096047 
   43500    215.39468   -117.65448    132696.42   -41210.689    2679.9193   -43890.608    43.324892   0.94119713 
   43600    217.11112   -348.76675    132663.41   -41110.887    2701.2751   -43812.162    43.670143   0.94143136 
   43700    217.62983   -324.65372     132626.5   -41135.831    2707.7289    -43843.56    43.752801   0.94169333 
   43800    216.48562   -298.78575    132494.35   -41150.383    2693.4926   -43843.876    43.652172    0.9426326 
   43900    213.72875   -193.67787    132425.77   -41181.751     2659.192   -43840.943    43.674452   0.94312074 
   44000    212.28962   -117.43261     132566.7   -41199.468    2641.2864   -43840.754    43.740893   0.94211813 
   44100    216.21673    -109.3758    132545.05   -41213.377    2690.1472   -43903.524    43.667859   0.94227201 
   44200     215.9549   -394.32379    132562.26   -41252.877    2686.8896   -43939.766    43.944387    0.9421497 
   44300    216.33481    -233.5321    132374.08   -41268.933    2691.6163   -43960.549    43.932559   0.94348905 
   44400    215.38311   -199.18534    132289.72   -41243.317    2679.7754   -43923.093    44.089775   0.94409069 
   44500    214.13484   -190.98743    132161.87   -41266.506    2664.2445    -43930.75    43.862098   0.94500394 
   44600    211.21638   -209.93869    132306.38   -41332.514    2627.9334   -43960.447    43.817878   0.94397177 
   44700    213.22918   -276.35595    132362.61   -41288.927    2652.9764   -43941.904    43.930843   0.94357075 
   44800    214.74642     -321.034    132493.67   -41254.191    2671.8537   -43926.044    43.858089   0.94263741 
   44900    210.45542   -280.44317    132316.06   -41202.609    2618.4655   -43821.074    44.009471   0.94390273 
   45000    218.01581   -190.18148    132347.84   -41202.057    2712.5312   -43914.588     44.16402   0.94367608 
   45100    217.45648   -278.31278    132263.61   -41163.802     2705.572   -43869.374    44.276802   0.94427703 
   45200    216.99591   -196.68936    132278.01   -41227.884    2699.8417   -43927.725    44.432814   0.94417422 
   45300     212.3592   -119.45248    132246.78   -41230.755    2642.1522   -43872.907    44.543523   0.94439719 
   45400    216.72333    -201.4053    132269.71   -41205.255    2696.4503   -43901.705    44.543752   0.94423352 
   45500    216.37861   -97.284229     132250.5   -41216.214    2692.1612   -43908.376    44.562079   0.94437068 
   45600    216.76802   -267.59075    132104.74   -41220.371    2697.0063   -43917.377    44.535453   0.94541263 
   45700     217.1592   -199.46164    132174.45   -41241.661    2701.8733   -43943.534    44.437157   0.94491403 
   45800    218.87571   -175.46726    132275.13   -41193.546    2723.2299   -43916.776    44.508863   0.94419482 
   45900    219.02483    -117.7827    132470.75   -41131.619    2725.0853   -43856.704    44.776322   0.94280054 
   46000    217.43546   -174.18693    132329.86   -41126.917    2705.3105   -43832.228    44.924906   0.94380432 
   46100      223.314   -112.04515    132254.72   -41090.698    2778.4507   -43869.149    44.977991   0.94434052 
   46200    223.10288   -56.081139    132196.02   -41094.123     2775.824   -43869.947    44.998225   0.94475982 
   46300    216.06152   -320.76646    132246.63   -41113.457     2688.216   -43801.673    45.063581   0.94439826 
   46400     217.7639     -251.941    132177.65   -41144.501     2709.397   -43853.898    44.853555   0.94489112 
   46500    219.64047    -114.2742    132116.21   -41160.952     2732.745   -43893.697    45.008728   0.94533055 
   46600    219.80465   -173.48013     132169.9   -41157.115    2734.7877   -43891.903    45.147772   0.94494652 
   46700    213.04422   -94.073674     132245.5   -41254.378    2650.6751   -43905.054    45.378289   0.94440639 
   46800     214.8905   -82.255005    132286.25   -41310.469    2673.6464   -43984.115     45.41657   0.94411542 
   46900    213.92023   -277.95192    132247.92   -41238.035    2661.5743    -43899.61    45.344922    0.9443891 
   47000    215.42124   -260.88823       132291   -41223.962    2680.2498   -43904.212    45.460666   0.94408151 
   47100    217.66696   -146.79128    132348.53   -41204.659    2708.1908   -43912.849     45.32065   0.94367116 
   47200    214.75719   -213.61879    132187.36   -41253.008    2671.9878   -43924.996     45.41119   0.94482174 
   47300    216.81028   -251.38335    132257.09    -41274.45    2697.5321   -43971.982    45.500683    0.9443236 
   47400    216.97581   -124.74497    132213.45   -41235.571    2699.5916   -43935.162    45.562532   0.94463527 
   47500    220.09174   -207.50445    132259.81   -41180.244    2738.3597   -43918.603     45.87082   0.94430421 
   47600    218.48502   -338.35893    132169.06    -41140.65     2718.369   -43859.019    45.822447   0.94495257 
   47700    216.27664   -323.55114    132215.89   -41193.996    2690.8925   -43884.889    45.851933   0.94461787 
   47800    217.17586   -129.30189    132264.76   -41205.522    2702.0806   -43907.603     45.65568   0.94426884 
   47900    213.50089   -190.79011    132238.11   -41285.567    2656.3569   -43941.924    45.746665   0.94445917 
   48000    212.73443   -196.35566    132210.87   -41298.443    2646.8207   -43945.264    45.724673   0.94465375 
   48100    212.61347   -27.321937    132250.25    -41266.42    2645.3157   -43911.736    46.038012   0.94437243 
   48200    212.12667   -127.11786    132223.56   -41293.165    2639.2591   -43932.424     46.10686   0.94456305 
   48300     213.1744   -35.189503    132465.27   -41262.103    2652.2948   -43914.398    46.125639   0.94283949 
   48400    220.60361   -249.21132    132504.16   -41191.365    2744.7283   -43936.093    45.911964   0.94256281 
   48500    214.94657   -163.36159    132277.51   -41256.068    2674.3439   -43930.412    46.069986   0.94417785 
   48600    217.03994   -218.50226    132234.55   -41256.322    2700.3895   -43956.711    46.306133    0.9444846 
   48700    212.30123   -210.79805    132180.54    -41223.88     2641.431   -43865.311    46.489539   0.94487049 
   48800    214.47842   -265.26361    132064.04   -41250.411    2668.5193    -43918.93    46.575948   0.94570398 
   48900    215.93496    -151.1686     132150.2   -41246.225    2686.6415   -43932.866    46.524935   0.94508743 
   49000    214.61837    -139.9991    132275.91   -41280.214    2670.2606   -43950.474    46.456242   0.94418924 
   49100    215.03654   -198.84218    132273.24   -41271.726    2675.4633    -43947.19    46.576745   0.94420832 
   49200    213.75724   -163.51123    132390.82   -41286.278    2659.5464   -43945.824    46.560537   0.94336971 
   49300    213.26586   -252.21417    132468.74   -41235.566    2653.4328   -43888.998    46.978788   0.94281482 
   49400    220.47611   -186.35774     132320.1   -41212.493    2743.1419   -43955.635    46.961091   0.94387389 
   49500    217.33095   -100.17596    132215.86   -41222.036    2704.0103   -43926.046    46.957171   0.94461806 
   49600    216.68595   -259.56699    132139.43     -41224.5    2695.9852   -43920.485    46.807007   0.94516448 
   49700    213.86206   -246.20242    131974.85   -41235.521    2660.8506   -43896.372     46.78649    0.9463431 
   49800    214.01094   -219.09964    132174.72   -41282.666    2662.7029   -43945.369     46.81644   0.94491211 
   49900    219.04878   -118.82252    132191.63   -41177.354    2725.3833   -43902.737    46.956564   0.94479124 
   50000    220.22061   -208.17612    132394.52   -41217.808     2739.963   -43957.771    47.078182   0.94334334 
   50100    219.48648   -293.83825    132251.43   -41244.652    2730.8291   -43975.481    47.085976   0.94436405 
   50200    216.81254   -241.38358    132256.95   -41297.441    2697.5602   -43995.001    47.104166   0.94432462 
   50300    213.25142   -351.62395    132234.77   -41267.663    2653.2531   -43920.916    46.987078   0.94448296 
   50400    218.50585   -228.63646    132168.52   -41299.441    2718.6282    -44018.07     47.06417   0.94495643 
   50500    215.80949   -140.24592    132329.92   -41348.857    2685.0804   -44033.938    47.240914   0.94380391 
   50600    212.56046    -191.4434    132343.95    -41379.97    2644.6562   -44024.627    47.280818   0.94370381 
   50700    213.02696   -286.99427    132382.95   -41395.567    2650.4604   -44046.027    47.294011   0.94342583 
   50800    213.17932   -110.59107    132577.33   -41397.069    2652.3561   -44049.425    47.255507   0.94204262 
   50900    214.60093   -313.26257    132581.77   -41314.139    2670.0436   -43984.182    47.220155   0.94201102 
   51000    214.50529   -88.134735     132575.3   -41341.396    2668.8536    -44010.25    47.408319   0.94205698 
   51100    215.30681   -289.08672    132622.36   -41373.778    2678.8261   -44052.604     47.53651    0.9417227 
   51200    213.74371   -186.35058     132574.3   -41355.431    2659.3781   -44014.809    47.606656   0.94206409 
   51300    212.43194   -148.28903    132494.19   -41411.689    2643.0573   -44054.746    47.677015   0.94263373 
   51400    210.28617   -155.62184    132480.06   -41409.828    2616.3598   -44026.188     47.71686   0.94273425 
   51500    211.02817   -128.24961    132412.93   -41410.158    2625.5917    -44035.75    47.398806    0.9432122 
   51600    215.57484   -133.61011    132419.73   -41356.655    2682.1608   -44038.816    47.411143   0.94316377 
   51700     216.9189   -185.02286    132502.01     -41341.9    2698.8835   -44040.783    47.521412   0.94257809 
   51800    212.06812   -161.83077    132363.31   -41379.412    2638.5305   -44017.943    47.541858   0.94356578 
   51900    210.22312   -308.43205     132475.9   -41407.886    2615.5752   -44023.461    47.568005   0.94276387 
   52000    208.85412   -229.11036    132469.27   -41421.461    2598.5423   -44020.003    47.637349   0.94281105 
   52100    209.80928   -236.23853    132575.42   -41369.598    2610.4263   -43980.024    47.873949    0.9420562 
   52200    208.25124   -208.95346    132360.54   -41392.659    2591.0413     -43983.7    47.765965    0.9435855 
   52300    211.50508   -160.79303    132561.08    -41367.94    2631.5253   -43999.465    47.802655   0.94215807 
   52400    215.99416   -113.75833    132524.51   -41324.365     2687.378   -44011.743    47.847845   0.94241803 
   52500    219.48411   -123.98021    132354.81   -41320.179    2730.7997   -44050.979    47.861373   0.94362639 
   52600    213.97687   -281.37737    132499.11   -41347.484    2662.2791   -44009.764    47.902845   0.94259873 
   52700    213.01377    -273.4413    132509.65   -41364.062    2650.2963   -44014.358    47.881126   0.94252375 
   52800    215.86012   -111.20199    132595.14   -41323.493    2685.7103   -44009.203    48.015778   0.94191606 
   52900    216.33545   -105.52761    132590.68   -41304.844    2691.6243   -43996.468    47.988478   0.94194774 
   53000    215.72172   -280.29029    132507.01   -41273.031    2683.9883   -43957.019    47.871668   0.94254251 
   53100    216.24684   -141.70378    132552.69   -41334.862    2690.5218   -44025.384    47.845475   0.94221769 
   53200    220.29241    -202.1962    132455.44   -41334.399    2740.8564   -44075.255    47.982407   0.94290951 
   53300    218.23959   -247.68173    132537.14   -41326.582    2715.3154   -44041.898    48.208332   0.94232823 
   53400    213.44633   -193.65185    132381.99   -41413.112    2655.6781    -44068.79    48.151028   0.94343267 
   53500    212.84448   -197.67223    132457.01   -41417.343      2648.19   -44065.533    48.094157   0.94289828 
   53600    211.53803    -219.9875    132300.46   -41424.982    2631.9353   -44056.918    48.112594   0.94401405 
   53700    210.57177   -245.62157    132352.41   -41450.458    2619.9131   -44070.371    48.156391   0.94364352 
   53800    213.08882   -311.65472    132495.66   -41337.695      2651.23   -43988.925    48.272966   0.94262324 
   53900    211.97868   -166.37136    132443.78   -41380.171    2637.4177   -44017.588    48.089626   0.94299249 
   54000    214.64427   -241.70441    132438.69   -41351.609    2670.5828   -44022.191    48.101095   0.94302873 
   54100    213.37225    -285.3664    132247.24     -41352.3    2654.7565   -44007.056      48.0045   0.94439394 
   54200    214.56743   -96.547193    132228.29    -41333.34    2669.6268   -44002.967    47.941686   0.94452925 
   54300     217.2874    1.1641183    132400.99   -41301.251    2703.4684   -44004.719    48.294698   0.94329724 
   54400    214.79393   -149.33913    132309.74   -41323.071    2672.4448   -43995.516    48.243573   0.94394783 
   54500    212.55028   -178.05102    132340.87   -41317.411    2644.5296   -43961.941    48.335313   0.94372577 
   54600    219.60544   -69.312054    132258.76   -41224.401    2732.3092    -43956.71    48.566245   0.94431167 
   54700     217.0389   -214.72141    132365.08   -41224.439    2700.3765   -43924.816    48.588229   0.94355314 
   54800    215.58646   -247.52778    132300.27   -41291.688    2682.3054   -43973.993    48.538224   0.94401539 
   54900    213.11225   -146.90484    132366.29   -41327.924    2651.5215   -43979.445    48.398322   0.94354456 
   55000    212.44122   -324.30387    132327.52   -41389.928    2643.1727   -44033.101    48.408316   0.94382099 
   55100    211.52522   -294.73348     132366.3   -41359.234    2631.7759    -43991.01    48.663407   0.94354447 
   55200    211.68044   -172.49923    132508.24   -41354.605    2633.7071   -43988.312     48.87819   0.94253377 
   55300    216.07579   -133.95457    132360.44    -41311.22    2688.3936   -43999.613    48.825316   0.94358624 
   55400    214.68396    -174.3059    132281.38   -41297.361    2671.0766   -43968.438    48.683537   0.94415021 
   55500     215.4108   -204.51604    132395.43   -41245.772    2680.1198   -43925.892    48.714656   0.94333684 
   55600     217.1644   -81.898691    132394.11   -41289.511     2701.938   -43991.449    48.995969   0.94334631 
   55700    218.51847   -164.88401    132298.67   -41287.036    2718.7852   -44005.821      49.1131   0.94402683 
   55800    213.56841   -158.32506    132402.87   -41285.649    2657.1971   -43942.846    49.183121   0.94328386 
   55900    212.67603   -215.96723    132301.61   -41240.486    2646.0942    -43886.58    49.124398   0.94400581 
   56000    215.67236    -134.9169    132352.29   -41230.939    2683.3742   -43914.313    49.036042   0.94364435 
   56100    216.90568   -269.01303    132410.69   -41209.277    2698.7191   -43907.996    49.095135   0.94322818 
   56200    218.25482   -174.85553       132387   -41213.124    2715.5049   -43928.629    49.205394   0.94339695 
   56300    215.60277   -164.11555    132193.95   -41250.098    2682.5083   -43932.606    49.224477   0.94477465 
   56400    213.84875    -149.5154    132213.64   -41228.429    2660.6851   -43889.114    49.008468   0.94463392 
   56500    210.26922   -249.86698    132249.14    -41315.41    2616.1489   -43931.558    48.995093   0.94438039 
   56600     212.9617   -219.33102    132267.53   -41337.191    2649.6484    -43986.84    49.272422   0.94424905 
   56700     209.7299   -268.19942    132118.13   -41365.236    2609.4386   -43974.675    49.314242   0.94531679 
   56800    214.80701   -154.98126    132087.03   -41292.648    2672.6075   -43965.256    49.448436   0.94553943 
   56900    214.64786   -298.23617    132158.69   -41288.931    2670.6275   -43959.558    49.402263   0.94502672 
   57000    219.72728   -141.81266    132149.48   -41224.838    2733.8251   -43958.663    49.198144   0.94509258 
   57100     214.5152   -115.41798    132188.79   -41278.985    2668.9769   -43947.962     49.31344   0.94481151 
   57200    214.96724   -205.05409    132230.85   -41320.158    2674.6011   -43994.759    49.400527   0.94451101 
   57300    214.50016   -231.11947    132337.09   -41367.147    2668.7897   -44035.937    49.394763   0.94375271 
   57400    216.51588   -287.07577    132316.94   -41363.959    2693.8692   -44057.828    49.439226   0.94389648 
   57500    213.79635   -206.03819    132218.67   -41408.468    2660.0331   -44068.501    49.240715   0.94459801 
   57600    212.04672   -95.942567    132487.49   -41372.465    2638.2644   -44010.729    49.371072   0.94268139 
   57700    208.69918   -290.79171    132461.77   -41422.633    2596.6146   -44019.248    49.454224   0.94286442 
   57800    210.00668   -135.11399    132491.18   -41447.967    2612.8824   -44060.849    49.370344   0.94265514 
   57900     214.0079   -167.68039    132432.09   -41426.642    2662.6652   -44089.307    49.432584   0.94307576 
   58000    210.54252    -366.0371    132474.45   -41428.853    2619.5492   -44048.402    49.475837    0.9427742 
   58100    211.74678   -85.374822    132401.71   -41359.405    2634.5325   -43993.938    49.584051   0.94329213 
   58200    215.62488   -277.43124    132401.42   -41309.856    2682.7835    -43992.64    49.486747   0.94329421 
   58300    215.42864   -245.02968    132460.47   -41242.529    2680.3419   -43922.871    49.470741   0.94287368 
   58400    217.75346   -226.07867    132459.91   -41255.206    2709.2671   -43964.473    49.310214    0.9428777 
   58500    219.19143   -131.63104    132404.54   -41263.675    2727.1581   -43990.833    49.378697   0.94327199 
   58600    219.22073   -200.25628    132452.36   -41233.775    2727.5226   -43961.298    49.757853   0.94293143 
   58700    214.76297    -236.7798    132512.28   -41242.808    2672.0596   -43914.867    49.663202   0.94250504 
   58800    215.67295   -111.40126    132465.15     -41297.9    2683.3816   -43981.282    49.540227    0.9428404 
   58900    213.59702   -170.18946    132554.11   -41349.352     2657.553   -44006.905    49.643547   0.94220759 
   59000    213.56797   -89.837328     132644.5   -41336.902    2657.1915   -43994.093    49.641153   0.94156558 
   59100    215.33924   -193.25494    132593.06    -41344.46    2679.2295    -44023.69    49.453788   0.94193085 
   59200    216.16052   -261.27211    132608.19   -41353.109    2689.4478   -44042.557    49.752116   0.94182334 
   59300    215.79411   -241.06756    132623.15   -41349.798     2684.889   -44034.687     49.91159   0.94171711 
   59400    211.87013   -200.15214    132634.52   -41401.615    2636.0672   -44037.682    50.006452   0.94163637 
   59500    215.94526   -156.08483    132638.28    -41361.15    2686.7696    -44047.92    50.006136   0.94160973 
   59600    214.60994   -89.517202    132741.57   -41350.678    2670.1557   -44020.833    50.025763   0.94087698 
   59700    215.43405   -174.57305    132959.22   -41376.667    2680.4092   -44057.077    49.982783   0.93933683 
   59800    210.78758    -339.3977       132689   -41396.515    2622.5983   -44019.114    50.145208   0.94124974 
   59900    217.72881   -100.65489    132668.02   -41375.234    2708.9604   -44084.195    50.154608   0.94139864 
   60000    214.79445   -493.73652    132559.09   -41418.251    2672.4514   -44090.702    50.209587   0.94217223 
   60100    213.99941    -130.2916    132456.83   -41374.399    2662.5596   -44036.958    49.997832    0.9428996 
   60200    212.42476   -14.742398    132608.43   -41355.039    2642.9679   -43998.007    50.232996   0.94182163 
   60300    214.34264    -198.2505    132621.86   -41319.126    2666.8299   -43985.956    50.373244   0.94172626 
   60400    212.88317   -287.72376    132558.27   -41260.699    2648.6713    -43909.37    50.391776   0.94217806 
   60500    212.99472    -278.4098    132439.37   -41282.562    2650.0593   -43932.621    50.302163    0.9430239 
   60600    214.27656    -246.7758    132486.65   -41324.611    2666.0078   -43990.619    50.163586   0.94268735 
   60700    212.13386   -201.17607    132635.74   -41346.589    2639.3485   -43985.938      50.2559   0.94162776 
   60800    217.35917   -178.61931    132546.17   -41303.538    2704.3613   -44007.899    50.223399   0.94226405 
   60900    213.75467   -69.548195    132555.01   -41283.184    2659.5144   -43942.699    50.482437   0.94220125 
   61000    214.11162   -135.84792    132527.03   -41323.575    2663.9556    -43987.53    50.364564   0.94240012 
   61100    211.93608   -260.36299    132704.06   -41360.222    2636.8877    -43997.11    50.552001   0.94114298 
   61200    215.07458   -44.528998    132752.24    -41371.34    2675.9366   -44047.277    50.587049   0.94080139 
   61300    214.00681   -178.61635    132752.92   -41365.679    2662.6516   -44028.331    50.648836   0.94079653 
   61400    216.08077   -108.01515    132759.52   -41393.435    2688.4555    -44081.89      50.5718   0.94074982 
   61500    214.28307    -107.9751    132810.33   -41388.666    2666.0888   -44054.755    50.848436   0.94038992 
   61600    220.03237   -245.25568    132814.54   -41350.477     2737.621   -44088.098    50.992631   0.94036006 
   61700    210.57324    -72.04742     132735.6   -41428.839    2619.9314    -44048.77    50.873625   0.94091932 
   61800    207.53619   -271.35703    132499.91   -41487.776    2582.1448   -44069.921    50.732972     0.942593 
   61900    210.74365   -136.71128    132808.36   -41425.287    2622.0516   -44047.339    50.825279   0.94040382 
   62000    216.35324   -270.21242    132821.47   -41378.133    2691.8457   -44069.979    50.880725   0.94031098 
   62100    216.26245   -325.41772    132668.94   -41398.294     2690.716    -44089.01    50.915317   0.94139207 
   62200    218.85242   -71.020767    132581.62   -41364.867    2722.9402   -44087.807    51.042561    0.9420121 
   62300    213.53272   -4.0260488    132835.36    -41408.83    2656.7529   -44065.583    51.293204   0.94021266 
   62400    218.74236   -113.31113    132754.88   -41363.737    2721.5708   -44085.308    51.151829   0.94078265 
   62500    217.67767   -146.81127    132782.14   -41378.893     2708.324   -44087.217    51.277073   0.94058951 
   62600    217.14417    -186.3683    132670.71   -41386.499    2701.6863   -44088.185    51.340952   0.94137956 
   62700     215.6755   -227.41034    132652.84    -41424.96    2683.4133   -44108.373    51.335995   0.94150638 
   62800    214.44878   -315.40783    132666.51   -41409.293    2668.1505   -44077.443    51.268841   0.94140935 
   62900    214.56101   -259.02701    132637.02   -41359.651    2669.5468   -44029.198    51.357756   0.94161862 
   63000    214.88766    -170.7829     132628.6   -41319.566     2673.611   -43993.177    51.451318   0.94167844 
   63100    219.03552   -115.59523    132929.61   -41302.315    2725.2183   -44027.534     51.49139   0.93954605 
   63200    219.33986   -91.722159     133191.6   -41336.631    2729.0048   -44065.636    51.583624   0.93769795 
   63300    216.55673   -188.08815     133361.7   -41373.193    2694.3775    -44067.57    51.585456   0.93650196 
   63400    220.52622   -317.56474    133136.51   -41305.854    2743.7655    -44049.62    51.663926   0.93808596 
   63500    213.98564   -175.24294    133138.22   -41394.639    2662.3882   -44057.028    51.869228    0.9380739 
   63600    214.89238    -129.2547    133002.36   -41391.288    2673.6698   -44064.958    51.574547   0.93903215 
   63700     216.8142   -261.18666    133004.92    -41397.01    2697.5809   -44094.591    51.333572   0.93901409 
   63800    210.91654   -227.65589    132890.78   -41498.227    2624.2028    -44122.43    51.440901   0.93982058 
   63900    207.86672   -230.04347       132881    -41493.61    2586.2572   -44079.868    51.632243   0.93988975 
   64000    211.27192    -290.1202    132916.07   -41478.258    2628.6243   -44106.883    51.927128   0.93964176 
   64100    217.52588   -111.17119    132930.34   -41399.011    2706.4355   -44105.447    51.948727   0.93954089 
   64200    212.23409   -282.84481    132974.69     -41405.6    2640.5956   -44046.196    51.800152   0.93922751 
   64300    218.70694   -231.97775    132948.06   -41314.326    2721.1301   -44035.456    51.774109   0.93941564 
   64400    218.72967   -252.37811    132868.79   -41340.959    2721.4129   -44062.372    51.806793    0.9399761 
   64500    216.54729   -246.76831    132929.16   -41324.274    2694.2599   -44018.534    51.725305   0.93954925 
   64600    212.97647   -239.97198    132998.27   -41363.564    2649.8321   -44013.396    51.974815     0.939061 
   64700    214.60753    -258.8979    132930.35   -41379.402    2670.1257   -44049.528     52.22338   0.93954082 
   64800    213.77706   -270.13664    132868.56    -41383.69     2659.793   -44043.483    52.194591   0.93997775 
   64900    212.19541   -115.14808    132820.77   -41363.503    2640.1144   -44003.617    52.117152     0.940316 
   65000    217.77633    16.872849    132894.94   -41335.239    2709.5515    -44044.79    52.053198   0.93979118 
   65100    214.56872   -182.81501    132829.33   -41363.609    2669.6428   -44033.252    52.402169   0.94025535 
   65200    217.41486   -29.799508    132969.02   -41352.027    2705.0542   -44057.081    52.580798   0.93926757 
   65300    215.28264   -60.471552    133064.58   -41349.609    2678.5253   -44028.134    52.497298   0.93859304 
   65400    218.38575   -247.04869    133131.07   -41288.415    2717.1339   -44005.549     52.64731   0.93812431 
   65500     215.5616    -251.7912    132911.26   -41351.834    2681.9961    -44033.83    52.714989   0.93967578 
   65600    214.88837   -85.863524    132937.81   -41396.699    2673.6198   -44070.319    52.829627   0.93948811 
   65700    212.89961   -309.33524    132905.44    -41452.86    2648.8759   -44101.736    52.782149   0.93971691 
   65800    210.72827   -385.87375    132846.24    -41465.17    2621.8603   -44087.031    52.721311   0.94013566 
   65900    213.85839   -268.50881     132860.1   -41433.326    2660.8049   -44094.131    52.676994   0.94003763 
   66000    216.70059    -215.7529    132996.14    -41334.24    2696.1673   -44030.407    52.568315   0.93907608 
   66100    218.37167   -161.25341    132821.53   -41283.061    2716.9588   -44000.019    52.858101    0.9403106 
   66200    215.91351   -225.23895    132722.72   -41254.732    2686.3745   -43941.107    53.044828   0.94101066 
   66300    219.13942   -79.901408    132750.75   -41291.674     2726.511   -44018.185    53.208448   0.94081192 
   66400    217.90249   -192.51882    132938.33   -41338.836    2711.1212   -44049.957    53.111369   0.93948446 
   66500    215.60457   -320.80546    132836.78   -41379.742    2682.5308   -44062.273    52.886061   0.94020267 
   66600    213.30759   -200.21392    132843.98   -41395.656     2653.952   -44049.608    52.854342   0.94015166 
   66700    215.25131    -89.60274    132947.35   -41415.594    2678.1355   -44093.729    52.800645    0.9394207 
   66800     217.6669    -258.9139    133059.05   -41353.556      2708.19   -44061.746    53.203129   0.93863207 
[...]
   84600    209.34953   -356.00902    133536.33   -41635.982    2604.7061   -44240.688    58.676233   0.93527726 
   84700    212.49363    -75.34041       133599    -41650.52    2643.8247   -44294.345    58.818483   0.93483854 
   84800    211.14219   -243.98265    133627.38   -41628.469    2627.0102   -44255.479    58.836032   0.93463998 
   84900    215.28805   -183.94832    133487.98   -41611.968    2678.5926    -44290.56    58.803495   0.93561601 
   85000    217.48446   -202.64393    133517.93   -41569.022    2705.9202   -44274.942    58.983632   0.93540615 
   85100    215.31779   -285.81466    133548.86   -41568.741    2678.9626   -44247.704    59.074137   0.93518951 
   85200    218.38865   -238.53648    133398.23    -41575.71      2717.17    -44292.88    59.044517   0.93624552 
   85300    213.48094   -193.37943    133374.82   -41599.822    2656.1088   -44255.931    59.122976   0.93640985 
   85400    213.70044   -166.15768    133320.71   -41579.244    2658.8397   -44238.084    59.068255   0.93678987 
   85500    210.20111   -178.55737    133307.04   -41538.651    2615.3014   -44153.952    59.089438   0.93688595 
   85600    213.06009   -83.210506     133407.7   -41518.643    2650.8726   -44169.516    59.310883   0.93617903 
   85700    214.48754   -397.24081    133212.82   -41557.233    2668.6328   -44225.866    59.288334   0.93754856 
   85800    213.97586   -80.125191    133171.02   -41544.509    2662.2666   -44206.776    59.368799   0.93784288 
   85900    214.85182   -105.32419    133280.99   -41445.799    2673.1651   -44118.964    59.384986   0.93706906 
   86000     214.7926    -213.1396    133466.61    -41493.19    2672.4284   -44165.618    59.381691   0.93576579 
   86100    216.87825   -141.98577    133559.37   -41471.111    2698.3777   -44169.489    59.549638   0.93511587 
   86200    218.31518    -290.6728    133658.83   -41439.439    2716.2559   -44155.695    59.296989   0.93442004 
   86300    216.10296   -245.18383    133607.88   -41482.032    2688.7316   -44170.764    59.325215   0.93477639 
   86400     212.5069   -207.86086    133680.55   -41501.865    2643.9898   -44145.855    59.563029   0.93426823 
   86500    212.75498   -203.64529    133674.81   -41490.871    2647.0764   -44137.948    59.789194   0.93430837 
   86600    217.58726   -173.87427       133648    -41426.51    2707.1991    -44133.71    59.700497   0.93449581 
   86700    218.32464   -464.85452    133617.42   -41427.426    2716.3736   -44143.799    59.457004   0.93470963 
   86800    218.14548   -225.24997    133591.65   -41501.312    2714.1445   -44215.456    59.531577   0.93488994 
   86900    216.80397   -258.06564    133568.65   -41470.029    2697.4536   -44167.483    59.845203   0.93505096 
   87000    219.38281   -175.38202    133468.91   -41467.583    2729.5393   -44197.122    59.519532   0.93574971 
   87100    215.81771    -192.0222     133646.5   -41499.918    2685.1826   -44185.101    59.541252   0.93450628 
   87200    217.48051   -255.17484    133825.97   -41496.285    2705.8711   -44202.156     59.74737   0.93325305 
   87300     212.7781   -278.92084    133568.17   -41507.484    2647.3641   -44154.848    59.554515   0.93505429 
   87400     214.6005   -192.42251    133553.82   -41522.781    2670.0381   -44192.819    59.381411   0.93515474 
   87500    216.66071   -146.94422     133598.1   -41542.922    2695.6711   -44238.593    59.661559   0.93484479 
   87600    214.32641   -99.928894    133671.22   -41548.993    2666.6279   -44215.621    59.720952   0.93433343 
   87700     217.2904   -288.69859    133516.71   -41561.069    2703.5057   -44264.575    59.507259   0.93541467 
   87800    213.86785   -149.73825    133550.46   -41545.209    2660.9226   -44206.132    59.747828   0.93517829 
   87900    216.63864   -131.59732    133586.41   -41571.229    2695.3965   -44266.625    59.903438    0.9349266 
   88000    213.15425   -157.77902     133632.8    -41592.05    2652.0442   -44244.094     59.95923   0.93460209 
   88100    218.67137   -292.08885    133595.27    -41526.57    2720.6876   -44247.258    59.725824   0.93486459 
   88200    217.50895   -215.65769    133550.41   -41503.457    2706.2248   -44209.682     59.59341   0.93517866 
   88300    213.20698   -220.02027    133546.38   -41530.039    2652.7002   -44182.739    59.925106   0.93520688 
   88400    210.88172   -325.44234    133550.66   -41634.798    2623.7696   -44258.568    60.007337   0.93517688 
   88500    212.56305   -280.73519    133491.16   -41533.835    2644.6884   -44178.524    60.117741   0.93559371 
   88600    216.59637   -191.84174    133514.93   -41479.728    2694.8707   -44174.598    60.034663   0.93542714 
   88700    212.78003    -271.8871    133487.16    -41461.47    2647.3881   -44108.858    59.950914   0.93562176 
   88800    217.30055   -141.41469     133552.8   -41395.081     2703.632   -44098.713     59.95995   0.93516189 
   88900    215.93703   -286.31041    133515.64   -41437.568    2686.6672   -44124.235    59.959605   0.93542215 
   89000    220.41373   -214.30529    133507.94   -41424.775    2742.3659   -44167.141    60.224704   0.93547616 
   89100    214.48961   -158.09044    133381.08   -41516.785    2668.6586   -44185.443    60.195143   0.93636588 
   89200    214.65334    -140.4814    133405.91   -41543.379    2670.6956   -44214.074    60.032784   0.93619157 
   89300    214.15515   -198.67535    133456.01   -41561.796    2664.4972   -44226.294     60.16311   0.93584012 
   89400    215.81904   -167.52621    133425.36   -41584.607    2685.1992   -44269.807    60.332665   0.93605509 
   89500     208.8387   -170.89926    133537.77   -41616.683    2598.3505   -44215.034    60.260412   0.93526719 
   89600    207.15688   -234.77218    133393.75    -41664.76    2577.4254   -44242.186    60.196844   0.93627691 
   89700    210.60952    -249.3194    133488.27   -41630.438    2620.3829   -44250.821    60.091234   0.93561397 
   89800    213.31504   -192.95414    133462.58   -41585.304    2654.0447   -44239.348    60.251121   0.93579408 
   89900    211.01903   -211.69581    133372.28   -41635.938    2625.4779   -44261.416    60.235756   0.93642765 
   90000    218.26273   -267.31341    133279.02    -41550.55    2715.6033   -44266.153    60.325102   0.93708292 
   90100    214.43606   -151.02062    133350.57   -41557.296    2667.9923   -44225.288    60.418884   0.93658013 
   90200    210.86824   -241.97867    133462.97   -41587.935    2623.6018   -44211.537    60.496775   0.93579133 
   90300    212.66319   -206.30854    133486.65   -41600.945    2645.9343   -44246.879     60.45838   0.93562535 
   90400    215.76235   -69.024711    133462.97   -41592.363    2684.4938   -44276.857    60.486332   0.93579135 
   90500    214.70641   -116.72058    133443.63   -41569.105    2671.3559   -44240.461    60.494518   0.93592699 
   90600    214.70253    -258.1818    133584.96   -41479.309    2671.3076   -44150.616    60.497302   0.93493677 
   90700    221.05084   -172.65786    133506.74   -41488.456    2750.2927   -44238.749    60.572439   0.93548455 
   90800    215.81736   -306.89239    133428.35    -41527.26    2685.1783   -44212.438    60.294281   0.93603416 
   90900     209.2058   -304.42952    133558.74   -41615.159    2602.9179   -44218.077    60.512766   0.93512031 
   91000    213.83257   -100.91624     133400.3   -41622.825    2660.4837   -44283.308    60.810075   0.93623094 
   91100    212.95891   -61.217646    133507.18   -41616.142    2649.6137   -44265.756    60.584167   0.93548143 
   91200    212.13813   -302.63776    133495.31   -41583.703    2639.4016   -44223.104    60.512383   0.93556463 
   91300    214.15933   -306.34595    133419.93   -41486.804    2664.5492   -44151.353    60.609904   0.93609322 
   91400    221.64206   -62.757536    133436.82   -41461.951    2757.6486     -44219.6    60.658306   0.93597476 
   91500    216.84925   -154.74645    133541.28   -41464.883     2698.017     -44162.9    60.776455    0.9352426 
   91600    211.40844   -243.50167    133439.74   -41510.137    2630.3229    -44140.46    60.601475   0.93595427 
   91700    212.05241   -114.90338    133296.85   -41579.959    2638.3352   -44218.294     60.82002   0.93695754 
   91800    215.53075   -145.58826    133516.68   -41547.384    2681.6123   -44228.996    60.750469    0.9354149 
   91900    211.59206   -241.92938    133534.57   -41549.817    2632.6074   -44182.425    60.486985   0.93528959 
   92000    213.83518   -168.71222    133532.48   -41560.153    2660.5162   -44220.669    60.590933   0.93530423 
   92100    211.58706   -197.27245    133408.39   -41617.832    2632.5453   -44250.377    60.723381   0.93617417 
   92200    216.06482   -245.37287    133330.77   -41553.845    2688.2571   -44242.102    60.850714   0.93671918 
   92300    217.01449   -202.26785    133448.38   -41482.342    2700.0728   -44182.415    60.805309   0.93589364 
   92400    216.47797   -248.30442    133429.35   -41490.534    2693.3975   -44183.931    60.758421    0.9360271 
   92500    213.39485   -143.43106    133479.72   -41533.813    2655.0376    -44188.85    60.930614   0.93567394 
   92600    221.06135   -227.40295     133533.5   -41520.258    2750.4234   -44270.681    60.793243   0.93529705 
   92700     214.2374   -132.09635    133619.77   -41518.502    2665.5206   -44184.023    60.923631   0.93469319 
   92800    215.59875   -205.12062    133575.76   -41573.144    2682.4583   -44255.602    60.864502   0.93500118 
   92900    213.53478    -250.3928    133543.22   -41528.517    2656.7786   -44185.295    60.993123   0.93522901 
   93000    214.97452   -209.20143    133525.91   -41547.218    2674.6917   -44221.909    60.918315   0.93535022 
   93100    215.99086    -225.0601    133461.26   -41489.226    2687.3369   -44176.563    60.845579   0.93580333 
   93200    214.63605   -201.73713    133478.39   -41505.792    2670.4805   -44176.273    60.904615    0.9356832 
   93300     212.9834   -243.66908    133303.86     -41519.9    2649.9184   -44169.818    60.908024   0.93690831 
   93400     213.9679   -169.32029    133505.36   -41548.835    2662.1675   -44211.002    61.245121   0.93549424 
   93500    212.00756   -262.26299    133331.48   -41583.652    2637.7771   -44221.429    61.055803   0.93671419 
   93600    206.92255   -178.08915    133339.24    -41635.52      2574.51    -44210.03    60.885394   0.93665968 
   93700    212.31668   -144.74728    133315.12   -41595.993    2641.6232   -44237.616    60.974816   0.93682916 
   93800    213.22228   -266.27885    133286.43   -41569.117    2652.8906   -44222.007    61.002706   0.93703081 
   93900    216.80392   -132.81991    133407.04   -41554.418    2697.4529   -44251.871     60.85681   0.93618366 
   94000    215.05189   -195.90289    133300.46       -41562    2675.6544   -44237.655    60.832372   0.93693217 
   94100    214.14853   -125.34881    133332.54   -41570.121    2664.4149   -44234.536    60.889782   0.93670675 
   94200    214.01151   -107.22457    133402.82   -41566.464      2662.71   -44229.174    60.991256   0.93621329 
   94300    214.82809   -271.80737    133574.47   -41523.453    2672.8698   -44196.323    61.041129   0.93501021 
   94400    216.26596   -271.60564    133590.71   -41501.752    2690.7597   -44192.512    61.299227    0.9348965 
   94500    213.31016   -178.55344    133620.54   -41444.968    2653.9839   -44098.952    61.444091   0.93468781 
   94600    219.08501   -159.97745    133525.72   -41494.913     2725.834   -44220.747    61.440249   0.93535153 
   94700    217.52246   -248.65361    133500.89    -41539.38     2706.393   -44245.773    61.224661    0.9355255 
   94800    216.30773   -145.34339     133517.4   -41531.557    2691.2794   -44222.836    61.085478   0.93540982 
   94900     215.1827   -285.87436    133416.79   -41504.787    2677.2819   -44182.069    61.244193   0.93611523 
   95000    217.13615   -83.828328    133390.88   -41494.514    2701.5865     -44196.1    61.377831   0.93629707 
   95100    218.24672   -264.42617    133548.14    -41492.02    2715.4041   -44207.424    61.469144   0.93519454 
   95200    216.52005   -137.87519    133471.69   -41518.434    2693.9211   -44212.355    61.376311   0.93573021 
   95300    217.72155   -200.39952    133515.41   -41442.703      2708.87   -44151.573    61.420116   0.93542381 
   95400    215.54745   -288.43411    133443.81    -41495.05    2681.8201    -44176.87    61.349381   0.93592571 
   95500      220.834   -215.38246    133416.87    -41497.78    2747.5948   -44245.375    61.465282   0.93611468 
   95600     217.8006   -226.01014    133447.33     -41486.4    2709.8535   -44196.254    61.529155     0.935901 
   95700    215.26086   -257.62472    133337.71   -41545.516    2678.2544    -44223.77    61.368832   0.93667046 
   95800      213.213   -159.37231    133438.26   -41579.523     2652.775   -44232.298    61.397174   0.93596462 
   95900    213.12569   -244.65347    133436.25   -41529.865    2651.6887   -44181.554    61.552096   0.93597876 
   96000    217.84246   -194.99363    133264.81   -41600.606    2710.3744   -44310.981    61.154445   0.93718285 
   96100    212.36051    -192.2962     133446.9   -41544.602    2642.1685   -44186.771    61.514549   0.93590404 
   96200    213.62004   -153.51135     133459.2   -41589.783    2657.8394   -44247.622    61.694483   0.93581775 
   96300    215.97952   -96.703327    133377.49   -41541.375    2687.1959   -44228.571    61.681274   0.93639111 
   96400    214.51774   -141.73303     133465.6   -41526.753    2669.0085   -44195.762    61.565327   0.93577288 
   96500    213.45227   -196.63049    133479.04   -41564.767     2655.752   -44220.519    61.678568   0.93567866 
   96600    215.43233   -122.34276    133548.12   -41559.431    2680.3878   -44239.819    61.652156   0.93519466 
   96700     213.2886   -362.12249    133455.53   -41638.795    2653.7157   -44292.511    61.708352   0.93584348 
   96800    206.28926   -229.49063    133384.01   -41677.243    2566.6306   -44243.873    61.780261   0.93634531 
   96900     212.0734   -311.87683    133353.54   -41610.276    2638.5962   -44248.872    61.651616   0.93655927 
   97000    213.12521   -235.75297    133255.18   -41608.143    2651.6827   -44259.826    61.702536   0.93725053 
   97100     211.3985   -148.08988    133276.73   -41590.882    2630.1992   -44221.081    61.852311   0.93709897 
   97200     209.0716   -124.06884     133296.1   -41598.057    2601.2482   -44199.305    61.696638   0.93696283 
   97300    209.71273   -316.71665    133250.72    -41591.36    2609.2251   -44200.585    61.743224   0.93728195 
   97400    212.10758   -245.46156    133311.87   -41594.075    2639.0216   -44233.096    61.989136     0.936852 
   97500    217.64378   -158.05975    133335.39   -41494.241    2707.9024   -44202.143    61.973098   0.93668673 
   97600    211.70061   -246.44214    133294.63   -41544.226     2633.958   -44178.184     61.85816   0.93697317 
   97700    216.56414   -262.24449    133363.74    -41482.66    2694.4697   -44177.129    61.678727   0.93648762 
   97800    218.18421   -213.06791    133451.75   -41462.146    2714.6264   -44176.772    62.039647   0.93587001 
   97900    217.36806   -124.62942    133624.89   -41437.832    2704.4719   -44142.304    62.278269   0.93465738 
   98000    221.70196   -128.67363    133588.85   -41479.638    2758.3938   -44238.032    62.339728   0.93490956 
   98100    212.21006   -200.90475    133544.23   -41560.343    2640.2966   -44200.639    62.186443   0.93522195 
   98200    214.86754   -161.78983    133543.47   -41531.999    2673.3607   -44205.359    61.998093   0.93522724 
   98300    214.45524   -263.19858    133626.94   -41550.463    2668.2308   -44218.694    61.934624   0.93464302 
   98400    213.63135   -205.89964    133488.04   -41567.513    2657.9801   -44225.493    62.024268   0.93561561 
   98500    214.72372   -338.52754    133382.27   -41557.916    2671.5713   -44229.487    62.300079   0.93635754 
   98600    215.63742   -138.73823    133575.06   -41577.793    2682.9395   -44260.732    62.764727   0.93500608 
   98700    205.28698   -251.18365    133549.31   -41611.932    2554.1603   -44166.092    62.620165   0.93518632 
   98800    214.76674   -191.29459    133574.67   -41591.522    2672.1065   -44263.628    62.377281   0.93500879 
   98900    211.26967   -287.84586    133535.97   -41595.255    2628.5964   -44223.851    62.176816    0.9352798 
   99000    211.52739   -206.37578    133439.22   -41631.371    2631.8029   -44263.174    61.929736   0.93595792 
   99100    215.06144   -294.22873    133383.76   -41558.897    2675.7732    -44234.67    62.187452   0.93634708 
   99200     216.3007   -146.53389     133526.8   -41552.228     2691.192    -44243.42    62.366399   0.93534403 
   99300    216.49126    -139.2361    133576.26   -41509.623    2693.5629   -44203.186     62.57449   0.93499769 
   99400     213.2243    -122.1576    133478.45   -41485.487    2652.9157   -44138.403    62.741795   0.93568284 
   99500    220.46526   -125.66301    133528.94   -41366.195    2743.0069   -44109.202    62.673017     0.935329 
   99600    220.65701   -172.70416     133625.3   -41395.185    2745.3927   -44140.578    62.752208   0.93465456 
   99700    218.22555   -210.37285    133652.25   -41399.689    2715.1407    -44114.83    62.603704   0.93446604 
   99800       216.09   -246.30468    133796.09   -41424.786    2688.5704   -44113.356     62.60329   0.93346146 
   99900    218.11654   -188.69004    133717.97   -41475.699    2713.7845   -44189.483    62.758914   0.93400682 
  100000    215.60275   -82.374759    133648.07   -41495.794    2682.5081   -44178.302    62.594015    0.9344953 
  100100    221.00693   -202.30933    133778.93   -41421.932    2749.7463   -44171.678    63.033625   0.93358115 
  100200    216.33207   -320.84311    133745.61   -41438.986    2691.5823   -44130.569    63.062516   0.93381374 
  100300    217.19044   -112.11433    133853.69   -41420.621     2702.262   -44122.883    63.095171   0.93305977 
  100400    214.24225   -229.91931    133807.46   -41466.927     2665.581   -44132.508    63.015288   0.93338212 
  100500    222.88238   -46.509341    133977.73   -41401.324    2773.0806   -44174.405    63.093574    0.9321959 
  100600     217.2521   -93.034052    134064.88   -41496.009    2703.0291   -44199.038    62.865935   0.93158991 
  100630    213.74845   -138.37635    134142.23   -41481.309     2659.437   -44140.746    62.776212   0.93105278 
Loop time of 76.6033 on 6 procs for 100000 steps with 4175 atoms

Performance: 563.944 ns/day, 0.043 hours/ns, 1305.426 timesteps/s
98.5% CPU use with 6 MPI tasks x no OpenMP threads

MPI task timing breakdown:
Section |  min time  |  avg time  |  max time  |%varavg| %total
---------------------------------------------------------------
Pair    | 60.51      | 62.036     | 63.72      |  12.2 | 80.98
Neigh   | 4.9331     | 4.9473     | 4.9665     |   0.5 |  6.46
Comm    | 5.4175     | 7.0601     | 8.5789     |  35.7 |  9.22
Output  | 0.16795    | 0.16879    | 0.17223    |   0.4 |  0.22
Modify  | 1.7301     | 1.7742     | 1.8058     |   2.0 |  2.32
Other   |            | 0.6173     |            |       |  0.81

Nlocal:        695.833 ave         706 max         692 min
Histogram: 3 0 2 0 0 0 0 0 0 1
Nghost:        1454.83 ave        1467 max        1430 min
Histogram: 1 0 0 0 0 0 2 1 0 2
Neighs:        0.00000 ave           0 max           0 min
Histogram: 6 0 0 0 0 0 0 0 0 0
FullNghs:      18936.3 ave       19223 max       18801 min
Histogram: 2 1 1 0 0 1 0 0 0 1

Total # of neighbors = 113618
Ave neighs/atom = 27.213892
Neighbor list builds = 5334
Dangerous builds = 0

undump              1
unfix               2
unfix               3
unfix               4


################################################
#######         Run Simulation         #########
################################################

reset_timestep      0
log                 log.run_${NAME}
log                 log.run_liquid_density_MLmW
