LAMMPS data file via write_data, version 29 Oct 2020, timestep = 800000

4175 atoms
1 atom types

-0.4672411965191259 50.467241196509974 xlo xhi
-0.4672411965191259 50.467241196509974 ylo yhi
-0.4672411965191259 50.467241196509974 zlo zhi

Masses

1 18.015

Atoms # atomic

3949 1 37.0370688428519 14.952305174041308 0.3540856488049037 0 1 1
1701 1 4.664624940343181 0.48857125950136115 0.7421652501518392 1 0 1
720 1 10.08249914852074 0.2495112310053761 2.1455687100605116 0 0 0
1865 1 0.5184960046147458 8.67028968956965 0.4095971924052675 1 0 1
2237 1 12.657527875486062 -0.08206985393200883 1.8335974632908778 0 1 0
4154 1 31.060741042211962 23.470679932367382 0.05262948316742233 0 0 1
987 1 17.90954232059213 0.49178618191559387 0.5066523691192627 0 0 0
3945 1 30.901760143341694 5.1921840093385105 0.21082883855885048 0 1 1
3203 1 16.99759009380671 21.167934897556236 -0.2214211862073397 0 0 1
2912 1 24.212072871033417 0.9983996969942008 0.6969745060273496 0 1 1
2001 1 49.21478157902488 23.15708268512817 0.5108458033057728 0 -1 1
262 1 44.34309693379508 11.616079914215058 -0.4305884915895246 0 0 0
1369 1 36.782460799200365 1.843950661986824 1.602890245623204 1 -1 1
3469 1 34.77593326547516 1.5053964817148338 -0.3498545349927627 0 0 0
3444 1 46.1720204941885 4.194458669682173 3.4175215401803842 0 1 1
3510 1 19.734262358608632 20.12171920430922 -0.15787795905462465 0 0 1
1168 1 0.8895363815476363 2.3232342902671705 1.4763639740845553 1 0 0
613 1 5.18222631853229 2.6656874864668443 2.5255839334475874 0 1 1
1754 1 6.1927510188838175 5.114752056464016 1.7486465366724335 0 0 1
769 1 46.917632052467006 6.940567265615216 -0.34174743060208584 -1 1 0
3012 1 16.279843206823628 4.129799686348333 3.1497311532007974 0 1 0
549 1 15.893886306717611 4.562346470892725 -0.04608464228031772 0 0 0
3672 1 18.38047367431043 3.306029979800246 0.3953641802295196 0 1 1
3596 1 5.299108185158431 10.782370043340116 0.28899734117283504 0 1 1
437 1 26.46519340062885 4.060728723948923 -0.21594131669347794 0 0 0
2448 1 32.74847675919439 3.8924179259541747 3.0644789102715277 0 1 0
45 1 32.25874868206849 2.4922901531566293 0.3790108404944298 0 0 0
2107 1 43.36492771356246 2.000696876973658 0.5644620097903019 -1 1 0
1614 1 39.01779411589418 3.462886237375855 0.5547365919911316 0 0 1
3920 1 40.9852412489393 4.313398066276019 2.2449430116337488 0 1 1
877 1 44.75803037864674 4.109364525819527 0.9798494420215595 -1 0 0
180 1 11.6944535230182 -0.15116164785120134 16.113340534558372 0 0 0
733 1 50.42678240619238 4.991357124098437 2.097868187959546 0 0 0
2367 1 2.9158589558886447 7.997472905276908 1.5981063396236221 0 1 0
1231 1 4.699357060803918 6.725920693433981 0.20386574957774795 0 1 1
1024 1 12.678407756568289 4.896966510085111 0.10523045052212532 0 0 0
4091 1 50.25056158639789 24.856044895303395 13.069913814764705 -1 0 1
1126 1 22.676877670256726 5.5310411063157385 1.780258975208866 0 0 1
817 1 23.286451441809117 7.932378785099429 0.9166692686557456 0 0 1
2524 1 4.158754299017541 24.947259036028044 3.6085964577549676 0 1 0
939 1 28.37240638193981 6.005731966682047 1.6570332135271997 0 0 0
4152 1 33.041687811365705 7.056845507651203 0.7093072737103008 0 0 1
408 1 32.05955078939057 9.028973599276911 2.44245247465084 0 0 0
1996 1 35.571097829551505 6.295893284801806 1.5582555275965495 -1 0 1
2079 1 42.4594964866551 5.929959900508663 0.20950782687549085 0 0 1
3644 1 10.250126007562862 17.605999846600103 1.0041488810238717 0 1 1
718 1 44.7145650888307 7.659187377335622 1.1089365395711277 0 0 1
1109 1 0.8834225686176391 -0.14710270922411178 2.726588431604703 0 0 0
370 1 48.07395948941919 9.169034745208341 3.125961595922391 -1 0 0
1487 1 -0.10065109895305774 11.371545894489564 0.7036699018963384 1 0 1
2598 1 4.432607107835996 24.960222312535716 13.56987491094632 0 0 0
3972 1 5.900314776207071 11.031790608537351 2.9272867457315472 1 0 0
3869 1 42.38801011789043 22.313600881733656 15.82463570536131 -1 0 1
648 1 8.83286838561171 9.606870333124176 0.6892035892322665 0 1 0
411 1 11.685349560611703 9.74509360287522 0.2968814361405302 1 0 0
1420 1 40.24992818986163 18.21516503916278 -0.4180193588243819 0 0 0
2438 1 19.387002869957126 8.111157210872634 0.82148566195607 0 0 0
3937 1 21.197384259407848 9.635772043329775 2.3589903250305158 0 0 1
1791 1 0.6725206128315695 -0.4117768441165595 12.69262836835373 0 0 0
656 1 24.807832227279658 12.288068841167277 2.7290828197462265 0 1 0
131 1 26.950540298218638 8.441407829119802 0.6351915672456481 0 0 0
3395 1 29.421382481217154 9.592602533947748 1.1480611597594803 0 1 0
3585 1 34.06651190329376 11.804525101977177 0.516843614607663 0 1 1
1313 1 3.111916843202918 21.52104858619263 0.35446417549508946 0 0 0
3348 1 38.319367564449976 10.70442879267925 1.3454814774227162 0 1 0
1417 1 42.42824038929871 9.799019211877065 1.7966263821466968 0 0 1
1034 1 45.359404621609386 10.539324156048915 2.1287258130857913 -1 0 1
2730 1 48.1474501085709 11.493311165142426 0.9360433406255952 -1 1 0
2223 1 48.70656082735814 15.300582833618257 3.0793360022696437 0 1 0
4047 1 1.980310927827937 13.49463225470506 0.8642027740070157 0 0 1
1813 1 41.27076672932684 -0.12952500280585266 5.08371765932061 1 0 0
3643 1 7.798310990490432 14.537297440333566 1.0537291228113241 0 0 1
3857 1 12.358683730110922 14.13509392381721 2.543446617531898 0 0 1
4106 1 42.12043357855346 23.0761572546461 -0.15229639702309583 0 0 1
2210 1 15.929062857832559 13.315601082116865 2.7450490230029287 0 1 0
322 1 15.207852119787594 13.746571333296604 -0.2124132798948376 1 0 0
2660 1 20.39654273338637 12.140173321852862 1.3925768218474819 0 0 0
3989 1 46.46528579785995 24.71549935357342 0.7976388596388289 0 0 1
1713 1 23.05418549826021 13.174024680150584 0.36560715979106617 0 0 1
4004 1 27.123144053552192 13.393167810925966 2.014693905760336 0 1 1
140 1 36.54467782083684 12.686239744168105 1.7541006423499246 0 0 0
107 1 33.837113683683334 22.836022637362948 15.685766118483283 0 0 -1
2269 1 43.25658776771535 15.591003258748966 3.467742200104757 -1 0 0
3286 1 46.833417484022426 13.625714452049625 2.0856850078106195 -1 0 0
1871 1 1.781363241981985 16.868202243084387 2.3326034933219026 1 0 1
3244 1 2.88428056394229 16.04847856312437 5.466547773065906 0 1 0
3725 1 5.374173256857125 16.979848463357797 1.8262327136189223 0 0 1
3906 1 4.922724017756973 13.945379585785906 2.454800053299915 0 0 1
808 1 10.588058469105235 14.937667219563226 0.4836140283668502 1 0 0
3507 1 13.63755167344976 16.448513092427273 2.545634014497623 0 0 1
684 1 11.740266740176208 18.653317747377262 3.2879636863292236 0 0 0
162 1 49.3167727100385 -0.4066857761471251 1.4797987273806192 0 0 0
2974 1 19.11909488412948 16.386487949132132 1.5844395606677932 0 0 1
843 1 33.24697687989978 14.237769042220727 -0.1293985615662797 -1 0 0
767 1 23.19431671081843 15.710910952805893 1.2041194134881583 0 0 1
4048 1 25.590625809226072 17.237320362058405 1.2388410275336192 0 1 1
2656 1 30.284585929152396 16.742094017112326 2.654151722523286 0 0 0
2252 1 44.390247977019726 -0.2822762046796261 3.038680230915476 -1 1 0
347 1 34.86488500310922 16.333155742493286 1.2976314001231972 0 -1 0
1317 1 38.486618302580474 16.932292758608035 3.2843005764204767 0 0 0
3068 1 39.328939942164645 16.144042784197367 0.8274815437114078 0 1 1
2489 1 41.45164249337305 18.40083559099425 5.391017406748421 0 0 1
1290 1 45.56792934047893 19.2807176643263 2.7484794700117963 -1 -1 0
3645 1 13.60909072299835 15.755109065225202 -0.36503692903459084 0 1 1
3723 1 44.25917341060152 18.06779336350177 0.7460456086325262 0 1 1
1769 1 17.71867916261307 0.31301597930146574 8.788412269321778 0 0 0
3265 1 50.01564597092715 17.43209834151631 1.9771175457597288 -1 0 1
3055 1 30.341389797154935 -0.2643282396135013 11.993476276897125 -1 0 0
2141 1 3.3305871133063913 20.09120962811157 4.30012799143897 1 0 1
3712 1 5.598250786660647 19.912574888477515 -0.02925891053723767 1 0 1
1795 1 16.24903813373991 0.34594334026201434 10.876851198526802 0 1 0
2437 1 12.945395273590778 20.60082919715687 1.920791188375083 0 1 0
2947 1 15.189213637089278 18.929805989578217 1.137477386825285 0 0 0
2439 1 9.939356047762383 3.92140560832115 16.421764186821036 0 1 0
1086 1 38.23703208677426 20.281287242608624 -0.21095181691551235 0 0 1
1241 1 21.36220506133973 20.16075958447874 1.9744728635690327 -1 0 1
32 1 25.53253053367623 19.893242325687915 0.3143578978642505 0 0 0
2014 1 32.667532007230044 20.515939493681625 2.104153265449637 -1 -1 1
3865 1 34.63986366647258 22.71048077785463 2.5315087544550807 0 0 1
1001 1 34.47172353867819 19.029680739336833 0.5545887643095151 0 0 0
1873 1 39.71542825076102 22.46542143138416 1.0185998015502562 0 0 0
2883 1 29.510286951117426 23.607713129502773 13.484493219291858 0 0 0
4017 1 50.010184652579994 21.01669752638086 2.2179609375318 -1 0 1
480 1 37.474157390735165 -0.290338679368393 10.599310278107543 1 1 0
257 1 17.16887248578698 22.62272339661934 2.283158056590958 0 0 0
1186 1 23.759435119382715 23.8756696954683 1.5443504015180722 1 0 0
3298 1 8.0517424753429 5.784104476545603 16.037160277541574 0 1 -1
2162 1 28.38814625128839 22.826207576961426 0.9640680406569131 0 0 0
2286 1 19.998808570504412 0.08818265171401507 13.048310187462867 0 1 0
484 1 32.512733376411525 24.500430685974813 2.232453122668029 -1 -1 0
1118 1 36.59114057948203 20.617464772547212 1.830564455090966 0 -1 0
1352 1 13.222970737171083 21.370489600825394 14.798273630607373 0 0 0
630 1 8.924920431578839 24.860787797129706 15.744957372212742 0 0 0
638 1 44.793816359819346 22.409963350329694 0.9455550394892738 -1 0 0
1457 1 4.363676346331893 22.44848677207874 14.838530329837992 1 0 0
407 1 3.9439706385232842 24.965620882977635 10.713953698550045 0 0 0
3488 1 1.1705808027538542 2.2892632334181235 5.931892151683383 1 0 1
3993 1 3.2923601623547167 17.4955758250997 -0.1294171365013551 0 0 1
3658 1 6.665616350545124 1.7219866346353592 4.7305188017794215 0 1 1
3599 1 20.558694066869247 -0.321386973568481 8.82398510689446 0 1 1
360 1 10.383519450136712 0.959523450591161 6.422126274065405 1 0 0
4 1 13.943986959104546 0.7768000245418942 3.935182141757746 0 0 0
3235 1 18.706424269101085 0.3820427749133162 3.198201099536252 0 1 1
3241 1 23.543180018472643 0.5806781916209587 5.22037447934009 0 1 0
2283 1 25.347441437742685 1.2985909034230836 3.047288581380357 0 1 0
2924 1 31.17837830916056 0.2511168642338123 6.131422951688563 0 1 0
2909 1 31.167574676560395 2.8021820936074566 5.23080783585886 0 1 0
4138 1 42.284566799162114 2.026915186210067 3.3073474158101095 0 1 1
3346 1 47.053094376818876 22.836674456425442 16.04378814730322 0 0 1
1674 1 48.55842342078237 2.804675864385053 2.856304374785799 0 0 1
901 1 1.6531328103742133 6.04682512856754 3.495808401667392 1 0 0
2463 1 2.5622145857287446 3.207323753510765 3.946616978770466 0 1 0
2385 1 9.172183523599966 2.192820438093411 4.278047503646752 0 0 0
932 1 9.650637790496681 4.947716436203743 4.0965592894916805 0 0 1
2471 1 13.659474245536089 3.538207984796988 4.074961670257964 0 1 0
3678 1 13.00446468143056 4.051414575405434 6.693627901032066 0 1 0
3125 1 18.070233264644997 2.6896316992107083 4.821973369701011 0 1 0
2445 1 20.13496335146729 4.601769319894238 2.6198382348788987 0 1 0
657 1 20.25315176578946 4.1115573015977915 5.296891316985261 0 0 1
1248 1 24.182176010180804 5.1723906223741505 3.8522664863086904 -1 0 0
2285 1 26.376459068787717 3.823078753811358 2.7479220428881033 0 1 0
3569 1 28.71795278303956 3.853096184922288 4.53833837756312 0 1 1
2791 1 35.544897320834636 4.030627330464668 3.043230645672957 -1 1 0
1939 1 36.84116211202053 4.190588802670882 5.222191222697598 0 0 1
4082 1 39.41491751883657 5.181893432453257 4.433515083701302 0 0 0
84 1 43.652442756694455 5.214052117513797 7.12438167460072 -1 0 0
236 1 45.931205513732415 7.029726799434739 3.6138774594559067 -1 1 0
534 1 44.063337987733085 3.384213337059356 4.820582349809823 0 0 0
4149 1 49.79237788445192 3.6754154061312514 5.636499561811219 0 1 1
201 1 50.30453922476535 6.367394977426181 5.3265595227209115 -1 0 0
2672 1 3.809854678086424 9.52125862904942 3.900191752309204 1 0 0
4169 1 1.8142091182862177 11.061825128063198 5.753880695809683 1 1 1
3519 1 5.027248315976269 7.74935723455196 5.477094151131514 0 1 1
328 1 7.120833395659812 6.4673726629389785 3.8759953939491867 0 0 0
1012 1 12.098781703254353 5.366097241728141 2.668477660492425 1 0 0
1187 1 15.357060087263154 8.27885540141661 1.8767937848999754 0 1 0
2722 1 13.359662675207293 7.648150270174073 3.4605261800329656 0 1 0
992 1 17.709817560101556 6.790625094186456 2.7719681727739047 0 0 0
1337 1 24.568929207546038 7.4141320221135505 5.02755781984352 0 0 0
1208 1 29.521901480608246 6.440442948651852 4.070633343101833 -1 0 1
142 1 28.773391668289477 8.443678338273934 5.825751165425397 0 0 0
3430 1 32.269986844172166 6.481530075698707 3.7320644707111903 0 0 0
471 1 33.66069475394657 7.531528938786981 5.793346635568777 1 0 0
179 1 37.03641204131076 8.540922944779057 2.5878475928281857 0 0 0
3950 1 39.05272432750868 7.8703958643568335 4.161014058938604 -1 0 1
1830 1 41.884882123343374 7.209925398915115 3.213241321055122 -1 0 0
3416 1 43.734242924264706 7.025412380163437 5.118071118051177 0 1 0
1678 1 0.02135302270448519 13.233415371524659 3.364181457029481 0 -1 0
1612 1 7.9604562133483 9.199851921085633 3.230378685859681 1 0 1
300 1 9.353325017915209 10.147977507414794 5.223544329969766 1 0 0
801 1 11.7408868635734 9.859621735794226 3.3863201954754953 0 0 1
1834 1 16.527832824679752 10.62035354659009 3.147485142213835 0 0 1
2243 1 18.748420709529988 11.11404342042849 4.873062948605893 0 0 0
663 1 20.316498140666347 8.88105027611404 4.86384141642472 1 0 0
1557 1 25.00866072547954 9.316228594366605 2.7546837984354515 0 0 1
1817 1 27.143779953087783 10.39910806712892 4.64939279757959 0 0 1
2073 1 28.859213970600774 11.54751017897546 3.1380880986291264 -1 0 1
1697 1 30.152559207598806 12.269841701361544 5.394661824051798 0 0 0
1123 1 33.86867750823124 10.82694371782464 3.3557206331770875 0 0 0
2009 1 35.36344291661665 9.589353563776823 4.920686734878755 0 0 1
279 1 39.610283389669675 12.329705081339869 4.917572246876669 0 0 0
2505 1 43.04639329631565 11.229023756933534 4.5214116048690505 0 0 0
1104 1 43.77041196388686 9.412285206812408 6.734680204554158 -1 0 0
1476 1 46.97374990747606 11.947138295532293 6.470363748250606 -1 0 0
2284 1 50.267009953551195 10.45933357051666 4.486309183284761 0 0 0
1564 1 2.809577100351215 13.66701862635595 4.0644864573237385 1 0 1
100 1 5.013189131642982 11.996819835674426 6.239262772415202 0 0 0
3168 1 5.307435749050498 11.17348908860591 8.943415546016455 0 1 0
1694 1 10.277978844200703 13.77396866084284 7.425234377618164 1 0 1
2178 1 7.859294186180557 12.393399690832378 5.690048754242582 1 1 0
3303 1 7.900815278249125 14.750517522197915 4.094433321884312 0 0 1
3546 1 13.425769688519726 11.817928311059974 3.937265355101288 0 0 1
1867 1 12.583091457178783 12.732134842768094 6.398036023928355 0 0 1
2617 1 18.802778661299502 13.942532654721706 3.1287624320860568 0 0 0
3635 1 19.57560563422892 14.289020513893757 5.9623161127950945 0 0 1
3562 1 24.150183075664895 12.93149069121599 5.250847799026959 0 0 1
602 1 26.30238387118794 11.974007373757416 6.536569857079338 -1 0 0
181 1 28.038181360523193 15.48047764478414 3.804445827978933 0 0 0
1204 1 28.329688514602104 14.06034388914411 6.376828816909673 0 0 1
2227 1 32.77413710856707 13.088534844216303 4.833198624190528 -1 0 0
1681 1 40.75342418977734 12.06384425599099 2.3032309321027005 -1 0 1
3299 1 36.72252342981144 13.29139518377774 4.460930745084086 0 1 0
2515 1 41.92571008494726 13.82433877168597 5.272417080885373 -1 0 0
3460 1 45.15311887185018 13.132137502537084 4.173828500102194 0 1 0
3378 1 45.70791143917034 15.10358872771853 6.238175585965651 0 0 0
3179 1 0.7568300793534775 16.605928181270546 7.338890340675304 1 0 1
3834 1 6.79851233706032 16.510689887390654 6.163289872876365 1 0 1
870 1 8.23875600843075 17.869760447745033 3.3656966319135733 0 0 1
3810 1 16.037301909509416 15.65953512706831 4.109189415484109 0 1 1
1554 1 17.04415062765022 17.611035592661338 2.6501625857776845 0 0 0
931 1 24.201011442363495 15.508599734320178 6.292032027640547 0 0 0
1410 1 21.551897457198724 17.36100241879535 2.942593260549764 0 0 1
3746 1 25.86654456815787 16.811266469368213 4.194770103525495 0 0 1
3144 1 32.68935225831268 15.153049910806446 2.7889206756802865 0 0 1
1135 1 34.31426125685169 16.791315585999776 6.476725833813045 0 0 1
2654 1 35.87797934601451 15.840533773397379 3.9187484992264228 0 0 1
3216 1 40.198715523544756 16.153536446430117 5.525394639920017 0 0 1
3315 1 44.67013137012768 17.567864393143605 4.817102571701308 -1 0 1
4008 1 48.186612020212614 18.953284198465127 3.2018695348136017 -1 0 1
1928 1 47.62255531396668 17.253514215893155 5.300410208345746 0 0 1
2008 1 1.1610961764115875 19.074059473688795 6.080451662494017 0 0 1
2461 1 4.607245529819329 22.205768724944658 2.670618675533857 1 0 0
2094 1 4.989362072351305 17.653636391989295 4.619723381074574 1 0 1
874 1 7.061204768270848 20.52372560028549 2.4800117560832513 1 0 0
1474 1 9.446589834164488 19.48855563472711 5.494942751406391 0 0 1
2482 1 19.226903593327634 21.05285861524794 3.4001796494815335 0 0 1
2805 1 24.628522907224976 20.713088900483104 5.200819596074417 0 -1 0
1806 1 23.859007001494508 21.30147519697346 2.4588799736804727 -1 0 1
87 1 28.094641032048376 18.74362043372226 5.294227051063476 0 0 0
2081 1 27.227734638317692 21.367508920951956 5.179718124459171 0 0 1
543 1 30.65461928519215 19.15595668458789 3.998832263915525 -1 -1 0
118 1 29.421652130883487 22.07122024393546 3.4570312240504437 -1 0 0
1460 1 32.918856705646306 19.094461019040182 5.446109480303926 0 0 0
594 1 34.25061164400903 21.573436418258137 5.048312325308772 0 0 0
3503 1 38.04242709328148 19.60400566433835 3.935292246103665 -1 0 1
3471 1 40.396527633863286 20.713257305695016 3.255315089544835 -1 0 0
2479 1 42.11684733959924 22.474924361877402 4.604230502621493 0 0 1
590 1 44.83355697056456 21.962850654947097 3.6553952423915232 -1 0 0
3467 1 49.61499947968027 20.151144522306087 5.549031538071922 0 1 0
2497 1 -0.2526414517438853 22.475421467897405 4.441144150812367 0 1 0
3380 1 0.019054417825038583 22.024111901179616 13.754339572633937 1 0 0
569 1 8.135848488259542 22.505132660404655 4.898756002948819 0 0 0
4064 1 12.006596761533611 24.689436221439752 6.273817170111652 0 0 1
2295 1 14.62901436582913 22.334278426802456 3.6321754011162657 1 0 0
2298 1 8.034221318944846 -0.2071339682188006 7.843840539510339 0 1 0
2012 1 23.10311035996494 23.13891101007986 5.625718228585023 0 0 1
4161 1 26.584357557669172 22.261921745552026 7.790530932748027 0 1 1
3427 1 30.892628369448246 24.281513707378625 4.3189509464192986 1 0 1
1710 1 32.23730868310482 23.149549929042408 6.329457867239016 0 0 1
1400 1 27.654936611636707 12.855288653605431 16.227907597047363 0 1 0
750 1 26.121796424339873 0.20402193318307527 13.911835622377087 1 0 0
2540 1 46.70701369153476 23.731701597516313 5.307253145974241 -1 0 0
1828 1 1.6760076734681801 2.6111584586778065 8.549651799506336 1 1 1
3120 1 3.453939790499707 0.5568168783363603 8.97171531903389 0 0 0
807 1 12.573213491964337 23.6883458297872 16.445820473283888 0 0 0
3389 1 6.293969620297472 1.589699899816254 9.140943714964045 1 0 0
4100 1 17.76558406915402 2.742235306438607 7.434291414176392 0 1 0
3337 1 41.531726604776175 14.540728495942217 1.5091596760275874 0 0 1
595 1 47.34793382594255 0.43679784286735224 3.7444830633839583 -1 0 0
307 1 21.691737387832944 2.5124375014969966 9.533520661069101 1 0 0
2199 1 25.17256750306688 1.5693896951148192 8.783477751946485 0 1 0
2011 1 27.91026175036085 2.2108686268292885 8.645683498712913 0 0 0
3753 1 23.19787959566349 3.537506899175984 -0.18224072006084768 -1 1 1
674 1 33.50144721957325 0.9661050172195196 9.513969356422766 0 0 0
943 1 36.84595174790342 1.5166652033114423 6.413605309532023 0 0 1
1374 1 35.75529963851534 2.326290154169249 8.778226578247313 0 0 0
466 1 39.35835504641135 0.2744538702052277 7.077014428299359 -1 0 0
2542 1 40.19802480194719 2.2825281205376107 8.2578945654033 0 1 0
2362 1 42.11054248844039 0.8315427382209659 9.07076371937737 0 1 0
2343 1 45.06543301728722 0.968941311269216 5.958676510297535 -1 1 0
212 1 46.55906153872482 1.8205753525248087 8.184186483573443 -1 0 0
578 1 1.5828476615331968 19.875152737301317 2.045868748789669 0 0 1
2830 1 2.7154819723031682 5.033417481883439 8.107665756087993 0 0 0
3329 1 4.228959839660545 5.038369587285928 5.825947552141274 1 1 0
3822 1 6.3897466941998 3.364929654026812 6.752013019177137 0 0 0
436 1 8.752334722464767 4.877699363093758 6.551655391412335 1 0 0
2241 1 10.919279766428172 3.1553590656163375 8.063142590099323 0 1 0
24 1 15.50359708522101 4.009019153347394 7.786355306324653 0 0 0
2589 1 22.865875382894036 3.4367086966875315 5.358390727831465 0 0 0
3870 1 23.463850803026116 4.234483649731033 7.795038296714765 0 1 1
3978 1 26.07069207717185 5.782206536476425 8.297863017219028 0 0 0
3706 1 28.496586802704886 4.50168178673166 6.973522551253633 0 1 1
286 1 31.659191601388372 4.3557812965725855 7.793870143403064 0 1 1
879 1 34.36157844721753 4.774869326572922 8.438997233462775 0 1 0
1201 1 35.608730934771344 6.029525118602924 6.583384458242978 0 0 1
1146 1 40.83638851499843 4.8543873469333185 6.905804570204227 0 0 0
205 1 47.63927318506067 7.437161674965663 5.778126933111948 -1 0 0
169 1 47.7468922594166 4.208050983597975 7.485916647776413 -1 0 0
3589 1 49.19526720854031 4.546777709359471 9.859384930432716 0 0 0
876 1 0.9548744337502444 7.020050596020664 7.336407900455768 0 0 0
791 1 5.457260678177441 8.217056937017535 8.192999451852058 0 0 0
1071 1 9.610317923796735 6.719358584107801 8.32162954489386 0 0 0
3970 1 12.15776330935212 6.943529570427694 7.765623271684952 1 1 1
2777 1 14.267811340579224 7.9656024523321864 6.202404292616183 0 1 1
2946 1 18.798314751806583 6.629659544639751 5.429121357142411 0 1 1
1611 1 16.479151001500167 6.593007325908191 7.455064776779918 0 0 0
689 1 22.180008883002273 6.943107533172013 8.190608396363448 0 0 0
3694 1 22.58469919289833 9.010582121441125 6.451771018139438 0 1 1
340 1 23.59510175858191 8.780929192094339 9.83063644665528 -1 0 0
1244 1 26.360098484659336 8.111501599071506 7.040336189739223 0 0 0
89 1 30.388055099392496 6.54008714963285 7.93475328057764 0 0 0
1874 1 32.076086630443186 8.593761299169865 7.734132128622184 0 0 1
2953 1 33.47451878535958 9.361834615743836 10.053092394107532 0 0 1
12 1 39.29429222892209 9.803731312827459 5.926846122459429 -1 0 0
2854 1 37.295973081466975 6.6295489746847105 8.674045283899588 0 1 1
2750 1 40.00043178103434 6.946922768092781 8.546772806487143 0 1 0
2841 1 41.27594023880868 9.27437907352606 7.83885309756181 0 0 0
2646 1 48.64221867741511 9.897573494351404 6.770033472912272 0 1 0
795 1 46.275620161537404 6.539491995280166 8.263722309257625 -1 0 0
589 1 49.63866292582157 15.07788691644935 5.812386118637497 0 0 0
3317 1 2.5796669077124696 9.223094615096683 8.012763254493894 0 1 0
3756 1 8.267130956816631 9.110133431048041 7.4475876519363275 0 1 1
1827 1 3.0936561554377646 12.619655354170146 9.591483792469772 0 0 1
1468 1 11.986262368567687 10.098537048168712 7.28337956880915 0 0 1
1251 1 15.26756855584636 10.647489740759497 6.369373391695541 1 0 1
1391 1 17.855014391916104 10.952989020122885 7.7146558658881546 0 0 1
3851 1 25.878516078679173 10.219019583685716 8.863910532626265 0 1 0
3073 1 30.26627165511726 10.509076178784277 7.317476384561348 0 1 0
621 1 36.797707353258446 10.680967684623642 6.9464399817555424 0 0 0
1796 1 36.26945000858109 9.146300655117132 9.603865186806495 0 0 1
4131 1 41.396194476264924 11.081128048995739 9.784813947054444 -1 1 0
3948 1 45.542040482313524 10.455267718827749 8.454403632418519 0 1 1
3260 1 43.7529898507471 12.333565838409443 9.721069960378022 0 0 0
3323 1 0.9625845360246537 13.205820503404526 7.304064241831539 0 0 0
2026 1 1.5519349974214611 10.248613975318593 10.238170399226552 0 -1 1
2149 1 4.900112242076793 14.582986597853175 6.811663507946955 1 1 -1
1082 1 7.406536208458405 14.826943142819195 9.148499244928272 0 0 0
4087 1 8.293535647868117 11.966032115508957 9.461738298682992 0 1 0
358 1 10.558199094003248 14.793332554883246 4.616838875758089 1 0 0
1150 1 17.909789082672916 13.354942358082745 9.03678951989759 0 0 0
3572 1 19.660261785902467 15.944626102087064 8.742849305743475 1 0 1
95 1 21.563827646797726 11.83259760796295 6.313347309898122 0 0 0
703 1 22.50256853812483 12.40786380708773 8.97974368652535 0 -1 1
1970 1 25.782881998154725 15.119227646346705 8.549780657953598 1 0 1
726 1 32.04342020963961 12.660303835570975 8.254505943315838 0 0 0
751 1 32.85151004579003 15.511726055691602 8.296401586432717 0 0 0
3705 1 34.67263330163279 12.939651112544095 6.919694452184305 0 1 1
1050 1 35.55862302689046 14.747010064152045 9.205686276180726 0 0 0
1167 1 38.00931273601706 13.364130839808515 7.82353647804123 -1 0 0
2567 1 43.30253849375263 14.449562819053615 7.82453800603937 0 0 0
792 1 48.78520978499515 13.329147376802718 7.709183077017496 0 0 1
3682 1 47.28391253023871 15.340967443156165 8.542793820506759 0 1 1
1947 1 48.99680218722063 17.677919821175934 8.19364387722087 0 0 0
3541 1 2.4643294858204237 17.399184599914307 9.645713981686484 1 0 1
1905 1 7.205877423849297 18.96349848184366 7.100710408902181 -1 0 1
758 1 11.212235449981364 17.242387460370942 6.017742742560717 1 0 0
1712 1 16.89664261116665 15.47346837151035 6.733879938190251 0 0 1
1075 1 19.792196938655366 18.107776643306963 6.6130010584144205 0 0 0
1142 1 21.51913085802424 16.260944574419337 5.587714246069473 -1 0 0
2293 1 22.32968703150967 15.236223762726471 8.682898487943671 0 0 0
2233 1 23.116191407206372 16.790949077337324 10.933027004665469 0 1 0
3890 1 29.79810926645478 15.800769080181464 8.164638801601429 0 0 1
448 1 29.125171578035918 18.374088347852 7.89471838036401 0 0 0
1843 1 33.08839994384701 17.927182612530135 10.466052885293292 -1 0 0
1443 1 35.66309470107131 17.345909045328252 9.970261807979004 0 0 0
781 1 36.58270313998436 17.945720948381965 7.425718266605968 0 0 0
1634 1 38.71660976393347 16.01501497571052 7.73389300596973 0 0 1
405 1 40.249328469299776 16.7926057221911 9.882023074573292 0 0 0
2495 1 42.960604707396 16.914980032896356 9.2496918275786 0 1 0
1115 1 43.481235944950846 18.71732512480166 7.224823612621535 0 -1 1
2342 1 1.1579192036940744 19.99626155665974 8.794547911963663 1 0 0
97 1 4.981050638913505 20.59684046400776 6.695560525310229 0 0 0
1919 1 7.781736733353114 18.67589345559933 9.6218462127358 1 -1 0
2625 1 12.148720284625403 20.2426074273427 7.298330998422457 1 0 0
3376 1 14.450678003517226 21.666447975535267 6.421643582264417 0 0 1
975 1 17.886065545176628 19.071563143499844 4.536599659609792 0 0 0
428 1 16.60151143192533 20.03846750831507 7.158134356058633 1 0 0
934 1 21.26791527372017 20.509821673899047 7.774333719225281 0 0 0
3104 1 23.99274157892764 20.984664208627834 8.148414809474431 0 0 1
1215 1 24.763260642398606 18.77098201658916 9.57210976361942 0 0 0
2773 1 27.258490702436323 18.898197285973012 10.171143323246557 0 1 -1
3909 1 31.75593948637244 19.158044427767305 8.10185424913482 0 1 1
1889 1 37.15446166716737 20.463033504321892 6.529094286117623 0 0 1
1217 1 39.47903006050824 20.67602868090658 8.284449089890368 0 0 0
616 1 41.82862647559948 21.145049318608894 7.367539653386448 -1 0 0
903 1 45.53910639771731 20.461167088873832 8.318071066059886 -1 -1 1
1982 1 48.36756061237263 20.310472278339553 7.8502865526928645 -1 0 1
3364 1 49.798287026690495 21.458624034176466 10.102613128649393 0 0 0
2320 1 1.828543221562121 22.49424655873737 6.121904809520561 1 0 0
2885 1 18.19792809655623 17.611128924231366 15.539965987542008 0 1 0
137 1 6.553556468687561 22.787836956157978 7.465515634719902 0 0 0
512 1 25.42911304456154 14.784518796329895 16.406715550855502 0 0 -1
2695 1 9.01991914139359 22.583955590580736 8.850232347796489 0 0 0
3297 1 10.397607519798669 22.470520398386515 6.346159671245552 0 0 0
2167 1 14.189562266102097 23.860581795282123 7.652499809237558 0 0 0
68 1 18.7601962295222 24.96895653669908 2.582159156745202 1 -1 0
2958 1 20.5353149197232 22.537014792994686 5.891862523724073 0 1 1
3224 1 18.26105190695468 22.184957694964417 7.897995101111638 1 0 0
1162 1 25.102458946296334 24.376355967510094 7.375658413066324 0 0 0
3879 1 29.107436120151963 22.740766241968835 8.99760097558226 0 1 1
520 1 31.549225477984834 21.77581967752692 8.659867057702693 -1 0 -1
1848 1 36.47620595301106 23.392427860475077 6.4050511256814 -1 0 1
2477 1 38.65862063778215 23.20765677484783 8.07339825752794 0 1 0
3505 1 30.006950896612665 17.616622346737767 15.7371138979255 0 0 0
458 1 40.74568797394219 15.163615981089164 16.070636043063633 -1 0 0
2573 1 43.10026679815469 23.335893776264406 8.736782761086413 0 0 0
1960 1 45.81755248842407 23.34408636601699 8.023545282709645 -1 0 1
1247 1 34.25916826264418 24.326170312784 13.434833848357336 0 -1 0
705 1 50.35620902101009 2.2407378926418895 10.060699988502751 0 0 0
310 1 50.3349347311418 2.102273916282464 13.103076700313167 0 0 1
695 1 6.5560866299009035 2.440754943725894 11.760734568666606 1 1 0
2797 1 9.117432600929014 1.8665797999620115 12.30724302323078 1 1 0
1469 1 11.483504530110014 2.7132302411820612 10.841575825283822 0 1 1
2 1 13.643155301289243 0.9556735992330145 10.110026262102986 0 0 1
3727 1 17.911514750068378 1.9175788708300234 12.536304132740035 0 1 1
273 1 24.791289712310167 0.4030285329566894 11.44382995825744 1 0 0
44 1 22.28140416873636 1.8113903773866098 12.439729467350887 0 0 0
3961 1 29.40979337711808 2.081528284640745 10.978283213860344 0 1 1
2447 1 36.99637238586739 24.129590399437948 10.151992676168465 -1 1 0
721 1 31.764310232157342 3.0586998804981276 10.365675464849753 0 0 0
2204 1 49.13290401571558 2.669343808259218 -0.0451589736810048 0 1 0
1929 1 38.18900544492957 2.1862088836242486 10.104755035071994 0 0 1
351 1 44.36295783759799 2.392233341010355 9.681879849787387 0 0 0
173 1 6.224374505184817 5.056678639282125 11.649989147046897 0 0 0
1446 1 11.35092413960263 5.239343557173948 11.974655286442612 0 -1 1