
# Create simulation box of size 50 x 50 x 50 Angstrom
#
lattice	            sc 1
Lattice spacing in x,y,z = 1.0000000 1.0000000 1.0000000
region 	            all block 0 50 0 50 0 50 units box
create_box          1 all
Created orthogonal box = (0.0000000 0.0000000 0.0000000) to (50.000000 50.000000 50.000000)
  1 by 2 by 3 MPI processor grid

# fill box with 4175 randomly distributed atoms
#
create_atoms        1 random 4175 63782 all
Created 4175 atoms
  create_atoms CPU = 0.001 seconds
mass                1 18.015

# Define potential
#
pair_style          sw
pair_coeff          * * ML_mW.sw mW
Reading sw potential file ML_mW.sw with DATE: 2019-02-27

# Run minimization
#
minimize            1.0e-8 1.0e-8 10000 1000
WARNING: Using 'neigh_modify every 1 delay 0 check yes' setting during minimization (../min.cpp:187)
Neighbor list info ...
  update every 1 steps, delay 0 steps, check yes
  max neighbors/atom: 2000, page size: 100000
  master list distance cutoff = 6.0032907
  ghost atom cutoff = 6.0032907
  binsize = 3.0016454, bins = 17 17 17
  1 neighbor lists, perpetual/occasional/extra = 1 0 0
  (1) pair sw, perpetual
      attributes: full, newton on
      pair build: full/bin/atomonly
      stencil: full/bin/3d
      bin: standard
Per MPI rank memory allocation (min/avg/max) = 4.255 | 4.258 | 4.261 Mbytes
Step Temp E_pair E_mol TotEng Press 
       0            0    7792709.3            0    7792709.3    5898794.3 
     630            0   -45180.336            0   -45180.336   -154.07449 
Loop time of 1.13777 on 6 procs for 630 steps with 4175 atoms

99.3% CPU use with 6 MPI tasks x no OpenMP threads

Minimization stats:
  Stopping criterion = max force evaluations
  Energy initial, next-to-last, final = 
      7792709.32924461  -45180.0188663597   -45180.336116598
  Force two-norm initial, final = 2.0191930e+08 4.9721331
  Force max component initial, final = 1.0948746e+08 0.73126211
  Final line search alpha, max atom move = 0.053306038 0.038980685
  Iterations, force evaluations = 630 1000

MPI task timing breakdown:
Section |  min time  |  avg time  |  max time  |%varavg| %total
---------------------------------------------------------------
Pair    | 0.88443    | 0.98472    | 1.0558     |   5.7 | 86.55
Neigh   | 0.023865   | 0.024475   | 0.025006   |   0.2 |  2.15
Comm    | 0.037332   | 0.10879    | 0.21002    |  17.3 |  9.56
Output  | 0          | 0          | 0          |   0.0 |  0.00
Modify  | 0          | 0          | 0          |   0.0 |  0.00
Other   |            | 0.01978    |            |       |  1.74

Nlocal:        695.833 ave         704 max         685 min
Histogram: 1 1 0 0 1 0 0 1 0 2
Nghost:        1494.17 ave        1515 max        1468 min
Histogram: 1 1 0 0 0 0 1 1 1 1
Neighs:        0.00000 ave           0 max           0 min
Histogram: 6 0 0 0 0 0 0 0 0 0
FullNghs:      19997.0 ave       20462 max       19320 min
Histogram: 1 1 0 0 0 0 0 2 0 2

Total # of neighbors = 119982
Ave neighs/atom = 28.738204
Neighbor list builds = 26
Dangerous builds = 0

# Add velocity/set timestep
#
velocity            all create ${TEMP} 120598 rot yes dist gaussian
velocity            all create 230 120598 rot yes dist gaussian
timestep            5.0

# Define output
#
compute	            1 all msd
thermo	            100
thermo_style        custom step temp press vol etotal ke pe c_1[4] density

# Neighbor lists
#
neigh_modify        delay 0 every 1 check yes

# Set fixes
#
fix                 1 all momentum 10 linear 1 1 1 rescale
fix                 2 all nve
fix                 3 all temp/csvr ${TEMP} ${TEMP} 500.0 928347
fix                 3 all temp/csvr 230 ${TEMP} 500.0 928347
fix                 3 all temp/csvr 230 230 500.0 928347
fix                 4 all press/berendsen iso ${PRES} ${PRES} 1000.0 modulus 20000
fix                 4 all press/berendsen iso -600 ${PRES} 1000.0 modulus 20000
fix                 4 all press/berendsen iso -600 -600 1000.0 modulus 20000

# Run 0.5 ns equilibration
#
dump                1 all custom 1000 eq.${NAME}.dump id type x y z vx vy vz
dump                1 all custom 1000 eq.liquid_density_MLmW.dump id type x y z vx vy vz
run                 100000
Per MPI rank memory allocation (min/avg/max) = 3.506 | 3.508 | 3.511 Mbytes
Step Temp Press Volume TotEng KinEng PotEng c_1[4] Density 
     630          230    892.42114       125000   -42318.699    2861.6373   -45180.336 2.7295415e-33   0.99914793 
     700    146.31065   -503.30369    126033.82   -41432.313    1820.3826   -43252.696   0.27618636   0.99095216 
     800    180.46092   -704.88503    126326.87   -40621.438    2245.2769   -42866.715    0.6406215   0.98865341 
     900    201.40298   -464.19789    126475.53   -40164.834     2505.836    -42670.67    1.1018338   0.98749134 
    1000    212.62961   -688.08773    126418.95   -39879.984    2645.5166   -42525.501    1.5780962    0.9879333 
    1100    218.04628   -429.47194    126589.77   -39679.977    2712.9103   -42392.888    2.0000734   0.98660022 
    1200    220.29375   -547.27483    126615.77   -39703.927    2740.8731     -42444.8    2.4134908   0.98639756 
    1300    222.34931   -512.47086    126707.47   -39652.576    2766.4482   -42419.024    2.8354261   0.98568371 
    1400    224.13783   -741.94617    126807.34   -39668.803    2788.7007   -42457.503     3.289979   0.98490744 
    1500    225.71087   -617.93303    126919.09   -39609.888    2808.2723    -42418.16    3.5790587   0.98404025 
    1600    233.29386     -544.718    126973.95   -39519.011    2902.6191    -42421.63    3.8964111   0.98361503 
    1700    227.56757   -483.99768    127167.72   -39550.179    2831.3732   -42381.552    4.3317677   0.98211634 
    1800     227.4243    -317.6259    127174.64   -39625.087    2829.5907   -42454.677    4.6713793   0.98206284 
    1900    227.37947   -550.17116    127306.09   -39622.962    2829.0329   -42451.995    5.0700195   0.98104886 
    2000    233.08545   -559.86777    127445.62   -39593.611    2900.0261   -42493.637    5.4178592   0.97997474 
    2100    231.32023   -440.17623    127511.42   -39563.172    2878.0635   -42441.236    5.7944598   0.97946907 
    2200    233.67438   -522.66065    127917.87   -39606.102    2907.3535   -42513.456     6.132652   0.97635691 
    2300    231.00716   -464.67236    127827.06   -39608.148    2874.1682   -42482.316    6.5362724   0.97705052 
    2400    230.02145   -763.78879    127971.68   -39635.772    2861.9042   -42497.676    7.0345376    0.9759463 
    2500    239.10373   -682.71084    128037.02   -39596.579     2974.905   -42571.484    7.3731157   0.97544826 
    2600    239.80776   -420.53752    128142.84   -39558.975    2983.6644   -42542.639    7.7262008   0.97464275 
    2700    240.83396   -598.88173    128500.23   -39590.802    2996.4323   -42587.234    8.1355969   0.97193205 
    2800    239.05539   -574.06055    128481.55   -39589.029    2974.3035   -42563.332    8.4612909   0.97207335 
    2900      230.568   -412.43753    128731.23   -39671.064    2868.7043   -42539.768    8.7507752   0.97018799 
    3000    233.74316   -627.21324    128857.05   -39705.931    2908.2093   -42614.141    9.0186347   0.96924067 
    3100    231.26158   -544.90969    129160.64   -39679.906    2877.3337    -42557.24     9.273274    0.9669625 
    3200    232.60741   -424.73958     129462.7    -39729.22    2894.0783   -42623.299    9.4672545    0.9647064 
    3300    230.93011   -520.68522    129313.87   -39743.069    2873.2097   -42616.279    9.6495076   0.96581668 
    3400    234.74058   -408.00078    129288.97   -39810.266    2920.6191   -42730.885    10.018708   0.96600271 
    3500     232.4025   -590.82686     129379.3    -39869.66     2891.529   -42761.189    10.437439   0.96532821 
    3600    227.88797   -531.87502    129410.61    -39920.36    2835.3596    -42755.72    10.667982   0.96509467 
    3700    228.22113   -738.80157    129421.69   -39984.967    2839.5047   -42824.471    10.925072   0.96501208 
    3800    229.60973   -612.80739     129310.8   -39931.164    2856.7816   -42787.946    11.135305    0.9658396 
    3900    228.07603   -595.25646    129578.92   -39966.312    2837.6995   -42804.011    11.215951    0.9638411 
    4000    228.19763   -501.51208    129701.44   -39963.618    2839.2123   -42802.831    11.196572   0.96293067 
    4100    233.13873   -615.55311    129702.27   -39963.452    2900.6891   -42864.141     11.35046    0.9629245 
    4200    227.25997   -557.58565    129614.21   -39998.058    2827.5461   -42825.604    11.671594   0.96357871 
    4300    233.91291   -550.64962    129750.57   -40008.165    2910.3214   -42918.486    11.931764   0.96256605 
    4400    229.39059   -398.31872    129603.91   -39996.763    2854.0551   -42850.818     12.21584   0.96365527 
    4500    225.59203   -478.26148    130043.97   -39986.602    2806.7938   -42793.396    12.486441    0.9603943 
    4600     225.7664   -758.31457    130221.33   -40021.677    2808.9632    -42830.64    12.819341   0.95908629 
    4700    230.05712   -645.15019    130164.88   -39947.018    2862.3479   -42809.366    12.954215   0.95950222 
    4800    230.73503   -678.68738     130246.6   -40026.288    2870.7824   -42897.071    13.320863   0.95890021 
    4900    230.03973   -476.41841    130269.71   -39902.904    2862.1316   -42765.035    13.538062   0.95873009 
    5000    235.42358   -458.04219    130479.64   -39836.195    2929.1169   -42765.311    13.805662    0.9571876 
    5100    234.41266   -596.94275    130382.46   -39916.146    2916.5392   -42832.685    13.832152   0.95790105 
    5200    230.84282   -639.90465    130332.36   -39974.504    2872.1236   -42846.628    13.983584   0.95826921 
    5300    230.89593   -603.07793    130415.25   -39951.055    2872.7843    -42823.84    14.056767   0.95766021 
    5400    233.25297   -527.98846    130544.22   -39995.262    2902.1104   -42897.373    14.306286   0.95671406 
    5500    225.56125   -663.63113    130589.68    -39998.42    2806.4108   -42804.831    14.636161   0.95638105 
    5600    228.94129   -590.47791    130460.06   -40008.979    2848.4649   -42857.444    14.876765   0.95733124 
    5700    229.36486   -721.91808    130355.21   -40015.938    2853.7349   -42869.672    15.155845   0.95810124 
    5800    233.38678   -508.21552    130476.74   -40060.661    2903.7753   -42964.436    15.348805   0.95720888 
    5900    228.88969   -604.36196    130575.78   -40109.389    2847.8229   -42957.212    15.531357    0.9564828 
    6000    233.78435   -555.43962    130657.43   -40138.708    2908.7218    -43047.43    15.722397   0.95588509 
    6100    230.35225   -686.08988    130767.03   -40078.411      2866.02   -42944.431    15.824202   0.95508393 
    6200    227.41191   -568.19883    130682.24     -40141.9    2829.4365   -42971.337    15.846573   0.95570361 
    6300    224.27797   -673.34294    130591.27   -40108.877    2790.4444   -42899.321    15.966246   0.95636934 
    6400    231.31018   -573.65172    130621.67   -40075.263    2877.9384   -42953.202    16.303577   0.95614678 
    6500    233.11754   -632.46289    130620.58   -40019.409    2900.4254   -42919.834     16.60945   0.95615481 
    6600    230.10206   -542.22024    130878.35   -40077.021    2862.9071   -42939.928    16.805371   0.95427159 
    6700    224.98104   -561.36088    130765.47   -40154.283    2799.1918   -42953.475    17.067883   0.95509537 
    6800    230.10316   -585.63925    130874.76   -40062.927    2862.9208   -42925.848    17.232411   0.95429775 
    6900    232.71446   -741.20215    130896.14   -40008.472    2895.4103   -42903.882    17.427271   0.95414188 
    7000    236.44202   -617.16403    131048.94   -40009.442    2941.7882    -42951.23     17.64593   0.95302942 
    7100    229.77575   -643.19505       130754   -40049.763    2858.8472    -42908.61    17.764692   0.95517913 
    7200    227.53954   -830.56617    130821.24   -40109.942    2831.0245   -42940.967    17.973115   0.95468819 
    7300    231.07839   -580.08549     130718.3   -40186.512    2875.0545   -43061.567    18.073595   0.95544001 
    7400    232.16717   -637.81682    130750.87   -40222.845     2888.601   -43111.446    18.279808   0.95520198 
    7500    230.11613   -615.33605     130781.1   -40176.912    2863.0821   -43039.994    18.480489   0.95498122 
    7600    226.35777   -494.67923    130649.07   -40248.319     2816.321    -43064.64    18.704049   0.95594628 
    7700    231.77861   -618.39023    130969.48   -40118.235    2883.7665   -43002.002    19.013889   0.95360757 
    7800    231.47609   -672.21133    130779.72   -40094.166    2880.0027   -42974.169    19.243592    0.9549913 
    7900    228.38233   -602.55436    130772.77   -40166.536    2841.5104   -43008.047     19.36086   0.95504199 
    8000    231.97527   -495.31441    130770.73   -40140.184    2886.2133   -43026.398    19.654063   0.95505695 
    8100    229.10703   -659.63932    130922.34   -40215.353     2850.527    -43065.88    19.750232   0.95395097 
    8200    227.53764   -539.62829    130870.88   -40235.452    2831.0008   -43066.453    19.829353   0.95432604 
    8300    224.93812    -676.1525    130975.23   -40236.415    2798.6579   -43035.072    19.896754   0.95356573 
    8400    225.95774   -583.53071    131302.87   -40191.001    2811.3438   -43002.345    20.251933   0.95118627 
    8500    234.24901   -596.13773    131393.81   -40136.427     2914.503    -43050.93    20.534316   0.95052799 
    8600    231.06137   -766.87123    131335.44   -40157.656    2874.8427   -43032.499    20.702954   0.95095041 
    8700    229.33993   -665.04475    131317.49   -40144.085    2853.4248    -42997.51    20.941114   0.95108041 
    8800     228.8612   -732.67874    131352.18   -40182.511    2847.4685    -43029.98    21.207159   0.95082926 
    8900    229.44042   -602.01631    131168.44   -40262.501     2854.675   -43117.176    21.214385   0.95216111 
    9000    227.67489   -620.84218    130955.47   -40196.732    2832.7084   -43029.441    21.335424   0.95370961 
    9100    226.28837   -594.38284    131004.25   -40265.592    2815.4575    -43081.05    21.549825   0.95335452 
    9200    227.40281   -615.66371    130989.16   -40164.042    2829.3232   -42993.366    21.681063   0.95346435 
    9300    229.38195   -535.74366    131014.35   -40217.003    2853.9475    -43070.95    22.027186   0.95328103 
    9400    232.12868   -547.00569    131310.14   -40177.191    2888.1221   -43065.313    22.111321   0.95113361 
    9500    227.66035   -791.18949    131215.26   -40193.367    2832.5275   -43025.894    22.074865    0.9518214 
    9600    231.88798   -658.60966    131099.21   -40165.511    2885.1273   -43050.638    22.075025   0.95266397 
    9700    234.77242   -651.46894    131169.61   -40091.068    2921.0152   -43012.083    22.235895   0.95215264 
    9800     231.2242   -498.61256    131280.72   -40174.125    2876.8686   -43050.994    22.456921   0.95134676 
    9900    228.19862   -666.42293    131080.67   -40268.116    2839.2247   -43107.341    22.584445   0.95279873 
   10000    225.72013   -844.52717    130947.83   -40277.542    2808.3876    -43085.93    22.872078   0.95376525 
   10100    229.27645   -475.24885    130880.99   -40246.864     2852.635   -43099.499    23.072599   0.95425236 
   10200    222.97494   -799.34697    131001.83   -40287.412    2774.2321   -43061.644    23.260107   0.95337211 
   10300    231.01016   -516.50222    131012.41    -40282.76    2874.2056   -43156.966    23.310335   0.95329513 
   10400    233.34081   -569.26453    131214.12   -40227.371    2903.2034   -43130.575    23.448536   0.95182968 
   10500    229.13546   -570.16627    131084.01   -40229.062    2850.8808   -43079.942    23.477334   0.95277439 
   10600    232.11278   -738.91789     131086.9   -40143.762    2887.9243   -43031.686    23.570511   0.95275341 
   10700    235.52551   -538.25796    131116.75   -40130.026    2930.3851   -43060.411      23.7514   0.95253654 
   10800    232.27517   -390.55289    131202.48   -40116.206    2889.9447    -43006.15     23.90391   0.95191409 
   10900    228.61419   -693.19806    131233.26   -40145.746    2844.3951   -42990.141    24.101493   0.95169082 
   11000    233.21461   -444.23994    131156.88   -40134.199    2901.6331   -43035.832    24.350006   0.95224509 
   11100    230.44205   -550.34407    131247.52   -40188.823    2867.1372    -43055.96    24.424659    0.9515874 
   11200    231.78779   -526.19351    131270.72   -40186.332    2883.8807   -43070.212    24.485972   0.95141924 
   11300    230.55849   -484.75107    131646.14   -40195.937    2868.5859   -43064.523    24.830682   0.94870609 
   11400    229.39737    -710.5631    131701.83   -40210.623    2854.1394   -43064.762    25.044857   0.94830493 
   11500    231.14367   -586.91763    131582.64   -40254.399    2875.8667   -43130.265    25.018007   0.94916388 
   11600    232.17332   -491.72513    131882.88   -40268.052    2888.6776   -43156.729    25.308744   0.94700305 
   11700     231.0096   -715.67473    131835.23   -40167.702    2874.1986     -43041.9    25.637401   0.94734533 
   11800    229.78782   -516.01063    131844.02   -40239.067    2858.9973   -43098.064    25.822216   0.94728218 
   11900    228.20614   -702.63831    131700.93   -40243.665    2839.3182   -43082.984    25.857822   0.94831138 
   12000    228.84623    -453.5222    131836.35   -40236.229    2847.2822   -43083.511    25.882632   0.94733728 
   12100    229.27867   -514.04277    131983.61   -40181.617    2852.6626    -43034.28    26.096768   0.94628028 
   12200    232.85948   -727.64325    131971.77   -40166.913    2897.2146   -43064.128    26.511748   0.94636518 
   12300    226.74466   -907.07529    131684.67   -40184.741    2821.1347   -43005.876    26.500774   0.94842848 
   12400    231.10047   -524.85018    131718.19   -40165.632    2875.3293   -43040.962    26.544195   0.94818715 
   12500    226.60499   -790.40921    131695.43   -40262.251    2819.3969   -43081.648    26.541964   0.94835096 
   12600    230.53185   -830.89886    131561.12   -40191.467    2868.2544   -43059.722    26.740611   0.94931917 
   12700     234.5466   -510.06739    131886.96   -40167.773    2918.2056   -43085.979    26.866934   0.94697378 
   12800    230.83536   -556.78492    131953.84    -40138.34    2872.0307   -43010.371    26.924038   0.94649382 
   12900    228.73007   -847.40177    131925.29   -40192.184    2845.8369   -43038.021    27.053312   0.94669864 
   13000    234.52009   -701.93724     131838.2   -40140.557    2917.8757   -43058.433    27.287248   0.94732397 
   13100    233.12328   -693.51092    131891.11   -40149.467    2900.4968   -43049.964    27.302261   0.94694397 
   13200    237.59696   -424.24034    131978.89   -40082.846    2956.1579   -43039.004    27.455086   0.94631415 
   13300    231.49393   -663.18118    131814.18    -40154.62    2880.2246   -43034.844    27.748058   0.94749664 
   13400    228.81397   -461.67602    132035.05   -40255.139    2846.8808    -43102.02    27.855955   0.94591163 
   13500    225.88027   -611.38073    132148.93   -40289.999      2810.38   -43100.379    27.863491   0.94509647 
   13600    233.76819   -503.25152     132154.4   -40324.145    2908.5207   -43232.666    27.992628   0.94505739 
   13700    227.11205   -672.69861    132118.29   -40325.886    2825.7057   -43151.591    28.091043   0.94531571 
   13800    233.57797   -607.08134     132149.2   -40235.203    2906.1541   -43141.357    28.272267   0.94509455 
   13900    229.96096   -651.92644    132311.47   -40266.172    2861.1515   -43127.324    28.424589   0.94393547 
   14000    230.84349   -642.63725    132165.92   -40261.452    2872.1319   -43133.584    28.489237   0.94497504 
   14100    226.95344   -491.25456    132450.92   -40255.614    2823.7322   -43079.346    28.831437   0.94294168 
   14200    225.52277   -690.33191    132307.71   -40299.718    2805.9321    -43105.65     28.81778   0.94396233 
   14300    226.04782   -472.54229    132287.61    -40357.98    2812.4647   -43170.445    29.205991   0.94410574 
   14400    231.52106    -627.5518    132274.41   -40327.077    2880.5622   -43207.639    29.423723   0.94419997 
   14500    228.34076   -757.37446    132231.43   -40272.171    2840.9932   -43113.165    29.386267   0.94450686 
   14600    232.07347   -523.62761    132261.27   -40274.992    2887.4352   -43162.427    29.368554   0.94429378 
   14700    230.39908   -475.70008    132293.04   -40329.556    2866.6026   -43196.159     29.51498   0.94406697 
   14800    226.63942   -637.94711    132311.66   -40378.476    2819.8253   -43198.302     29.83766   0.94393411 
   14900    222.59501    -657.1864    132356.22   -40459.485    2769.5051    -43228.99    29.912569   0.94361635 
   15000    224.73721   -422.05039    132298.03   -40457.295    2796.1582   -43253.453    29.986077   0.94403135 
   15100    221.99955   -611.21058    132396.18   -40480.732    2762.0964   -43242.829    30.069227   0.94333151 
   15200    224.83255   -630.29137    132420.38   -40405.148    2797.3443   -43202.492    30.084739    0.9431591 
   15300    222.97644   -588.44411     132300.1   -40425.725    2774.2508   -43199.976    30.379055   0.94401657 
   15400    225.87773   -655.73174    132306.35   -40422.967    2810.3484   -43233.316    30.464239   0.94397201 
   15500    228.23487   -596.24974    132254.07   -40396.704    2839.6757    -43236.38     30.67323   0.94434513 
   15600    231.77149   -682.47703    132184.17   -40333.747    2883.6779   -43217.425    30.734021   0.94484452 
   15700     224.9437   -707.77177    132356.29   -40413.096    2798.7273   -43211.824    30.894893   0.94361585 
   15800    226.88294   -619.06818    132366.97   -40412.907    2822.8551   -43235.762    30.940052   0.94353969 
   15900    226.80703   -557.64591    132201.98   -40450.393    2821.9107   -43272.304    31.038667   0.94471727 
   16000    229.24544   -708.84845    132379.21   -40376.121    2852.2491    -43228.37    31.304604   0.94345245 
   16100    231.03904   -753.27789    132283.59   -40321.958    2874.5649   -43196.523    31.482646   0.94413442 
   16200    228.57396   -651.71992    132322.51   -40383.863    2843.8946   -43227.757    31.796162   0.94385671 
   16300    229.91545   -444.53548    132139.24   -40404.143    2860.5853   -43264.729    31.897284   0.94516578 
   16400    231.68353   -545.64259    132391.56   -40305.282    2882.5836   -43187.865     32.04708   0.94336449 
   16500    225.26757   -763.86135    132420.67   -40310.758    2802.7569   -43113.515    32.102304   0.94315706 
   16600    232.59876   -631.48077    132228.65   -40290.067    2893.9708   -43184.038    32.103448   0.94452674 
   16700    233.08266   -667.37551    132357.89   -40309.673    2899.9914   -43209.665    32.283457   0.94360439 
   16800     231.9017   -667.99321    132088.72   -40284.585    2885.2981   -43169.883    32.591844   0.94552733 
   16900    232.82568   -697.35643    131872.23   -40240.269    2896.7941   -43137.063    32.588414   0.94707954 
   17000    232.21315   -630.35142    131939.56   -40241.308    2889.1731   -43130.481    32.791141   0.94659627 
   17100    231.43497   -750.77614    131979.34   -40154.408    2879.4911   -43033.899    33.185654   0.94631091 
   17200    232.31194   -557.97241    131890.48   -40182.439    2890.4022   -43072.841      33.1324   0.94694846 
   17300      234.874   -445.19085    132016.37   -40253.768     2922.279   -43176.047    33.440506   0.94604548 
   17400    230.83467   -555.69645    131954.93   -40288.681    2872.0221   -43160.703    33.657561   0.94648601 
   17500    232.21488   -556.45121    132041.69   -40276.363    2889.1946   -43165.558    33.727898   0.94586407 
   17600    232.69863   -679.87964    132093.49   -40265.304    2895.2134   -43160.518    33.904217   0.94549318 
   17700    235.04148   -750.89159    132235.16    -40287.04    2924.3628   -43211.403    33.933882   0.94448022 
   17800    227.01978   -601.95784    131923.59   -40296.751    2824.5576   -43121.308    33.955432   0.94671082 
   17900    230.31259   -537.43159    131753.15    -40253.28    2865.5265   -43118.807    33.889662    0.9479355 
   18000    233.04359   -638.22979    131716.53   -40195.697    2899.5053   -43095.202    34.019698    0.9481991 
   18100    228.81184   -603.01375    131686.52   -40309.002    2846.8543   -43155.857    33.990991   0.94841516 
   18200    232.40937   -457.18747    131696.15   -40299.066    2891.6144    -43190.68    34.095766    0.9483458 
   18300    233.79473   -659.96221    131753.65   -40217.694    2908.8509   -43126.544    34.364979   0.94793191 
   18400    229.53198   -611.41071    131786.21   -40282.003    2855.8142   -43137.817    34.572145   0.94769775 
   18500    233.85987   -636.58595    132006.46   -40232.519    2909.6614   -43142.181     34.75632   0.94611654 
   18600    231.18998   -884.38494    131797.14   -40278.941    2876.4428   -43155.384    34.915621    0.9476191 
   18700    228.49031   -564.61481    131782.87   -40241.181    2842.8538   -43084.035    34.962618   0.94772175 
   18800     229.9819   -580.99221    131873.82   -40213.437     2861.412   -43074.849    35.150927    0.9470681 
   18900    231.65088   -682.97134    131969.68    -40254.79    2882.1773   -43136.968    35.202314   0.94638019 
   19000    233.50056   -608.26334    132165.11     -40225.2    2905.1909    -43130.39    35.309251   0.94498083 
   19100     227.6985    -583.7292    132146.91    -40281.57    2833.0022   -43114.572    35.533885   0.94511096 
   19200    228.60623   -842.57168    132134.85   -40276.173    2844.2961   -43120.469    35.804378   0.94519724 
   19300    228.78716   -751.69949    132034.46   -40217.077    2846.5472   -43063.625    35.974794   0.94591587 
   19400    234.22456   -553.91047    131876.22   -40243.643    2914.1988   -43157.842    35.991576   0.94705087 
   19500    231.95289   -707.64498    132044.57   -40234.724    2885.9349   -43120.659    36.139389   0.94584348 
   19600    233.70031   -676.74059    131907.11   -40271.684    2907.6762    -43179.36    36.304346   0.94682908 
   19700    231.81012   -499.46511    132043.22   -40258.965    2884.1586   -43143.124    36.593675   0.94585308 
   19800    229.19726   -563.08388    131959.21   -40312.988    2851.6496   -43164.638     36.66268   0.94645528 
   19900    228.88106   -624.90638    131801.98   -40331.829    2847.7155   -43179.545    36.884959   0.94758431 
   20000    229.11692   -698.00373    131773.71   -40369.633      2850.65   -43220.283    36.804543   0.94778759 
   20100     228.0698   -675.09995    131733.56   -40327.198    2837.6219    -43164.82    36.873431   0.94807646 
   20200    226.61767   -498.64467    131617.22   -40361.814    2819.5547   -43181.369    37.048488    0.9489145 
   20300    223.62053   -700.03391    131655.62    -40385.52    2782.2646   -43167.785    37.252729   0.94863773 
   20400    228.67696    -527.4019    131558.83   -40387.236    2845.1761   -43232.412    37.291626   0.94933567 
   20500    229.39138   -634.52065    131548.59   -40343.825    2854.0649    -43197.89    37.483821   0.94940956 
   20600    228.17667    -659.4566     131504.7   -40359.941    2838.9516   -43198.892    37.781278   0.94972645 
   20700    230.02619   -672.54829     131344.2   -40305.949    2861.9631   -43167.912     37.86195   0.95088702 
   20800    231.34384   -708.43282    131417.58   -40292.478    2878.3572   -43170.835    38.138361   0.95035605 
   20900    227.02044   -655.08165    131373.29   -40324.879    2824.5659   -43149.445    38.193303   0.95067643 
   21000    223.59505   -373.33986    131433.02   -40402.741    2781.9475   -43184.689    38.230267    0.9502444 
   21100    226.28793   -470.75412    131559.16   -40410.637     2815.452   -43226.089    38.676212   0.94933329 
   21200    226.24668   -470.77431    131818.48   -40373.036    2814.9389   -43187.975    38.697068    0.9474657 
   21300    225.36361   -510.76927    131744.54   -40400.479    2803.9518   -43204.431    38.947746   0.94799747 
   21400    225.33686   -579.21237    131765.13   -40359.306     2803.619   -43162.925    38.978036   0.94784933 
   21500    227.81967   -656.73817    131667.16   -40351.333    2834.5099   -43185.843     38.95548   0.94855459 
   21600    228.64174   -632.03624    131534.95   -40302.088    2844.7379   -43146.826    39.220648   0.94950806 
   21700    232.93739   -569.19296    131543.74   -40264.297     2898.184   -43162.481    39.436722    0.9494446 
   21800    229.97598   -690.23444    131802.54   -40242.816    2861.3384   -43104.154    39.854518   0.94758032 
   21900    231.83505   -491.53447    131858.75   -40277.711    2884.4688    -43162.18    39.878483    0.9471764 
   22000    226.89605   -475.97174    131690.06   -40326.673    2823.0182   -43149.692    40.098727   0.94838964 
   22100    232.08778   -496.82009     131830.5   -40258.257    2887.6132    -43145.87    40.116908   0.94737935 
   22200    228.97849   -565.78954    131757.98   -40289.152    2848.9277    -43138.08    40.223717   0.94790079 
   22300    230.53463    -519.6906    131893.41   -40259.903     2868.289   -43128.192    40.291787   0.94692742 
   22400    227.01043   -607.38621    131870.56   -40213.392    2824.4413   -43037.833    40.459194   0.94709152 
   22500    228.94016   -528.22604    131805.75   -40218.137    2848.4509   -43066.588    40.324767   0.94755722 
   22600    231.06051   -629.66712    131969.82   -40181.235     2874.832   -43056.067    40.681669    0.9463792 
   22700    233.67343   -756.48102    131939.26   -40196.328    2907.3417    -43103.67    41.018607    0.9465984 
   22800    232.49763   -654.83327    131970.19   -40186.614    2892.7125   -43079.327    41.037044   0.94637651 
   22900    231.55478   -607.10155    131936.08   -40244.275    2880.9817   -43125.256    41.271112   0.94662124 
   23000    234.89169   -599.87134    131821.79   -40239.342    2922.4992   -43161.841     41.47824    0.9474419 
   23100    226.74852   -579.59172    131909.51   -40363.227    2821.1827    -43184.41    41.521012   0.94681185 
   23200    231.86384   -706.20284    131971.89   -40321.121     2884.827   -43205.948    41.769708   0.94636437 
   23300    233.70426   -524.78539    131963.74    -40386.33    2907.7253   -43294.055    41.656511   0.94642279 
   23400    229.59617   -697.72664    131805.08    -40324.35    2856.6129   -43180.963    41.849044   0.94756205 
   23500    229.45415   -614.18021    131871.64   -40374.423    2854.8459   -43229.268    42.122484   0.94708381 
   23600    232.58317   -722.87947    131758.33   -40353.646    2893.7768   -43247.423     42.10994   0.94789823 
   23700    228.72376   -492.53624    131733.41   -40390.399    2845.7584   -43236.157    42.179125   0.94807755 
   23800     225.4594   -676.80176    131763.33   -40432.068    2805.1436   -43237.212     42.31971   0.94786229 
   23900    226.06275   -657.89345    131908.97   -40430.852    2812.6504   -43243.502    42.370699   0.94681578 
   24000     228.2035   -693.54508     131880.7   -40346.235    2839.2853    -43185.52    42.274465   0.94701875 
   24100    228.04195   -781.69731    131718.51   -40352.046    2837.2753   -43189.321     42.40151   0.94818483 
   24200     227.9478   -706.29734    131512.71   -40421.347     2836.104   -43257.451    42.517053   0.94966858 
   24300    228.77632   -805.01203    131527.06   -40383.751    2846.4124   -43230.164    42.792277     0.949565 
   24400    225.46827   -584.27486    131433.13   -40421.841    2805.2539   -43227.095    43.184658   0.95024358 
   24500    231.84241   -589.82806    131637.72   -40362.911    2884.5604   -43247.471    43.359437   0.94876671 
   24600    230.23457   -598.22686     131650.1   -40330.131    2864.5557   -43194.687    43.184129   0.94867753 
   24700    228.40718   -638.39204    131817.77   -40336.179    2841.8195   -43177.998    43.357162   0.94747082 
   24800    227.85583   -681.93371    131718.95   -40338.384    2834.9597   -43173.344    43.438163   0.94818165 
   24900    229.08944   -691.35135    131611.47   -40275.139    2850.3082   -43125.447    43.656993   0.94895594 
   25000    229.29569   -473.56355    131527.22   -40250.662    2852.8743   -43103.536     43.55312    0.9495638 
   25100    226.03186   -501.91404    131790.17   -40247.324    2812.2661    -43059.59     43.90927   0.94766927 
   25200    226.84781   -508.33308    131747.58   -40267.026     2822.418   -43089.444    43.974006   0.94797557 
   25300    228.65655   -703.15227     131764.8   -40253.996    2844.9222   -43098.918    44.170274   0.94785174 
   25400    231.86931   -564.02694    131619.15   -40242.478     2884.895   -43127.373    44.556497   0.94890062 
   25500     236.0071   -595.16897    131500.07   -40208.743     2936.377    -43145.12    44.895221   0.94975985 
   25600    228.82218   -612.76874    131489.03   -40305.889    2846.9829   -43152.872    44.991708   0.94983961 
   25700    228.21403   -506.18472    131582.32    -40319.81    2839.4165   -43159.227    44.995433   0.94916619 
   25800    227.84998   -699.85685    131683.13   -40305.852    2834.8869   -43140.739    45.057659    0.9484396 
   25900    231.26413   -591.70353    131742.17   -40256.693    2877.3654   -43134.058    45.222097   0.94801455 
   26000    234.99686    -541.4687    131796.81   -40193.788    2923.8077   -43117.596    45.426126    0.9476215 
   26100    228.07679   -719.45118    131588.11   -40281.956    2837.7089   -43119.665    45.679399   0.94912442 
   26200    234.17525   -636.61764    131466.55   -40281.957    2913.5854   -43195.543    45.772075   0.95000204 
   26300    229.76165   -621.29218    131592.02    -40248.93    2858.6717   -43107.601    45.990286   0.94909622 
   26400    231.93444   -565.45075    131502.43   -40221.472    2885.7054   -43107.178    45.914589   0.94974282 
   26500    228.85454   -609.49923    131623.43   -40280.721    2847.3856   -43128.106    46.126604   0.94886977 
   26600    229.90206   -575.86871    131690.55   -40331.106    2860.4187   -43191.525    46.173087    0.9483861 
   26700    232.10781   -493.84554    131773.21    -40360.69    2887.8624   -43248.552    46.362464   0.94779119 
   26800    230.70789   -470.04307    131832.11   -40298.249    2870.4448   -43168.694    46.754738   0.94736773 
   26900    229.84031   -809.68299    131877.98   -40301.118    2859.6505   -43160.769    46.997394   0.94703823 
   27000     229.0679   -703.51466    131757.42   -40337.749    2850.0402   -43187.789    46.972871   0.94790479 
   27100    228.43701    -594.3472    131612.58   -40336.295    2842.1906   -43178.486    47.060361   0.94894796 
   27200     229.7582   -646.69608    131714.48   -40353.895    2858.6288   -43212.524    46.875486   0.94821381 
   27300    227.55595   -584.82684    131608.38   -40373.554    2831.2286   -43204.782    46.860981   0.94897828 
   27400    227.62313   -455.06306    131888.45   -40311.512    2832.0644   -43143.577    47.224671   0.94696306 
   27500    230.57571   -561.21583    132019.54    -40238.96    2868.8002    -43107.76    47.278694   0.94602274 
   27600    229.88943   -656.02344    132066.66   -40284.657    2860.2615   -43144.919    47.670151   0.94568521 
   27700    230.83592   -703.67177    132104.23   -40300.581    2872.0377   -43172.619    48.195757   0.94541629 
   27800    229.66415   -768.33121    131977.34   -40237.779    2857.4586   -43095.237    48.077788   0.94632527 
   27900    234.30896   -600.43344    132091.88     -40276.8    2915.2489   -43192.049    48.149971   0.94550467 
   28000     231.4531   -567.03175    132230.66   -40324.237    2879.7166   -43203.954    48.322407   0.94451237 
   28100    230.49943   -559.31473    132212.36   -40318.135    2867.8511   -43185.987    48.572465   0.94464305 
   28200    229.43846   -833.58842    132101.98   -40371.522    2854.6507   -43226.172    48.523594   0.94543237 
   28300    228.75888   -665.13487    131926.76   -40350.673    2846.1953   -43196.868     48.53396   0.94668809 
   28400    227.19969   -543.30084    131931.26   -40374.909    2826.7961   -43201.706    48.768411    0.9466558 
   28500    223.22247   -729.64221     131890.7    -40397.87    2777.3119   -43175.181    48.890451   0.94694693 
   28600    228.27987   -639.31046    131782.62   -40352.291    2840.2356   -43192.526    48.993311   0.94772352 
   28700    229.23092   -382.66701    131744.42   -40351.641    2852.0685   -43203.709    49.021379   0.94799837 
   28800    231.59661   -462.05548    132148.26   -40303.693    2881.5021   -43185.195    49.328231   0.94510128 
   28900     231.3962    -626.7594    132004.64   -40271.795    2879.0087   -43150.804    49.576802   0.94612956 
   29000    229.81456   -666.09695     131938.6   -40356.003    2859.3301   -43215.333    49.571831   0.94660312 
   29100    228.07971   -428.85009    131957.08   -40311.155    2837.7453   -43148.901    49.662061   0.94647056 
   29200    231.96523   -637.34563     131979.7   -40279.578    2886.0884   -43165.667    49.845884   0.94630837 
   29300    228.29148   -466.12135    132100.83   -40329.865      2840.38   -43170.245    50.349712   0.94544063 
   29400    227.47028   -639.36035    132232.96   -40375.947    2830.1627    -43206.11    50.432975   0.94449595 
   29500    226.92695   -580.62335    132344.92   -40412.054    2823.4026   -43235.457    50.500213   0.94369692 
   29600    230.13339   -673.98599    132266.32   -40342.559    2863.2968   -43205.856    50.757152   0.94425767 
   29700    226.26139   -488.15209    132311.61   -40396.613    2815.1219   -43211.735    50.800027   0.94393447 
   29800    231.06517   -693.48152    132115.33   -40369.591      2874.89   -43244.481    50.707803   0.94533688 
   29900     226.6767   -477.51995    131898.44   -40399.291    2820.2891    -43219.58    50.828015   0.94689137 
   30000    228.24698   -676.15909    131793.43   -40350.372    2839.8264   -43190.198    51.185647   0.94764579 
   30100    229.69854   -601.76762    131868.23   -40345.057    2857.8865   -43202.944    51.288206   0.94710827 
   30200    228.58025   -404.94697    131860.34   -40363.507    2843.9728    -43207.48      51.1822   0.94716492 
   30300    229.21613   -703.22575    132142.05   -40333.715    2851.8844   -43185.599    51.532804   0.94514568 
   30400    229.86027   -742.43891    132071.86   -40317.495    2859.8987   -43177.394    51.425728   0.94564798 
   30500    230.35006   -563.15287    131818.59   -40317.081    2865.9927   -43183.073    51.393381   0.94746495 
   30600    231.28544   -670.81149    131950.51   -40298.593    2877.6306   -43176.224    51.705753    0.9465177 
   30700    230.80973   -750.98356    132154.42    -40306.32    2871.7119   -43178.032    52.001984   0.94505722 
   30800    236.78626   -602.53816    132023.39   -40234.987    2946.0712   -43181.058    52.094901    0.9459952 
   30900    224.85512   -589.11915    131963.05   -40372.007    2797.6251   -43169.632    52.291735   0.94642771 
   31000    226.64323   -507.70642    131802.36   -40418.312    2819.8726   -43238.185    52.334814   0.94758159 
   31100    221.78724   -514.88728    131895.36   -40419.521    2759.4549   -43178.976    52.534387   0.94691343 
   31200    232.50736   -583.46646    132057.24   -40423.093    2892.8336   -43315.927    52.464833   0.94575272 
   31300    228.97969   -614.22919     131982.3   -40374.635    2848.9426   -43223.578     52.51181   0.94628967 
   31400    228.96922   -510.55281    131872.97   -40341.003    2848.8124   -43189.815    52.660081   0.94707426 
   31500    230.06015   -704.77431    131963.45   -40401.873    2862.3857   -43264.258    52.734845   0.94642488 
   31600     228.2373   -562.36623    131972.63   -40328.061    2839.7059   -43167.767    52.875833   0.94635903 
   31700    231.83412   -514.62012    131957.57   -40362.871    2884.4572   -43247.328     52.94421   0.94646701 
   31800    232.53255   -348.70364    131963.94   -40289.014     2893.147   -43182.161    52.999503   0.94642138 
   31900    227.57602   -538.45513    131916.46   -40273.049    2831.4784   -43104.527    52.978854   0.94676201 
   32000    235.60023   -708.14787    131809.53   -40271.308    2931.3148   -43202.623    53.275002   0.94753005 
   32100    231.06726   -476.80941    131889.37   -40277.543     2874.916   -43152.459     53.33339   0.94695648 
   32200    232.42287   -687.47181    132072.45   -40259.806    2891.7824   -43151.589    53.291004   0.94564377 
   32300    227.92362   -616.82433    132007.39    -40237.28    2835.8032   -43073.083    53.552058   0.94610984 
   32400    230.28792   -528.14062    131896.46   -40297.635    2865.2195   -43162.855    53.728202   0.94690555 
   32500    229.46109   -444.47636    131983.15   -40318.551    2854.9323   -43173.484     53.95793   0.94628364 
   32600    232.10894    -686.7352    131927.92    -40247.73    2887.8765   -43135.606    54.028975   0.94667978 
   32700    226.88064   -631.43625    131842.63   -40308.369    2822.8265   -43131.195    54.151187    0.9472922 
   32800    228.65265   -349.55728     131789.4   -40363.019    2844.8736   -43207.893    54.344157   0.94767475 
   32900    225.59761   -717.01991    131944.25   -40353.781    2806.8632   -43160.645    54.561196   0.94656259 
   33000     227.4188   -695.80091    131964.41   -40411.788    2829.5223    -43241.31    54.693324   0.94641796 
   33100    226.76229   -436.02084    132108.86   -40341.602    2821.3539   -43162.956    55.043197   0.94538319 
   33200    226.43179   -785.47504    132166.67   -40373.977    2817.2419   -43191.219    54.884635   0.94496966 
   33300    236.17676   -603.75523    132126.61       -40318     2938.488   -43256.488    55.172548   0.94525612 
   33400    224.99792   -599.53797    132133.08   -40407.797    2799.4019   -43207.199    55.382161   0.94520986 
   33500    231.12496   -490.06917    132263.98   -40369.994    2875.6339   -43245.627    55.461054   0.94427443 
   33600    231.41109   -712.81121    132299.53   -40326.896     2879.194    -43206.09    55.645339   0.94402064 
   33700    231.80709   -517.52067    132390.15     -40321.2    2884.1208   -43205.321    55.580127    0.9433745 
   33800    232.87094   -555.98899    132447.81   -40322.011    2897.3573   -43219.368     55.66511   0.94296384 
   33900     229.4904   -593.13929    132280.36   -40326.184    2855.2968   -43181.481    55.898692   0.94415744 
   34000    231.85442   -590.50616    132531.73   -40288.697    2884.7097   -43173.407    56.129762   0.94236672 
   34100    231.11573   -563.50749    132553.26   -40337.547    2875.5191   -43213.067    56.296079   0.94221364 
   34200    228.82554   -561.52564    132532.04   -40340.141    2847.0248   -43187.165    56.566668    0.9423645 
   34300    229.24692   -698.46733    132520.32   -40398.053    2852.2675   -43250.321    56.732898   0.94244784 
   34400    229.14723   -694.08668     132452.3    -40331.46    2851.0272   -43182.487    56.703402   0.94293186 
   34500    229.88545    -623.1182    132292.82   -40365.458    2860.2121    -43225.67    56.719697   0.94406854 
   34600    227.20653   -648.20165    132096.88   -40337.184    2826.8811   -43164.065    56.833304   0.94546888 
   34700    223.58694   -582.43093     131963.9   -40418.438    2781.8466   -43200.285    56.837938   0.94642162 
   34800    223.73839   -447.26152    132036.27   -40377.015    2783.7309   -43160.746    56.941155    0.9459029 
   34900    225.73193   -482.00072    132183.57   -40382.564    2808.5343   -43191.098    57.256444   0.94484886 
   35000    228.16231   -606.10972    132124.18   -40463.485    2838.7729   -43302.258    57.339505   0.94527353 
   35100    230.02904   -728.18698    132031.88   -40418.937    2861.9985   -43280.936    57.529561   0.94593436 
   35200    223.71947   -577.44899    132155.74   -40423.976    2783.4955   -43207.472    57.705963   0.94504777 
   35300    228.99145    -678.1284    132395.75   -40395.131     2849.089    -43244.22    58.093296   0.94333457 
   35400    223.09187   -731.48769    132440.12   -40411.937     2775.687   -43187.624    57.905768   0.94301853 
   35500    232.50469   -531.72326    132631.37   -40300.522    2892.8004   -43193.323     58.20701   0.94165877 
   35600    227.24712    -641.1487    132458.71     -40347.4    2827.3862   -43174.786    58.289679   0.94288619 
   35700    227.58253   -647.78103    132323.74   -40307.578    2831.5594   -43139.137    58.621102   0.94384797 
   35800    228.34332    -573.6691    132352.13   -40351.321     2841.025   -43192.346    58.650284    0.9436455 
   35900    235.26329   -584.65733    132264.79   -40295.216    2927.1226   -43222.339    58.716713   0.94426859 
   36000    232.57137   -616.59233    132216.12   -40262.415      2893.63   -43156.045    58.718883   0.94461621 
   36100    231.89131   -519.55789    132194.45   -40272.719    2885.1687   -43157.888    58.898378   0.94477106 
   36200     231.0095   -772.26888    132090.86   -40303.325    2874.1973   -43177.522    58.935058   0.94551197 
   36300    228.76507    -753.3634    132163.16   -40337.934    2846.2724   -43184.207    59.427762   0.94499474 
   36400    228.20534   -532.62056    132025.07   -40289.414    2839.3082   -43128.723    59.351088   0.94598316 
   36500    233.30135    -659.8965    132151.44   -40262.661    2902.7123   -43165.373    59.518047   0.94507855 
   36600    223.67818   -544.55969    132167.53    -40385.67    2782.9818   -43168.651    59.689035   0.94496351 
   36700    226.11403   -671.77868    132237.31   -40322.811    2813.2884     -43136.1    59.534294   0.94446486 
   36800     228.9582   -640.06592    132132.05   -40315.037    2848.6753   -43163.713    59.769824   0.94521727 
   36900     228.9572    -566.6055    132105.83   -40335.483    2848.6629   -43184.146    59.985234   0.94540483 
   37000    232.42947   -571.23306    131995.26   -40271.543    2891.8644   -43163.408    60.050123   0.94619677 
   37100    231.38532   -670.30044    131948.69   -40258.034    2878.8733   -43136.907    60.077245   0.94653073 
   37200    226.25071   -405.07353    131998.07   -40320.337     2814.989   -43135.326     60.16332   0.94617667 
   37300    228.96941   -695.58817    132235.09    -40333.49    2848.8148   -43182.305    60.291451   0.94448072 
   37400    222.04003   -564.74376    132304.57   -40374.854    2762.6001   -43137.454    60.526409   0.94398472 
   37500    224.22682   -580.17483    132244.18   -40375.179    2789.8079   -43164.987    60.876189   0.94441581 
   37600    229.84792   -688.40982    132098.55   -40320.968    2859.7451   -43180.713    60.971019   0.94545692 
   37700    231.86511   -575.49331    132026.34   -40328.606    2884.8428   -43213.449    61.053249   0.94597404 
   37800    224.31003   -332.38268    132068.87   -40417.532    2790.8433   -43208.375    61.376103   0.94566944 
   37900     228.5312   -563.73952    132137.34   -40372.168    2843.3626   -43215.531    61.308746   0.94517938 
   38000      225.864    -750.0414    132106.38   -40339.944    2810.1775   -43150.121    61.547704   0.94540088 
   38100    234.14716   -735.99917    132312.93   -40295.314    2913.2358    -43208.55    61.818318    0.9439251 
   38200    230.55532   -337.36481    132153.03   -40317.519    2868.5465   -43186.066     61.76365   0.94506716 
   38300    232.51353   -641.43331    132284.39   -40263.241    2892.9104   -43156.152    61.929634   0.94412872 
   38400    230.12786   -563.69893     132214.3   -40324.058    2863.2281   -43187.286    61.982415   0.94462925 
   38500    227.97168   -876.60437    132206.86   -40345.084    2836.4011   -43181.485    62.159916   0.94468237 
   38600    233.18172   -507.47321    132217.68   -40311.218     2901.224   -43212.442    62.264014   0.94460508 
   38700      230.696   -665.57708    132282.69   -40332.094    2870.2969   -43202.391    62.398206   0.94414087 
   38800     232.5375   -690.90154    132235.34   -40363.995    2893.2086   -43257.204    62.549989   0.94447895 
   38900    227.77315   -756.88387    132307.48   -40313.781     2833.931   -43147.712    62.763592   0.94396397 
   39000     228.0582   -693.37955    132238.42   -40356.322    2837.4776     -43193.8    62.871818   0.94445695 
   39100     232.4157   -315.85794    131961.73   -40313.322    2891.6932   -43205.015    62.934227   0.94643719 
   39200    224.22175    -445.8773       132052   -40328.432    2789.7448   -43118.176     63.19609   0.94579025 
   39300    226.17113   -744.60775    132014.04   -40294.991    2813.9989    -43108.99    63.369325   0.94606221 
   39400    231.23512   -697.87378     131712.3   -40248.532    2877.0045   -43125.537    63.365427   0.94822949 
   39500    232.66605   -423.90669    131668.08   -40239.571     2894.808   -43134.379     63.79017   0.94854794 
   39600     230.3705   -450.59456    131976.26   -40276.152    2866.2469   -43142.399    63.976854   0.94633297 
   39700    232.09344   -571.19513    132104.86     -40226.1    2887.6836   -43113.783    64.155923   0.94541176 
   39800    230.99401   -493.99439    132082.53   -40297.028    2874.0047   -43171.033    64.115591   0.94557162 
   39900    222.95083   -539.46805    132065.99   -40349.568    2773.9321     -43123.5    64.379592   0.94569003 
   40000    227.33807   -607.87916    131931.68   -40371.598    2828.5179   -43200.116    64.599336   0.94665279 
   40100    228.23329   -549.01109    132188.35   -40266.509     2839.656   -43106.165    64.487736   0.94481468 
   40200    225.11959   -619.51369    132008.72   -40293.211    2800.9156   -43094.127    64.654162   0.94610035 
   40300    230.89391   -707.56339    132153.63   -40263.477    2872.7592   -43136.236    64.850759   0.94506289 
   40400     236.0198   -622.07534    132220.45    -40159.12     2936.535   -43095.655     65.04897   0.94458525 
   40500    232.67288   -636.91672    131973.35   -40189.125    2894.8929   -43084.017    65.320753   0.94635387 
   40600    231.29748   -739.33841    131955.88   -40218.557    2877.7804   -43096.338    65.430183   0.94647919 
   40700    225.34447   -451.14392    131879.57   -40269.737    2803.7137   -43073.451     65.30937    0.9470268 
   40800    230.19854   -590.59702    131745.13   -40318.051    2864.1075   -43182.158    65.275075   0.94799321 
   40900    226.45448   -672.20781    131723.35   -40340.196    2817.5242    -43157.72    65.509578   0.94814999 
   41000    226.87601   -755.51477    131807.92   -40239.809    2822.7689   -43062.578    65.676723   0.94754166 
   41100    231.00883   -627.19119    131877.76    -40213.41     2874.189   -43087.599     65.76159   0.94703985 
   41200    232.35954   -600.66422    131823.61   -40233.694    2890.9944   -43124.689    65.567378   0.94742882 
   41300    230.62825   -631.01298    131841.66   -40379.353    2869.4539   -43248.807      65.9307   0.94729912 
   41400    229.38662   -735.24867    131644.71   -40335.961    2854.0057   -43189.966    65.959103   0.94871636 
   41500    228.44603   -806.32966    131639.78   -40337.721     2842.303   -43180.024    65.900127   0.94875189 
   41600    228.46152   -599.24271    131754.82   -40309.381    2842.4957   -43151.876    66.102791   0.94792349 
   41700    229.80271   -601.60581    131759.67   -40290.987    2859.1826    -43150.17    66.399258    0.9478886 
   41800    229.12273    -533.6797    131825.93    -40301.43    2850.7223   -43152.152    66.354698    0.9474122 
   41900    230.66076   -524.79812    131715.15   -40263.068    2869.8584   -43132.927    66.467186   0.94820904 
   42000    231.80675   -519.46863    131588.47   -40274.549    2884.1167   -43158.666    66.730973   0.94912183 
   42100    228.76985   -417.23916    131700.75   -40276.867    2846.3318   -43123.199    66.686693   0.94831269 
   42200    234.47183   -854.23991     131488.4   -40231.107    2917.2753   -43148.382    67.085866   0.94984421 
   42300     235.6875    -412.9546    131572.77   -40206.845    2932.4006   -43139.246     67.31663   0.94923508 
   42400    235.10376   -506.05682    131698.55   -40239.585    2925.1377   -43164.723    67.573579   0.94832851 
   42500    236.15656   -611.39415    131844.45   -40254.358    2938.2366   -43192.594    67.914126   0.94727913 
   42600    231.56207   -389.49504    132095.48    -40250.78    2881.0724   -43131.853    68.025982    0.9454789 
   42700    228.23579   -460.28887    132107.32    -40253.71    2839.6871   -43093.397    68.274097   0.94539419 
   42800     232.1605   -576.05249    132197.67   -40210.472     2888.518    -43098.99    68.429425   0.94474807 
   42900    229.95164   -540.66289    132172.47   -40292.614    2861.0356    -43153.65    68.625516    0.9449282 
   43000    229.24432   -528.41685    132154.86   -40320.155    2852.2352    -43172.39    68.965653   0.94505409 
   43100    230.95862   -607.88006    132166.29   -40300.688    2873.5644   -43174.252     68.96068   0.94497236 
   43200    230.09198   -577.38909    132352.18   -40258.831    2862.7816   -43121.613    69.059487   0.94364516 
   43300    232.41451   -551.91205    132451.71   -40262.863    2891.6784   -43154.541    69.353979   0.94293603 
   43400    232.73085   -606.43095    132381.71   -40220.405    2895.6143   -43116.019    69.612766   0.94343467 
   43500    236.37825   -607.15352    132466.13   -40233.084    2940.9949   -43174.078    69.785848   0.94283338 
   43600    238.62111   -728.28579    132110.83   -40147.814    2968.9002   -43116.714    69.603112   0.94536905 
   43700    236.35034    -575.2321    132060.36   -40194.119    2940.6476   -43134.767    69.488517   0.94573033 
   43800    234.72774   -660.65833    132073.79   -40216.696    2920.4594   -43137.155    69.659532   0.94563415 
   43900    233.59789   -609.71326    132167.36   -40277.287    2906.4018   -43183.689    69.978698   0.94496469 
   44000    230.15828   -585.06043    132270.03   -40318.575    2863.6065   -43182.181    70.315538    0.9442312 
   44100    229.32966   -535.36402    132332.56   -40348.826     2853.297   -43202.123    70.456568   0.94378507 
   44200    226.60017   -456.10897    132296.34   -40388.637    2819.3369   -43207.974    70.409218   0.94404341 
   44300    230.23668    -614.6044    132426.36   -40400.553     2864.582   -43265.135    70.446052   0.94311657 
   44400    229.10798   -695.94558     132485.4   -40372.655    2850.5388   -43223.194    70.663218   0.94269624 
   44500    230.26086   -717.13643    132479.38   -40415.503    2864.8828   -43280.386    70.683997    0.9427391 
   44600    224.71858   -633.49491    132562.11   -40485.989    2795.9263   -43281.915    70.923806   0.94215076 
   44700    226.87261   -577.13796    132431.19   -40442.093    2822.7266   -43264.819    70.868045   0.94308218 
   44800    229.06532   -454.43863    132263.49   -40416.901    2850.0081   -43266.909    70.913272   0.94427792 
   44900    229.33537   -611.90814     132350.7   -40365.149    2853.3679   -43218.517    71.078802   0.94365566 
   45000    229.26964    -611.2674    132271.55   -40365.442    2852.5502   -43217.992    71.156002   0.94422038 
   45100    232.69705   -512.29921    132272.81   -40305.428    2895.1937   -43200.622    71.216581   0.94421135 
   45200    227.05929   -666.77728    132384.33   -40377.019    2825.0492   -43202.068    71.264818   0.94341596 
   45300    232.02369   -359.56599    132425.76   -40377.297    2886.8158   -43264.113     71.48287    0.9431208 
   45400    230.68005   -497.12047    132576.66   -40351.685    2870.0984   -43221.783    71.999933   0.94204736 
   45500    227.28591   -488.67726    132602.11   -40366.573    2827.8689   -43194.442    72.043987   0.94186653 
   45600    232.45298   -539.89283    132572.67   -40360.349     2892.157   -43252.506    71.785579    0.9420757 
   45700    231.77067   -531.21627    132652.42   -40371.116    2883.6677   -43254.783    71.972858   0.94150934 
   45800    230.99946   -713.34345    132540.65   -40317.974    2874.0725   -43192.046    72.107996    0.9423033 
   45900    232.97656   -787.03047    132441.38    -40262.66    2898.6713   -43161.331    72.094936   0.94300957 
   46000    233.72604   -756.34058       132136   -40243.471    2907.9963   -43151.467    71.922841     0.945189 
   46100    234.76709   -407.98138    132198.17   -40192.502    2920.9489   -43113.451    72.137945   0.94474446 
   46200    232.59498   -518.64784     132469.2   -40183.966    2893.9237    -43077.89    72.438228   0.94281157 
   46300    238.55267   -493.36653    132624.73   -40201.385    2968.0488   -43169.434    72.658844   0.94170589 
   46400    235.51537    -526.1813    132491.28    -40256.14     2930.259   -43186.399    72.761528   0.94265443 
   46500    235.07596   -454.28988    132681.23   -40271.178    2924.7919   -43195.969    73.170028   0.94130493 
   46600    229.71385   -649.98445    132635.88   -40265.099     2858.077   -43123.176    73.098269   0.94162677 
   46700    227.44618   -537.20146    132784.85   -40347.833    2829.8629   -43177.695    73.195741    0.9405703 
   46800    229.69821    -709.7707    132897.04   -40395.883    2857.8825   -43253.765    73.571042   0.93977635 
   46900    229.81799   -601.78861    132881.58   -40327.751    2859.3727   -43187.123    73.527723   0.93988567 
   47000    231.81557   -495.60373    133071.46   -40304.617    2884.2264   -43188.843    73.348319   0.93854453 
   47100    229.83284   -743.84931    133060.03   -40280.261    2859.5575   -43139.819    73.261411   0.93862512 
   47200    227.97433   -713.63163    132949.63   -40334.468    2836.4341   -43170.902    73.531849   0.93940458 
   47300    230.71212   -733.66781    132772.47   -40352.669    2870.4974   -43223.166    73.573681   0.94065807 
   47400    230.31496   -675.42905    132783.99   -40304.619    2865.5559   -43170.175    73.996266    0.9405764 
   47500    232.15069   -473.75279    132882.23   -40232.969     2888.396   -43121.365    74.110823   0.93988103 
   47600    235.15371   -636.98293    132890.19   -40190.546    2925.7592   -43116.305    74.171984   0.93982474 
   47700    229.82127   -554.33094    133022.82   -40239.172    2859.4135   -43098.585    74.189642   0.93888773 
   47800    232.93484   -632.88017    133127.39   -40264.632    2898.1523   -43162.784    74.067096   0.93815026 
   47900    230.11466   -626.46216    133151.67   -40354.403    2863.0638   -43217.466    74.185528   0.93797916 
   48000    227.71021   -813.32995    133147.06   -40367.115    2833.1479   -43200.263    74.472469   0.93801164 
   48100    229.16099   -748.11483    133093.27   -40341.368    2851.1984   -43192.567    74.877833   0.93839072 
   48200    227.57208   -740.34155    132877.62    -40386.74    2831.4293    -43218.17    74.718776   0.93991365 
   48300    228.35846   -675.62402    132681.84   -40368.225    2841.2134   -43209.438     74.66321   0.94130057 
   48400     231.6836   -495.14788    132616.16   -40282.176    2882.5844    -43164.76    74.662126   0.94176673 
   48500    231.57523   -510.78714    132810.69   -40330.149    2881.2361   -43211.385      74.7917   0.94038737 
   48600    231.24222   -628.40226    132601.58    -40341.08    2877.0928   -43218.173     74.38773   0.94187034 
   48700     235.4932   -507.35304    132495.61   -40299.893    2929.9831   -43229.876    74.762214   0.94262363 
   48800    233.79249    -574.0957    132619.39    -40335.12    2908.8231   -43243.943    75.196696   0.94174385 
   48900    226.38439   -479.83848    132614.48   -40333.882    2816.6521   -43150.534    75.330393   0.94177865 
   49000    227.94372    -797.6164    132609.63   -40382.571    2836.0532   -43218.624    75.429613   0.94181315 
   49100    228.55912   -633.03841    132651.12   -40380.044      2843.71   -43223.754    75.145286   0.94151858 
   49200    229.80683   -602.34741     132255.9   -40404.901    2859.2339   -43264.135    74.990612   0.94433208 
   49300    233.85715   -452.83772    132467.47   -40351.914    2909.6276   -43261.542    75.217688   0.94282383 
   49400    230.82915   -551.36044    132431.96   -40311.251    2871.9534   -43183.205    75.372606   0.94307666 
   49500    232.49232   -691.06544    132316.25   -40313.331    2892.6464   -43205.978    75.368321   0.94390135 
   49600    230.29014   -604.55278    132516.31   -40314.176    2865.2471   -43179.423    75.673418    0.9424764 
   49700    230.44282   -660.72625    132622.98   -40325.792    2867.1468   -43192.939    75.746587   0.94171835 
   49800    224.70281   -341.34299     132723.1   -40369.922    2795.7301   -43165.652    75.738462   0.94100797 
   49900    235.57581   -573.57695    132632.03   -40258.046     2931.011   -43189.057    76.029797   0.94165405 
   50000    231.54973   -499.70047    132718.45   -40291.422    2880.9189   -43172.341    76.426039   0.94104091 
   50100    230.73135   -532.17703    132653.42   -40310.208    2870.7367   -43180.945    76.303363   0.94150225 
   50200    227.18778   -630.22166    132817.22   -40347.697     2826.648   -43174.345    76.393277   0.94034112 
   50300    234.14879   -576.91169    132706.49    -40331.27    2913.2562   -43244.526    76.584914   0.94112574 
   50400     228.4609   -666.22043     132601.5   -40361.422     2842.488    -43203.91    76.452303   0.94187089 
   50500    229.62205   -567.66638    132759.23   -40409.297    2856.9349   -43266.232    76.569914   0.94075182 
   50600    234.81298   -578.59184    132829.52   -40438.717    2921.5199   -43360.237    76.849207   0.94025401 
   50700    223.41078   -622.38591     132799.9   -40465.283    2779.6548   -43244.937    77.034683   0.94046377 
   50800    229.89372   -686.83578    132662.75   -40464.565    2860.3149    -43324.88    77.069508   0.94143604 
   50900    232.70013    -683.8982    132733.21   -40375.242     2895.232   -43270.474      77.1285   0.94093624 
   51000    230.78839   -661.26469    132654.92   -40415.763    2871.4463    -43287.21    77.256535   0.94149156 
   51100    226.04795   -633.46221    132472.36   -40458.052    2812.4662   -43270.518    77.049661   0.94278908 
   51200    224.32635   -670.79009    132492.58   -40431.153    2791.0463   -43222.199    77.370102   0.94264517 
   51300    227.74536   -699.20085    132509.99   -40490.668    2833.5852   -43324.254    77.531295   0.94252131 
   51400     227.1497   -585.73259    132403.29    -40486.25    2826.1741   -43312.425    77.484295    0.9432809 
   51500    228.40703   -403.01971    132507.58   -40484.825    2841.8177   -43326.642    77.908631    0.9425385 
   51600    229.16451   -604.45905    132549.84   -40431.277    2851.2421    -43282.52    78.027952   0.94223797 
   51700    230.23432   -586.96973    132624.98   -40422.056    2864.5527   -43286.609    78.090054   0.94170414 
   51800    222.56413   -727.32936    132467.77   -40461.089    2769.1209    -43230.21    78.337937    0.9428217 
   51900    229.44825   -607.91653    132408.07   -40496.891    2854.7725   -43351.663    78.227861   0.94324682 
   52000    223.30253   -648.87097    132380.39   -40505.702     2778.308    -43284.01    78.487814   0.94344407 
   52100    226.08257   -624.08705    132525.36   -40434.395    2812.8969   -43247.292    78.609043   0.94241202 
   52200    226.93028   -717.74497    132432.71   -40450.414    2823.4442   -43273.858    78.466964    0.9430713 
   52300    224.52877   -679.56416    132275.96   -40427.207    2793.5648   -43220.772     78.31945    0.9441889 
   52400    231.68565   -519.29837    132523.71   -40386.042    2882.6099   -43268.652    78.725323   0.94242374 
   52500     230.8062   -586.81178    132535.69   -40388.362    2871.6679    -43260.03    78.719441   0.94233859 
   52600    227.78861   -591.18801    132580.94   -40415.802    2834.1233   -43249.926    78.944681   0.94201693 
   52700    229.06412   -646.00154    132491.27   -40450.445    2849.9931   -43300.438    78.934842   0.94265446 
   52800    227.83717   -667.90781    132420.31   -40400.567    2834.7276   -43235.295    78.997823   0.94315964 
   52900    225.25353   -641.94322    132612.25   -40383.674    2802.5821   -43186.256    79.416877   0.94179454 
   53000     232.2148   -660.97633    132626.01   -40359.121    2889.1936   -43248.314    79.648821   0.94169684 
   53100    223.88394   -714.23545    132403.49   -40413.941    2785.5419   -43199.483     79.81559   0.94327942 
   53200    234.24195   -599.19516    132376.08   -40403.962    2914.4152   -43318.377    79.902704   0.94347477 
   53300    230.32237   -672.14526    132130.03   -40404.386    2865.6482   -43270.034    79.612519   0.94523169 
   53400    226.38067   -596.46387    132094.57   -40472.703     2816.606   -43289.309    80.075375   0.94548542 
   53500    225.71808   -491.35058    132076.15    -40474.65    2808.3621   -43283.012    80.180052   0.94561732 
   53600    228.71281   -538.96106    132044.82   -40462.175    2845.6222   -43307.798    80.240379   0.94584166 
   53700    222.96395   -428.70903    132153.68   -40472.122    2774.0954   -43246.217    80.385851   0.94506252 
   53800    231.78673    -539.5462    132266.37   -40345.757    2883.8676   -43229.624     80.38983   0.94425737 
   53900     226.1061   -572.47909    132360.55   -40401.297    2813.1897   -43214.486    80.411385   0.94358545 
   54000    231.42324   -551.70952    132362.49    -40370.83    2879.3451   -43250.175     80.24611   0.94357165 
   54100    229.05114   -568.96172    132292.45   -40398.714    2849.8316   -43248.545     80.61986   0.94407119 
   54200    231.33255   -421.96789    132137.34   -40369.559    2878.2167   -43247.776    80.500147    0.9451794 
   54300    231.29843    -617.7854    132213.99   -40344.422    2877.7922   -43222.215    80.840923   0.94463144 
   54400    227.83731   -578.20948     132329.3   -40371.564    2834.7293   -43206.293    81.120712   0.94380832 
   54500    229.83256   -565.66056    132337.48   -40356.416     2859.554    -43215.97    80.732233   0.94374998 
   54600    237.58205   -457.78065    132268.88   -40273.448    2955.9724   -43229.421    80.859627   0.94423944 
   54700    230.26704   -739.13402    132248.85   -40297.846    2864.9598   -43162.806    80.838238   0.94438244 
   54800     228.7821   -621.69971    132070.58   -40377.222    2846.4843   -43223.706    80.975937   0.94565718 
   54900    229.75795   -667.22771    132019.49   -40429.574    2858.6257   -43288.199    80.932748   0.94602313 
   55000    229.49038   -258.73352    132113.62   -40488.848    2855.2966   -43344.144    80.945589   0.94534908 
   55100    228.06668   -530.20816    132480.82   -40443.798     2837.583   -43281.381    81.131353   0.94272888 
   55200    223.93841   -618.98948    132228.09   -40464.678    2786.2196   -43250.897      81.1245   0.94453068 
   55300    229.70764   -618.30588    132094.01   -40418.028    2857.9998   -43276.028    81.404417   0.94548946 
   55400    231.81264   -512.14273     132131.1   -40381.932      2884.19   -43266.122    81.681055   0.94522402 
   55500    231.03627   -616.84994    132096.84    -40318.78    2874.5305    -43193.31    81.640707   0.94546918 
   55600    231.87886   -715.99456    132263.77   -40356.609    2885.0139   -43241.623    81.826081   0.94427589 
   55700    228.49441   -595.19726    132094.79   -40357.797    2842.9049   -43200.701    81.673965   0.94548386 
   55800    230.79656   -449.07464    132110.49     -40358.7     2871.548   -43230.248    81.718661   0.94537148 
   55900    231.64309   -444.62984    132338.26    -40315.07    2882.0804   -43197.151    81.895975   0.94374442 
   56000    227.51863   -488.90383     132235.5   -40321.931    2830.7643   -43152.695    82.062106   0.94447776 
   56100    231.35648   -676.58471    132039.85   -40302.702    2878.5144   -43181.216    82.313328   0.94587727 
   56200    234.07222   -504.54657    132121.39    -40307.44    2912.3034   -43219.744    82.553688   0.94529352 
   56300    228.21459   -598.20143    132289.26   -40332.118    2839.4234   -43171.541     82.70684   0.94409393 
   56400    229.05256    -596.0961    132276.38   -40314.413    2849.8494   -43164.263    82.582898    0.9441859 
   56500    230.55817   -710.10909    132220.81   -40410.283     2868.582   -43278.865     82.74234   0.94458269 
   56600    226.60555   -499.50144    132199.97   -40425.231    2819.4038   -43244.635    82.888421    0.9447316 
   56700    223.79022   -622.49137    132078.24   -40459.228    2784.3758   -43243.604    83.155354    0.9456023 
   56800    231.51636   -555.14342     132371.8   -40366.254    2880.5037   -43246.757    83.428595   0.94350525 
   56900    230.51252   -713.97283     132389.9   -40343.244     2868.014   -43211.258    83.408654   0.94337631 
   57000    233.99622   -574.35706    132305.95   -40301.436    2911.3578   -43212.794    83.272592   0.94397489 
   57100    235.21514   -693.12676    132369.83   -40371.939    2926.5235   -43298.462    83.394263   0.94351932 
   57200    233.77477   -575.22369    132219.49   -40437.766    2908.6026   -43346.368    83.667828   0.94459215 
   57300    230.07549   -524.79747    132305.66   -40507.058    2862.5765   -43369.634    83.590379   0.94397692 
   57400    225.14639   -599.37589    131999.65   -40517.819    2801.2491   -43319.068    83.702215   0.94616534 
   57500    221.07586   -715.82313    132147.17   -40556.687     2750.604   -43307.291    84.011946   0.94510912 
   57600    229.22008   -689.84996    132243.48   -40513.454    2851.9336   -43365.388    84.089092   0.94442075 
   57700    222.49537   -655.52109    132374.17   -40557.972    2768.2654   -43326.237    84.292346   0.94348838 
   57800    222.57234   -666.21705    132291.38   -40596.948    2769.2231   -43366.171    84.428372   0.94407886 
   57900    227.41539   -530.03967    132430.55   -40568.106    2829.4798   -43397.586    84.579353   0.94308672 
   58000    227.47796   -598.43215    132757.22   -40575.178    2830.2583   -43405.437    84.822407   0.94076607 
   58100    230.06905   -471.34265    132763.63   -40508.357    2862.4964   -43370.853    85.079645   0.94072065 
   58200    230.58926   -593.25948    132880.35   -40448.475    2868.9688   -43317.444    85.122373   0.93989438 
   58300    235.76195   -473.28987    132789.86   -40393.639    2933.3268   -43326.965    85.246614   0.94053485 
   58400    229.95007    -490.9965    132692.83   -40406.938     2861.016   -43267.954     85.04641   0.94122257 
   58500    237.01395   -714.21579    132699.54   -40412.667    2948.9041   -43361.571    85.396591   0.94117498 
   58600    228.92519   -538.11443    132617.01   -40378.471    2848.2646   -43226.736    85.516832   0.94176072 
   58700    235.03724   -580.89283     132514.5   -40371.388    2924.3101   -43295.698    85.546371   0.94248922 
   58800    228.93466   -651.11251    132458.41   -40412.825    2848.3824   -43261.208    85.733617   0.94288834 
   58900    229.42001   -701.47629    132539.47   -40470.545    2854.4211   -43324.966    85.943971   0.94231166 
   59000     230.6589   -383.86075    132362.51   -40441.189    2869.8353   -43311.024    85.617733    0.9435715 
   59100    227.68414   -509.16502    132788.55   -40441.376    2832.8236     -43274.2    86.012519   0.94054414 
   59200    231.30143   -602.09004       132680   -40460.115    2877.8295   -43337.944    85.693859   0.94131359 
   59300     231.3095    -682.1687    132611.15    -40455.09      2877.93    -43333.02    85.917374   0.94180235 
   59400    227.10005   -582.94329    132404.12   -40504.076    2825.5563   -43329.632    86.141829   0.94327497 
   59500    227.62493   -602.58518    132516.52   -40470.287    2832.0869   -43302.374    86.146373   0.94247488 
   59600    228.12584   -494.43036    132526.02   -40463.995    2838.3192   -43302.314    86.171418   0.94240732 
   59700    229.95979   -499.79441    132580.44   -40486.495     2861.137   -43347.632    86.277003   0.94202051 
   59800    227.15938   -668.08531     132659.8   -40481.863    2826.2945   -43308.157    86.451205   0.94145694 
   59900    229.16966    -625.0367    132637.73   -40464.616    2851.3062   -43315.922    86.602121    0.9416136 
   60000    231.48552   -538.11604     132509.9   -40501.947    2880.1199   -43382.067    86.812239   0.94252199 
   60100    227.88111   -627.23002    132837.66   -40448.653    2835.2742   -43283.927    87.129728   0.94019638 
   60200    229.57093   -609.48478    132797.54   -40435.913    2856.2988   -43292.212    86.839108   0.94048045 
   60300    231.31216   -564.78594     132801.1   -40397.907    2877.9631    -43275.87    86.992557   0.94045523 
   60400    230.47641    -697.4419    132856.06   -40359.433    2867.5647   -43226.998    87.170371   0.94006617 
   60500    229.22766   -623.47299    132682.47    -40394.08    2852.0278   -43246.108    87.264941   0.94129609 
   60600    227.14707    -529.0682    132847.28   -40438.195    2826.1414   -43264.337    87.542325   0.94012836 
   60700    227.96354   -552.22453    132688.64   -40450.438    2836.2998   -43286.738     87.78061   0.94125231 
   60800    232.00769   -570.42342    132734.32   -40401.724    2886.6168   -43288.341    88.046317   0.94092841 
   60900    232.41574   -685.52796    132848.79   -40388.894    2891.6937   -43280.587    88.137239   0.94011764 
   61000    233.99889   -615.09243    132629.39   -40436.839     2911.391    -43348.23     87.95828   0.94167283 
   61100     231.1827   -507.73238    132821.66   -40467.894    2876.3523   -43344.246    88.179788   0.94030966 
   61200    234.11502   -518.75833    132863.47   -40475.164    2912.8359       -43388    88.389914   0.94001378 
   61300    225.76138   -684.72041    132686.34   -40465.219    2808.9008   -43274.119    88.138383   0.94126867 
   61400    227.63167   -606.36382    132642.07   -40490.515    2832.1708   -43322.686    88.187754   0.94158281 
   61500    227.40521   -667.61696    132656.52    -40498.05    2829.3532   -43327.403    88.605089   0.94148026 
   61600    226.17609   -568.17235    132649.29   -40443.761    2814.0605   -43257.821    88.737097   0.94153155 
   61700     228.0532   -450.91751    132566.67   -40525.724    2837.4154   -43363.139    88.778408   0.94211832 
   61800    225.15436   -625.90858    132571.51   -40593.953    2801.3482   -43395.302    88.854549   0.94208394 
   61900    230.11779   -557.88127    132576.28   -40524.438    2863.1028   -43387.541    88.997091   0.94205005 
   62000    230.64351   -604.69396    132425.57   -40480.462    2869.6437   -43350.106    88.983585   0.94312215 
   62100    227.79809   -576.23796    132600.65    -40491.08    2834.2413   -43325.321    89.041433   0.94187688 
   62200    232.02831   -609.88323    132485.63   -40442.401    2886.8734   -43329.274    89.034845   0.94269462 
   62300    229.57283   -584.77084    132616.62   -40472.247    2856.3225   -43328.569    89.021183   0.94176348 
   62400    229.94046    -468.7447    132614.53   -40408.212    2860.8964   -43269.109    89.295697   0.94177832 
   62500     228.2844   -511.83014     132715.3   -40429.728     2840.292    -43270.02    89.396108   0.94106328 
   62600    230.07279   -495.57503    132855.61   -40446.127     2862.543    -43308.67    89.487098   0.94006937 
   62700     231.9384   -787.46768    132982.59   -40484.367    2885.7547   -43370.122    90.119676   0.93917175 
   62800    228.18974   -589.57295    132886.99   -40468.244    2839.1142   -43307.358    90.189431   0.93984741 
   62900    231.60028   -575.41966    132904.19   -40429.162    2881.5478    -43310.71    90.186712   0.93972576 
   63000    233.02181   -626.13431    132769.03   -40386.542    2899.2343   -43285.776    90.316012    0.9406824 
   63100    234.60475   -605.18503    132647.43   -40359.555     2918.929   -43278.485    90.167789   0.94154477 
   63200    231.73686   -515.06121    132537.71   -40390.124    2883.2471   -43273.371    90.464055   0.94232418 
   63300    232.39156   -578.82385    132609.17   -40423.718    2891.3928   -43315.111    90.452592   0.94181639 
   63400    230.68063    -717.1399    132660.63   -40338.185    2870.1057   -43208.291    90.592288   0.94145104 
   63500    228.65987   -581.89272    132593.53   -40425.201    2844.9635   -43270.165    90.680464   0.94192746 
   63600    230.40994   -498.12699    132619.99   -40418.574    2866.7377   -43285.312    90.902776   0.94173959 
   63700     229.5929   -712.12652    132397.12   -40433.045    2856.5721   -43289.617    91.129799   0.94332485 
   63800    224.54062   -621.91244    132320.97   -40548.993    2793.7122   -43342.705     91.01404   0.94386774 
   63900    225.49622   -660.87755    132523.65   -40529.315    2805.6017   -43334.917    91.331399   0.94242418 
   64000    226.85895   -833.64247     132509.4   -40519.493    2822.5566   -43342.049    91.650784    0.9425255 
   64100    228.75353   -464.66356    132548.85   -40429.187    2846.1288   -43275.316     91.67532     0.942245 
   64200    230.64162   -586.38485    132433.86   -40427.744    2869.6202   -43297.364    91.752189   0.94306313 
   64300    235.23238   -592.49336    132631.37   -40340.657     2926.738   -43267.395    92.201211   0.94165876 
   64400    234.15257   -490.45547    132355.78   -40368.795    2913.3031   -43282.099     92.08984   0.94361944 
   64500    235.86391   -724.09245    132436.57   -40360.319    2934.5955   -43294.915    92.393616   0.94304383 
   64600    231.17741   -593.34156    132496.76   -40445.789    2876.2865   -43322.075     92.04706   0.94261544 
   64700    229.32626   -579.24117       132464   -40467.978    2853.2547   -43321.233    92.056325   0.94284853 
   64800    226.95251    -860.3701       132501   -40494.851    2823.7207   -43318.572    92.115568   0.94258525 
   64900    230.73269   -474.94527    132388.75   -40475.386    2870.7533   -43346.139    92.157223   0.94338444 
   65000    231.52312   -575.59202    132586.01   -40452.415    2880.5877   -43333.003    92.544868    0.9419809 
   65100    230.24084   -672.87882    132583.25    -40482.73    2864.6338   -43347.364     92.54205   0.94200051 
   65200    230.87806   -685.16245    132616.75   -40494.155     2872.562   -43366.717    92.678552   0.94176258 
   65300    229.78543   -441.70304     132701.6   -40495.667    2858.9677   -43354.634    93.059928   0.94116037 
   65400    231.45779    -613.7728    132772.77   -40432.002     2879.775   -43311.777    93.130308   0.94065593 
   65500     228.0313   -675.62846    132658.45   -40490.807    2837.1429    -43327.95    92.628658   0.94146654 
   65600    225.41792   -503.22373    132825.36   -40511.119    2804.6275   -43315.746    92.569474   0.94028346 
   65700     228.6625   -654.34099    132862.85   -40570.165    2844.9962   -43415.161    92.953301   0.94001817 
   65800    228.11076    -387.7144    132876.91   -40574.167    2838.1315   -43412.298    93.013625   0.93991868 
   65900    231.29386   -508.50639    132869.97   -40559.709    2877.7353   -43437.444    93.315246   0.93996776 
   66000    231.46376   -603.85053    132960.59    -40454.54    2879.8492   -43334.389    93.530548   0.93932717 
   66100    233.47767   -555.21679    132895.37   -40386.997    2904.9061   -43291.903     93.63624   0.93978815 
   66200    230.74827   -590.10002    132998.71   -40344.339    2870.9471   -43215.286    93.101884   0.93905795 
   66300    225.72814   -510.31892    132893.86   -40377.107    2808.4872   -43185.594    93.453929   0.93979884 
   66400    229.13999   -542.75714    132855.59   -40428.532    2850.9372   -43279.469     93.64474   0.94006952 
   66500    227.83153   -543.34087     132893.2   -40452.235    2834.6573   -43286.892    93.730512   0.93980344 
   66600    234.30821   -741.55036    132910.27   -40466.513    2915.2396   -43381.752    93.847223   0.93968275 
   66700    230.47824   -689.23308    132955.77   -40506.256    2867.5875   -43373.844    94.105305    0.9393612 
   66800    227.86709   -573.95957    132816.18   -40434.341    2835.0998    -43269.44    94.013635   0.94034844 
[...]
   84600    227.67248   -466.69038    131954.52   -40495.103    2832.6785   -43327.782    114.13735   0.94648892 
   84700    227.53717    -549.6462    131978.75   -40507.003    2830.9949   -43337.998    113.98775   0.94631516 
   84800    229.49115    -643.1149    132033.17   -40469.578    2855.3062   -43324.885    114.30176    0.9459251 
   84900    233.02201   -590.54741    131996.88   -40467.823    2899.2368    -43367.06    114.54096   0.94618517 
   85000    232.03404   -702.57132    132007.67   -40415.319    2886.9446   -43302.264     114.7008   0.94610781 
   85100     235.9119    -852.9404    132261.18   -40435.592    2935.1926   -43370.785    115.13443    0.9442944 
   85200    231.80984   -680.26174    132134.46   -40463.226    2884.1551   -43347.381    115.22049   0.94519996 
   85300    226.53924   -547.91444    132191.66   -40505.114    2818.5789   -43323.693    115.38593   0.94479098 
   85400    223.93405   -674.88528    132423.11   -40483.157    2786.1653   -43269.323    115.58401   0.94313968 
   85500    230.39938   -603.63099    132406.53   -40441.968    2866.6063   -43308.575    115.84338   0.94325782 
   85600    229.06834    -601.1596    132341.97   -40409.905    2850.0457   -43259.951    115.86016   0.94371793 
   85700    228.02461   -657.98674    132337.06   -40445.091    2837.0597   -43282.151     115.7436   0.94375293 
   85800    229.48722   -672.85879    132303.56   -40443.426    2855.2573   -43298.684    115.64522   0.94399191 
   85900    230.29616   -534.65373    132190.99   -40352.793     2865.322   -43218.115    115.70805   0.94479582 
   86000    233.69343   -396.83908    132302.02   -40401.353    2907.5905   -43308.944    115.69246   0.94400289 
   86100    228.04009   -653.04012    132359.74   -40391.157    2837.2523   -43228.409    116.16172   0.94359121 
   86200    235.91925    -479.8375    132349.33   -40374.424     2935.284   -43309.708    116.39107   0.94366543 
   86300    235.39507    -575.8446    132509.65       -40415    2928.7622   -43343.762    116.92191   0.94252373 
   86400    230.81901   -800.65129    132411.16   -40449.309    2871.8273   -43321.136    116.75661   0.94322483 
   86500     229.6856   -491.06848    132400.86   -40418.321    2857.7255   -43276.047    116.81883   0.94329821 
   86600    231.02106   -562.38911    132331.07   -40364.451    2874.3411   -43238.792     117.0155   0.94379567 
   86700    237.73032   -578.09727     132383.6   -40342.342    2957.8171   -43300.159    117.52518   0.94342116 
   86800    233.54001   -704.72495    132380.79   -40420.595    2905.6817   -43326.276    117.44123   0.94344118 
   86900    232.38621   -507.19088    132381.57   -40384.166    2891.3263   -43275.492    117.40177   0.94343563 
   87000    231.99232   -602.61323    132360.39   -40384.317    2886.4256   -43270.743    117.55203   0.94358661 
   87100    225.79427   -625.03683    132204.12   -40428.128      2809.31   -43237.438    117.46346   0.94470194 
   87200     227.2267   -702.64511    132075.58   -40411.876    2827.1321   -43239.008    117.59075   0.94562137 
   87300    230.04027   -563.42218     132148.7   -40418.592    2862.1382    -43280.73    117.73244   0.94509813 
   87400    229.83663   -410.98739    132045.86   -40433.952    2859.6047   -43293.556    117.75944   0.94583424 
   87500    229.62204   -557.45771    132226.87   -40452.923    2856.9348   -43309.858    117.65985   0.94453945 
   87600    224.69367   -776.48873    132274.03   -40440.466    2795.6165   -43236.082    117.53557   0.94420268 
   87700    229.51721   -551.38778    132138.98   -40436.967    2855.6304   -43292.597    117.50844   0.94516769 
   87800    228.46961   -694.32085    132023.72   -40398.219    2842.5964   -43240.816    117.78306   0.94599285 
   87900    227.50933   -593.00274    132009.57   -40411.443    2830.6486   -43242.091    118.02822   0.94609419 
   88000    230.14253   -502.57418    132250.47   -40426.812    2863.4106   -43290.223    118.25435    0.9443709 
   88100    234.41612   -765.54447     132410.7   -40361.162    2916.5822   -43277.744    118.49489   0.94322812 
   88200    238.23215   -683.23203    132287.26   -40335.249    2964.0608    -43299.31     118.2927    0.9441082 
   88300    229.74224   -622.03542    132125.61   -40375.591    2858.4302   -43234.021    118.38978   0.94526333 
   88400    224.34948   -578.90234    132384.06   -40476.169     2791.334   -43267.503    118.79529   0.94341791 
   88500    232.46814   -642.62482    132459.69    -40383.29    2892.3456   -43275.636    118.82731   0.94287922 
   88600    229.41233   -669.94635    132497.98   -40327.291    2854.3255   -43181.617    119.28884   0.94260677 
   88700    229.16169   -492.46473     132363.5   -40322.832    2851.2071   -43174.039    119.18137    0.9435644 
   88800    231.64758   -663.09721    131999.29   -40256.362    2882.1362   -43138.498    119.12473    0.9461679 
   88900    231.03265   -707.20025     132088.1   -40284.824    2874.4854    -43159.31    119.58731   0.94553172 
   89000    230.32705   -537.96194    132214.83    -40267.79    2865.7064   -43133.496    119.64606   0.94462542 
   89100    223.67828   -776.07103    132149.54   -40364.207    2782.9831    -43147.19    119.72924   0.94509212 
   89200    224.77177     -717.669    132093.62   -40391.456    2796.5881   -43188.044    119.94892   0.94549226 
   89300    232.02841   -531.83076    132038.76   -40411.467    2886.8745   -43298.342    119.76682   0.94588505 
   89400    225.10983   -644.27222    132063.12   -40446.697    2800.7942   -43247.491    120.10499   0.94571056 
   89500    226.42759   -491.79831     132107.9   -40473.894    2817.1896   -43291.084    120.32061   0.94539005 
   89600    224.16473   -418.06402    132188.22   -40527.349    2789.0354   -43316.384    120.41551   0.94481557 
   89700    224.99976   -568.35028    132381.45   -40486.815    2799.4248    -43286.24    120.35737   0.94343651 
   89800    230.86004   -635.50939    132395.96   -40449.099    2872.3378   -43321.436    120.61647   0.94333308 
   89900    227.15642   -406.51178    132393.03   -40523.301    2826.2578   -43349.559    120.68247   0.94335396 
   90000    233.69976   -640.97738    132453.52   -40446.651    2907.6693    -43354.32    120.82027   0.94292314 
   90100    228.68873   -586.74398    132407.32   -40466.866    2845.3225   -43312.189     120.9556   0.94325214 
   90200    226.93365   -569.12572    132391.55   -40516.585    2823.4861   -43340.071    120.91163   0.94336451 
   90300    229.85109   -598.34798    132647.54   -40537.095    2859.7845    -43396.88    121.16036   0.94154395 
   90400    227.91115   -545.37283    132621.39   -40533.014     2835.648   -43368.662    121.40197    0.9417296 
   90500    230.60805   -518.81208    132559.61   -40499.196    2869.2025   -43368.398    121.42594    0.9421685 
   90600    232.55967   -696.87143    132538.74   -40399.307    2893.4845   -43292.791    121.74859    0.9423169 
   90700    232.42869   -552.50059    132655.91    -40403.58    2891.8548   -43295.435    122.17411   0.94148454 
   90800    229.56103   -548.01797    132706.54   -40442.186    2856.1757   -43298.362    122.20795    0.9411254 
   90900    226.28462   -643.79402     132547.4    -40549.82    2815.4108   -43365.231    122.27216   0.94225532 
   91000    227.36152   -551.83239    132461.82   -40564.293    2828.8096   -43393.102    122.36672   0.94286408 
   91100    225.42702   -746.48902    132524.84   -40548.331    2804.7407   -43353.071    122.26593    0.9424157 
   91200    225.50103   -376.78285     132784.6   -40505.453    2805.6615   -43311.115    122.65846   0.94057208 
   91300    227.82995   -612.10856    132602.47   -40399.047    2834.6377   -43233.684    122.67703     0.941864 
   91400    231.99223   -748.78469    132780.53   -40363.226    2886.4244    -43249.65    122.96853   0.94060094 
   91500    231.29917   -495.24132    132695.19   -40360.583    2877.8014   -43238.385    122.74483   0.94120584 
   91600    228.50528   -579.82158    132729.84   -40408.411    2843.0401   -43251.451    122.71522   0.94096016 
   91700    230.07747   -594.48159    132661.04   -40495.429    2862.6011   -43358.031    122.61788   0.94144818 
   91800    228.44391   -551.96403    132617.83   -40454.575    2842.2765   -43296.851    122.80005   0.94175493 
   91900    225.64358   -420.05242    132712.54   -40442.606    2807.4351   -43250.041    123.23991   0.94108279 
   92000    230.07649   -565.80299     132748.8   -40446.426    2862.5889   -43309.015    123.33283   0.94082575 
   92100    228.65676   -584.18119    132929.54   -40487.977    2844.9248   -43332.902    123.39895   0.93954658 
   92200    228.05098   -800.44239     132716.1   -40430.459    2837.3878   -43267.847     123.4469   0.94105759 
   92300    233.16206   -695.40863    132688.84   -40335.079    2900.9793   -43236.059    123.55608   0.94125087 
   92400     230.4462   -649.60881    132460.94   -40331.893    2867.1889   -43199.082    123.58204   0.94287037 
   92500    227.84736   -554.40391    132370.45   -40389.382    2834.8543   -43224.237    123.51236   0.94351489 
   92600    231.09073   -618.33026    132184.33   -40349.895     2875.208   -43225.103    123.36294   0.94484337 
   92700    232.26171   -457.96653    132554.49   -40343.245    2889.7772   -43233.023    123.79668   0.94220492 
   92800    231.27062   -750.22716    132583.54   -40403.685    2877.4462   -43281.132    124.03974    0.9419985 
   92900    232.30887   -557.60087    132551.08   -40370.254     2890.364   -43260.618    123.98324   0.94222918 
   93000    233.75879   -589.33401    132709.24   -40395.721    2908.4038   -43304.125    123.96587   0.94110621 
   93100    232.46368   -609.70541    132816.26   -40342.492    2892.2901   -43234.782    124.22547   0.94034792 
   93200    237.32483   -397.04749    132778.54   -40368.366    2952.7721   -43321.138     124.0221     0.940615 
   93300    233.32833   -704.44412    132706.01   -40394.021     2903.048   -43297.069    124.14568   0.94112915 
   93400     226.3528   -649.50059    132528.07   -40424.886    2816.2591   -43241.145    124.18178   0.94239275 
   93500    226.31078   -488.59426    132561.49   -40460.215    2815.7363   -43275.951    124.29394   0.94215517 
   93600    225.84234   -642.37257    132464.07   -40529.724     2809.908   -43339.632    124.66912   0.94284808 
   93700    231.93778   -479.58996    132599.36   -40485.623    2885.7469    -43371.37    124.74158   0.94188605 
   93800    229.01169   -580.23996    132596.57    -40443.37    2849.3408    -43292.71    124.79064   0.94190591 
   93900    229.43384   -572.72866     132698.2   -40410.752    2854.5932   -43265.345     124.9546   0.94118451 
   94000    230.52159   -569.90964    132630.45   -40423.695    2868.1269   -43291.822    124.89279   0.94166526 
   94100    229.11673   -671.02565    132385.56   -40413.978    2850.6477   -43264.626    124.83386   0.94340722 
   94200    229.14359   -825.41541    132268.47   -40387.473    2850.9819   -43238.455    124.98018   0.94424232 
   94300    231.08497   -711.04015    132196.78   -40326.957    2875.1363   -43202.094    124.83881   0.94475442 
   94400    229.94322   -544.03495    132235.45   -40308.676    2860.9308   -43169.607    124.88033   0.94447816 
   94500    234.73706     -654.412    132355.09   -40232.211    2920.5753   -43152.786    125.55276   0.94362442 
   94600    235.07466   -606.17141    132237.21   -40272.547    2924.7757   -43197.323     125.6285   0.94446556 
   94700    232.95461   -836.96716    132197.66   -40333.806    2898.3983   -43232.204    125.49882   0.94474815 
   94800    228.71229   -512.00971    132156.22   -40330.317    2845.6156   -43175.933     125.6182   0.94504436 
   94900    231.03651   -550.65567    132259.72   -40284.465    2874.5334   -43158.999    125.71821   0.94430483 
   95000    231.17345   -648.01033    132016.58   -40271.977    2876.2372   -43148.215    125.47063   0.94604395 
   95100    234.46593   -676.42794    132135.07   -40281.844    2917.2019   -43199.046    125.61109   0.94519563 
   95200    233.97761   -613.10403    132023.83    -40310.51    2911.1263   -43221.636    126.04779   0.94599204 
   95300    235.61306   -552.15127    132115.67   -40214.042    2931.4744   -43145.517    126.09956   0.94533442 
   95400    233.10705   -633.00575    132221.59   -40285.436    2900.2949   -43185.731    126.10255   0.94457715 
   95500    231.09121   -633.63025    132085.84   -40310.905     2875.214   -43186.119     125.8999   0.94554793 
   95600    231.15594    -577.0991    132216.71   -40294.635    2876.0194   -43170.655    125.90169   0.94461201 
   95700    229.04191   -664.26229    132252.06   -40349.698    2849.7168   -43199.415    125.86258   0.94435948 
   95800    227.88232   -630.79986    132282.03   -40387.276    2835.2894   -43222.565    125.44698   0.94414553 
   95900    230.72804   -627.84974     132228.8   -40337.905    2870.6954   -43208.601    126.01719   0.94452563 
   96000     227.4211   -544.90669     132485.1   -40410.095    2829.5508   -43239.646     126.5572   0.94269839 
   96100     228.1047   -715.43077    132501.52   -40371.775    2838.0561   -43209.831    126.80162   0.94258154 
   96200    227.48097   -491.48942    132373.37   -40404.717    2830.2958   -43235.012    126.72279   0.94349406 
   96300    233.54581   -557.22343    132590.76   -40354.704    2905.7538   -43260.458    126.88651   0.94194716 
   96400    233.53223   -521.37915    132611.19   -40336.655     2905.585    -43242.24    127.28295   0.94180202 
   96500    230.82805    -656.1976    132628.47   -40400.443    2871.9398   -43272.382    127.35834   0.94167938 
   96600    229.16296   -693.46856    132778.07   -40400.736    2851.2229   -43251.959    127.74331   0.94061837 
   96700    227.07384   -649.78674    132829.11   -40482.506    2825.2302   -43307.736    128.06651   0.94025691 
   96800    223.12273   -677.24594    132608.87   -40522.449     2776.071    -43298.52    127.93061   0.94181855 
   96900    226.33358   -655.59457     132657.7   -40434.742      2816.02   -43250.762    128.28368   0.94147183 
   97000    225.69537   -473.75154    132768.34   -40417.035    2808.0795   -43225.114    128.72358    0.9406873 
   97100    225.20616   -695.43515    132627.31   -40413.006    2801.9928   -43214.999    128.46699    0.9416876 
   97200    227.42157   -573.45601    132767.38   -40424.506    2829.5567   -43254.063    128.25491   0.94069412 
   97300    231.27148    -625.9161    132680.17   -40425.494    2877.4569   -43302.951    128.01949    0.9413124 
   97400    224.65872   -624.18769     132667.1   -40430.797    2795.1816   -43225.979    128.15446   0.94140514 
   97500    232.60094   -635.65812    132760.91   -40330.893    2893.9979   -43224.891    128.52632   0.94073995 
   97600    226.30092   -724.86896    132775.01   -40399.698    2815.6137   -43215.312    129.00901   0.94064006 
   97700    230.11791   -684.66032     132606.4   -40345.856    2863.1042    -43208.96     128.9763   0.94183607 
   97800    232.69294   -376.36807    132628.85    -40312.13    2895.1426   -43207.272    129.03057   0.94167663 
   97900    235.24794   -611.53565    132759.28   -40269.278    2926.9317    -43196.21    129.15913   0.94075149 
   98000    230.88221   -574.70346    132656.77   -40291.503    2872.6137   -43164.116    129.09502   0.94147846 
   98100    228.37072   -740.20747     132531.6   -40376.098    2841.3659   -43217.464     129.0468   0.94236762 
   98200    228.69138    -590.9745    132428.02   -40345.472    2845.3555   -43190.828    129.13588   0.94310471 
   98300     229.8373   -677.79249     132597.9   -40367.917    2859.6129    -43227.53    129.19568   0.94189646 
   98400    228.21864   -572.69789    132482.93   -40372.777    2839.4738   -43212.251    129.20829   0.94271382 
   98500     225.5063   -594.88418    132515.69   -40383.186     2805.727   -43188.914    129.16042   0.94248078 
   98600    228.53737   -397.79524    132525.58    -40405.64    2843.4394   -43249.079    129.08721   0.94241045 
   98700    225.61404   -635.20615    132496.55   -40457.957    2807.0676   -43265.024    129.55671   0.94261696 
   98800    228.51996    -633.9566    132221.83   -40424.937    2843.2228    -43268.16    129.29632    0.9445754 
   98900    227.82507   -592.73655    132251.02   -40425.192     2834.577   -43259.769    129.53926   0.94436695 
   99000     222.6561    -701.7891    132306.21   -40461.663    2770.2652   -43231.928    129.80495   0.94397304 
   99100    229.23845   -844.39145    132216.52   -40377.897    2852.1621   -43230.059    129.69287   0.94461338 
   99200    222.94392   -724.01053    132407.21   -40342.573    2773.8462   -43116.419    129.92806   0.94325293 
   99300    229.82545   -596.13469    132170.23   -40293.877    2859.4656   -43153.343    129.96376   0.94494417 
   99400    227.94281   -531.43628    132144.91   -40250.226    2836.0419   -43086.268    129.79509   0.94512526 
   99500    235.24629   -691.56232    131910.23   -40121.369     2926.911    -43048.28    129.59894   0.94680674 
   99600    235.24246   -727.28837    131950.01   -40125.873    2926.8635   -43052.736    129.59768   0.94652124 
   99700    233.22448   -492.45803    131829.67   -40129.691     2901.756   -43031.447    129.77125   0.94738526 
   99800    233.32465   -614.62001    131919.15   -40140.222    2903.0023   -43043.225    130.31424   0.94674266 
   99900    231.17922   -569.92162    131980.23    -40191.28     2876.309   -43067.589    130.63602   0.94630452 
  100000    232.91743   -524.40155    131898.73   -40215.032    2897.9357   -43112.968    130.71824   0.94688923 
  100100    231.27842   -494.25289    132038.73   -40154.399    2877.5432   -43031.942     131.0238   0.94588528 
  100200    233.40838   -637.25144    131971.16   -40165.903     2904.044   -43069.947    130.97775   0.94636961 
  100300    236.09467   -620.66205    132102.71   -40165.164    2937.4666   -43102.631     130.7481   0.94542717 
  100400    233.47589   -708.73634    131999.39   -40207.455     2904.884   -43112.339    130.70486   0.94616717 
  100500    232.94599   -669.74211    132083.49   -40118.569     2898.291    -43016.86    131.31149   0.94556474 
  100600    228.88434   -525.88665    132140.91   -40197.916    2847.7563   -43045.672     131.2926   0.94515388 
  100630    229.67402   -798.24907    132111.01   -40181.021    2857.5815   -43038.603    131.30604   0.94536778 
Loop time of 82.8357 on 6 procs for 100000 steps with 4175 atoms

Performance: 521.514 ns/day, 0.046 hours/ns, 1207.209 timesteps/s
98.2% CPU use with 6 MPI tasks x no OpenMP threads

MPI task timing breakdown:
Section |  min time  |  avg time  |  max time  |%varavg| %total
---------------------------------------------------------------
Pair    | 64.65      | 66.502     | 69.125     |  16.6 | 80.28
Neigh   | 5.3244     | 5.3594     | 5.4379     |   1.6 |  6.47
Comm    | 5.5708     | 8.2901     | 10.18      |  48.6 | 10.01
Output  | 0.164      | 0.16492    | 0.16925    |   0.5 |  0.20
Modify  | 1.7964     | 1.8099     | 1.8233     |   0.6 |  2.18
Other   |            | 0.7092     |            |       |  0.86

Nlocal:        695.833 ave         712 max         679 min
Histogram: 1 1 0 0 0 1 2 0 0 1
Nghost:        1462.33 ave        1469 max        1453 min
Histogram: 1 0 0 1 1 0 1 0 0 2
Neighs:        0.00000 ave           0 max           0 min
Histogram: 6 0 0 0 0 0 0 0 0 0
FullNghs:      19178.3 ave       19867 max       18595 min
Histogram: 1 1 0 0 2 0 0 1 0 1

Total # of neighbors = 115070
Ave neighs/atom = 27.561677
Neighbor list builds = 5740
Dangerous builds = 0

undump              1
unfix               2
unfix               3
unfix               4


################################################
#######         Run Simulation         #########
################################################

reset_timestep      0
log                 log.run_${NAME}
log                 log.run_liquid_density_MLmW
