LAMMPS data file via write_data, version 29 Oct 2020, timestep = 800000

4175 atoms
1 atom types

-0.5754258217902652 50.57542582178863 xlo xhi
-0.5754258217902652 50.57542582178863 ylo yhi
-0.5754258217902652 50.57542582178863 zlo zhi

Masses

1 18.015

Atoms # atomic

2119 1 2.2323780600265493 0.9685561976407395 1.265061771038112 0 1 0
1767 1 4.757667032338142 1.916016769941483 0.16411342646217908 0 0 1
2759 1 6.908470042469202 0.3728289894762218 0.5541834560351782 0 1 0
474 1 9.153832682981893 1.7879001252451792 0.8514599319743845 0 0 0
584 1 11.759502439458519 0.4427139835481919 0.7191833465963389 0 0 0
1358 1 14.08420831738474 1.9395675927865352 0.5154447210821669 0 0 0
1452 1 12.42706265863891 14.321822503708955 -0.17727520154003434 0 0 1
1594 1 23.839514711469867 1.7022581605744618 1.2279594078782816 0 0 1
1866 1 28.39338511386471 1.546743934421893 0.1168592291612075 0 0 1
206 1 33.099059180946284 -0.21833677741897284 1.6156198597845366 0 0 0
3165 1 36.86812194669663 1.800710572405019 1.315858568271424 0 1 0
1072 1 39.28021970310756 1.5651523464441999 2.8431678006012318 0 0 0
361 1 42.122431762555905 2.226239801673799 3.3575625441112726 0 0 0
2447 1 47.0682995683668 0.6354144064648113 1.2158214995326915 -1 1 0
2963 1 48.65878423077329 24.857972138323913 11.742031056147905 0 0 0
3931 1 31.45595944595613 24.78717075531042 10.953976016162255 0 0 1
216 1 4.929016505799528 4.716301445219757 0.3994809702453276 0 0 0
1828 1 19.239768709381707 3.347009233252099 0.744950138571896 0 0 1
708 1 21.386638222725594 2.867204284697926 2.237740205223791 0 0 0
3702 1 24.958407213192174 5.403696156493882 1.6955406571339848 0 1 1
1489 1 28.186465840032316 5.501714033797167 1.9434868802628285 0 0 1
2593 1 28.447163629914876 2.730960286100609 2.6179432105572302 0 1 0
2360 1 32.569526218985374 2.563409565648192 1.1088019577513917 0 1 0
1745 1 35.04411216069407 3.7966936767261927 0.3454774058486606 0 0 1
2013 1 39.200174157888014 4.268396740929194 2.751247791216567 -1 0 1
1062 1 39.58241158516918 5.29649652801419 0.0781929158381568 -1 0 0
1505 1 43.52553713104383 3.2828477424338582 1.0168936729071816 -1 0 1
20 1 44.776660590089435 5.6674751378966475 1.0803319604351846 0 0 0
1906 1 49.82338034335869 4.113800515994399 0.467255955620969 0 0 1
202 1 48.31820553158818 3.0409645021218066 2.438321918645847 0 0 0
3654 1 -0.08151735784441128 6.6556750474664055 0.701060746733565 1 1 1
3836 1 2.5321351236795646 6.324382601918948 1.0942874836282452 0 1 1
1939 1 5.992293963798457 6.454934331414259 2.8251285938200565 1 0 1
427 1 1.013693694058458 24.831993274765587 14.931962857618252 0 0 0
493 1 9.955439545904003 6.4006128088543965 0.8774247612417752 0 0 0
352 1 12.67314036817502 6.099803925503656 1.5527250031559054 0 0 0
330 1 13.430020002136766 8.59085175183447 0.29769184551736827 0 0 0
143 1 17.856153854097013 8.223350169455205 1.2091703843056563 0 0 0
1718 1 20.437424020482723 7.87763316816754 0.14427187590854296 0 0 1
1952 1 22.239478004596577 7.989812990871888 2.2842254629256913 0 0 1
2274 1 29.480323609618615 6.429878335754411 -0.2946451120056319 0 1 0
571 1 30.85075648738524 8.863783323429944 0.2570591179960512 0 0 0
3939 1 34.91315083767678 6.627164551830944 1.529650670416363 0 1 1
1842 1 32.9755684788022 8.715202527179466 1.7856133449508804 0 0 1
1832 1 40.720943239484285 7.651791623328506 0.4630157329454454 0 0 1
224 1 42.781491512381464 7.20359084853775 2.263195039139104 0 0 0
1806 1 47.165614659494 8.568587535321337 -0.10629540744178567 -1 0 1
38 1 48.987826383332305 8.218858882235038 1.8298071040312265 -1 0 0
2040 1 0.1948965760628325 11.6621436207421 0.466940869346294 1 0 1
595 1 2.427079305511826 11.068365550312702 2.2213607615454003 0 0 0
278 1 3.9929393687930625 8.923719056087899 1.5538627748035951 0 0 0
323 1 7.355764524983425 10.704575635801524 0.3857066019488805 0 0 0
183 1 10.513325649549321 10.274313326941266 1.8102733478089292 0 0 0
2249 1 13.207830116277748 10.499007965700278 2.0974082652699844 0 0 0
2256 1 17.881278555028818 10.86189783388244 2.0882452401823497 0 0 0
1408 1 21.884202204518157 12.607188547099287 1.2900323461824594 0 0 1
1770 1 24.95012236892901 8.7948022468177 1.3569593024195652 0 0 1
1787 1 24.208400765463878 11.405152117623134 1.9964617250517476 0 0 1
1096 1 42.283182026065944 24.774074919420034 13.92171348469723 0 0 0
660 1 29.250415774726797 11.004768959556136 1.0060177669130668 0 0 0
2015 1 35.21229679119149 11.937658158637209 0.9102181161516412 0 0 1
2667 1 14.291954914185546 4.549960507760214 -0.3536840224744058 0 1 0
462 1 39.101694737011 9.776635910972875 1.6117966371552015 0 0 0
1668 1 40.73016715626086 11.995710065977736 2.3325646160158495 0 0 1
2087 1 45.30875822343761 10.531834139026978 0.9916651940492169 0 0 1
1455 1 50.486563283935396 14.101729272369974 -0.19723434222742087 -1 0 1
398 1 3.888116855102205 13.550577864952364 1.7056316323325338 0 0 0
477 1 8.14319579640658 14.631182246400279 1.4273880599832696 0 0 0
63 1 1.6864657046812859 24.82055792858285 10.410314531950542 1 0 0
169 1 14.066483325370037 13.270353366735849 1.7366983532316347 0 0 0
1547 1 31.65326846005551 14.087854471271111 -0.23350627373898886 0 0 1
3468 1 16.409429225438227 13.226581344066522 0.5745209994295122 0 0 0
2569 1 21.807677136636066 15.13826723245038 1.7552222600909881 0 0 0
3923 1 23.56952442221288 18.140442553970477 -0.3135080902142548 0 0 1
342 1 25.38268827379705 12.829991481850712 0.029292861476182375 0 0 0
239 1 30.836894615821596 12.88224788785809 1.9120902261897998 0 0 0
129 1 48.13735503982639 -0.14240378010579935 9.354940492510915 -1 0 0
1596 1 37.01450521677707 14.057824473919066 1.5776510592152153 0 0 1
458 1 42.12752927692483 12.97240113930068 -0.08852403607632636 -1 0 0
1688 1 43.19949182634102 15.323538007828228 0.8784025534234821 -1 0 1
1956 1 46.78042406779072 12.834842575908576 1.564047045431154 -1 0 1
553 1 45.052498157331655 14.790430068807483 2.716850447906433 0 0 0
1589 1 0.02653153680998388 1.7938806179282092 -0.31516992584992326 0 0 1
292 1 0.14172122299668422 15.994237209761966 1.745413970005027 1 0 0
2188 1 2.840022833636388 15.908721038277402 2.084206172248691 0 0 0
1831 1 4.329034796290025 17.425392359930328 0.27784472103224733 1 0 1
1794 1 7.089678326848187 17.470516618676616 0.7261420850229836 0 0 1
2556 1 11.312562242908243 17.25543586597502 3.4305231698839673 0 0 0
92 1 27.099387938267753 -0.2944489727729831 8.538876181089083 0 0 0
108 1 6.028158301127106 24.456578084321393 4.134390712770679 1 0 0
518 1 15.384679105811482 18.06916385824477 1.330033018412936 0 0 0
444 1 41.782235307508756 15.90013976993486 16.155282045379355 0 0 0
2541 1 25.31591829388387 17.150375247458285 1.6079754983552443 0 0 0
2459 1 26.475972320303384 14.834027066049392 1.3637112220314216 0 0 0
1118 1 31.42040491062535 18.43337483932824 1.2279014018456311 0 0 0
488 1 33.250260381720565 16.439438525916444 0.3162516453642701 0 0 0
2197 1 35.3666711447799 16.423246975441405 2.0679820457770925 0 0 0
322 1 41.2381134099483 17.15501396162518 1.599583854440361 0 0 0
1766 1 15.865807976769062 -0.04122078887971192 3.9975214972632216 0 0 1
252 1 47.714770115900706 18.080821127258048 1.110298191031915 0 0 0
286 1 50.28808785508242 18.777656677281 1.8153696811440065 -1 0 0
2300 1 22.652264265881907 0.05280751910574688 5.538153258421846 0 1 0
547 1 3.760936368084548 21.3918268077652 2.281810979657628 0 0 0
4171 1 3.204406453720478 19.92588495714013 0.25399714837045473 1 0 1
298 1 10.855612369020555 20.501681181284948 2.4254668877069925 0 0 0
2810 1 43.306705767385196 24.62188207927957 2.1175390143735626 0 0 0
4089 1 16.691630248080564 20.402727364584834 1.7382975285964446 0 0 1
175 1 21.35593639475151 19.448322122225772 0.9972503139498212 0 0 0
694 1 26.528912944329388 19.3342565935569 2.4960200994517505 0 0 0
2154 1 43.14246321577866 -0.452546365162875 4.012529501355728 0 1 0
3509 1 27.581307586115486 20.812240582004005 0.3965768126150043 0 0 1
1656 1 32.71347800028718 20.728608588270916 2.304498309452747 0 0 1
2440 1 33.58102754040381 21.841041540222204 0.09786038744181591 0 0 0
503 1 37.50725565397039 19.803256535581973 0.737149585632527 0 0 0
469 1 38.896261618263466 22.12427766746153 1.8990719280952564 0 0 0
436 1 43.85113167604712 20.676554267641365 0.7065515178176223 0 0 0
346 1 42.636552953945014 19.19541573801212 2.822283721730417 0 0 0
266 1 46.56622717611663 20.696829466453494 0.9923830676633321 0 0 0
2389 1 -0.18578053290973617 23.419390863121336 1.3256245367334123 1 0 0
4071 1 2.5401562951016308 23.806206348366082 1.7039405593837307 0 0 1
513 1 7.865649275211682 23.010701805134417 0.49022800658148347 0 0 0
520 1 6.650218266413624 22.074259604486514 2.622962566451232 0 0 0
2500 1 10.595214721314305 22.750831377999596 0.688150908695927 0 0 0
857 1 14.237282540778182 23.803366500550027 1.3062510387166075 0 0 1
2818 1 19.47056246044724 23.74434040508022 0.2212102133547218 0 0 0
2579 1 21.46741134598154 22.112304955792986 1.0303620660504758 0 0 0
4137 1 29.08064226586832 22.998586715624892 1.243095297313298 0 0 1
2319 1 34.79774718370618 24.012891950251504 0.7241928104812851 0 0 0
487 1 49.3510832690186 -0.3180569321589765 -0.3125615361493512 0 0 0
261 1 42.749570251419854 23.07700468324233 0.006523842678841318 0 0 0
1756 1 1.3111657404722965 2.1094108770360167 3.9802982573218024 1 0 1
2624 1 3.275949824651955 0.921697681130003 5.587835375171452 1 1 0
2192 1 5.907941555612682 0.649623145481423 4.769457506539176 0 1 0
494 1 6.162595398802946 2.5863265631890524 2.8975741390504046 0 0 0
31 1 11.070197022546191 1.398635917690751 4.564753907748897 0 0 0
2588 1 45.243201311615806 1.504072544173944 -0.40050952898499226 0 1 0
2959 1 25.718407623084712 24.386393629827836 7.0317426970353685 0 0 0
61 1 15.153554861407786 2.472055823592013 2.862795499648781 0 0 0
431 1 20.451125587129507 1.160318257672049 4.095815701066134 0 0 0
388 1 45.77396135077409 0.478457385727187 16.40898626731447 0 0 0
3791 1 25.385180438328124 0.841191307779136 5.124033835608735 0 1 1
174 1 30.697458905646265 2.186413776506784 3.991924968093177 1 0 0
2722 1 34.38035072902154 -0.1942624283543174 7.1277935143337805 0 1 0
233 1 35.541529622784566 0.21337235337582983 2.8913076011952636 0 0 0
2435 1 35.580893110673216 1.5276424921606324 5.337037621813748 0 1 0
730 1 38.299498162874286 1.0390641006347445 5.336727515313913 0 0 0
2507 1 3.2337871757361225 -0.49461146992527466 16.371959744519334 0 1 0
597 1 49.49777024255155 1.6546315277957961 4.574125768301695 0 0 0
1464 1 2.229902011356329 4.533028612672362 3.47227496148676 0 0 1
1026 1 4.970137174871041 4.465773937164862 4.3130777320072555 0 0 0
226 1 8.897438708702213 5.886480447094181 3.3450917599547667 1 0 0
1638 1 8.937998142817932 3.060078074114598 3.3974055147404307 0 0 1
2068 1 13.389753991953631 2.5295330655495647 5.171718906387264 0 0 1
696 1 17.44695084178909 3.819520568736598 2.9142641062372263 0 0 0
1898 1 18.81234481208633 3.1696472291776385 5.3792518534950355 0 0 1
1420 1 21.847388915639264 5.32917844305289 3.3295764416206293 0 0 1
1716 1 21.015121087039486 4.882804490636919 5.939954558819921 0 0 1
113 1 25.654916508941238 2.785962368282948 2.8826038541427774 0 0 0
605 1 24.246889948593978 4.555575228719034 4.93100915539026 0 0 0
975 1 32.27893754786855 4.180384236826816 3.513673600763507 0 0 0
364 1 34.633511896169026 4.136326022315778 5.195910472054969 0 0 0
585 1 36.52725359442775 5.444555973548346 3.6056134427288624 0 0 0
1632 1 41.19107324486754 5.841301917406838 4.179807866732706 0 0 1
2638 1 42.75056782416203 3.716203823274566 5.357598538966142 0 1 0
2032 1 46.47771215059788 4.796191482857422 3.11012206585362 -1 0 1
393 1 45.15288034675031 4.768568775124761 5.81737767144122 0 0 0
1982 1 1.341235186057923 6.3094050832878334 5.466265657496362 0 0 1
610 1 2.8862813236343 8.722285858443927 5.488137405224423 0 0 0
1769 1 5.312220631363949 8.777746488361212 4.139213157820838 0 0 1
193 1 6.830918848128585 7.698847645310888 6.408056307838099 0 0 0
2026 1 9.398997863109765 7.5650144246790045 5.442221875649772 0 0 1
1491 1 14.027300640011914 9.230674049339544 4.357463370219055 0 0 1
1722 1 14.535801323433022 6.522882641943342 3.6604108180215897 1 0 1
2024 1 17.196138421483916 6.5270161510199864 3.252057726435489 0 0 1
203 1 18.80602624724665 7.112143451953794 5.467653735509553 0 0 0
1428 1 25.85590083238088 6.795044543502216 5.422362988378567 0 0 1
899 1 26.960424390554206 7.9003193505686795 3.092740365822712 0 0 1
1559 1 30.089830591204503 5.862509912346756 4.109919826080541 0 0 1
231 1 31.463285748477926 8.3708585952871 4.331599105411305 0 0 0
43 1 37.75205233943069 8.14744248534417 3.950760375229234 0 0 0
2894 1 39.78907225446187 7.547625791420126 5.753510042102382 0 1 0
332 1 46.308936543707176 8.706489837649501 5.129174100557003 0 0 0
4056 1 48.04542274131481 6.911466237191447 4.075821711148918 -1 1 1
2770 1 49.82484532287934 6.080603477154056 6.1995802782605365 -1 1 0
213 1 1.0785878707718073 10.7388549700018 4.409096767411617 0 0 0
684 1 7.0268274106199815 10.782075257911837 3.3343111432124766 0 0 0
589 1 9.420739403194286 10.364477175917818 4.330297081661449 1 0 0
1683 1 16.518420429097308 10.564870869503228 4.447664315109405 0 0 1
2571 1 20.335084087997664 11.187383694800593 3.316325369570986 0 0 0
173 1 21.080417510929074 8.939991559922037 4.911292640741386 0 0 0
614 1 24.86743635065928 9.386453527159993 6.2929100890228415 1 0 0
663 1 25.189812514346745 11.505657019938209 4.463147570291878 0 0 0
1701 1 29.032998503965747 9.589919500780061 3.293340670934075 0 0 1
941 1 28.11502938776273 11.139950862802037 5.276042867937244 0 0 1
2633 1 34.13663858395837 10.756741773472973 3.067704863359635 0 0 0
2363 1 36.06346923340213 10.25750184411181 4.839456535662685 0 1 0
669 1 44.31842761494383 9.302898045493004 3.027922952462396 0 0 0
8 1 42.7234523950447 11.243668642025622 4.114203081981832 0 0 0
443 1 49.97970824012451 10.615153802729504 2.80825627928659 0 0 0
1699 1 6.27059434961855 13.342089291446602 3.002493230687032 0 0 1
2493 1 5.919027330490931 15.11566395405728 5.200342546523886 0 0 0
4025 1 10.923831752269473 14.636009439170069 2.3821529893970066 0 1 1
3895 1 12.142999218601098 14.157638306401788 6.409610881612007 0 0 1
1848 1 13.667998211954497 14.548983675858128 4.120637219414347 0 0 0
1533 1 15.949786811483918 13.110995770791352 5.429711836652693 0 0 1
2780 1 20.098569324271626 12.74226662852747 5.946123027253929 0 0 0
3652 1 18.337051805141044 14.606213385945344 4.943875298521943 0 0 1
1912 1 23.98170086058147 13.89716364987207 5.107900101098678 0 0 1
66 1 28.81395303503914 14.765112820133531 2.788060855471466 0 0 0
155 1 28.351259172016345 13.936004466739703 5.431097824333964 0 0 0
132 1 32.517736616931955 12.769723288925599 4.205536444391851 0 0 0
537 1 34.01274395882464 15.059032736090673 4.112092042271873 0 0 0
85 1 37.77111312466286 12.277725092404312 5.3869377704365 0 0 0
530 1 35.51060434791236 14.072067043393476 6.201374255845914 0 0 0
1851 1 38.92370808808084 13.671804945169953 3.379702438774435 0 0 1
395 1 43.9499618454015 13.38275469990855 4.854353866965882 0 0 0
341 1 41.94352611903405 15.170727161996721 5.9350968687640115 0 0 0
47 1 48.39071830487221 12.479772086240706 3.709497794201809 0 0 0
406 1 49.9565031124004 14.986813315124268 4.0190910533289195 -1 0 0
575 1 3.2517957908818 16.20409574758612 4.964509790472807 1 0 0
3574 1 8.708338171218317 18.17490199735637 2.8262847404552573 0 0 1
204 1 7.563201244751593 17.402897382396038 5.303024204310232 1 0 0
1537 1 13.145364581715226 19.405487430952846 4.320738925714061 0 0 1
2582 1 15.09438896531113 17.22536988964112 3.770631868845654 0 0 0
1950 1 16.945265099944667 18.22549950269491 5.741611074866774 0 0 1
36 1 19.260644664468074 15.958181873272991 2.523651477751919 0 0 0
378 1 20.14002993397553 18.483830068131777 3.271569336621028 0 0 0
1129 1 22.006319661251226 18.265189196014717 5.238350924128147 0 0 0
2660 1 23.616576941630143 16.221197002167486 3.824915640217716 0 0 0
1618 1 29.9950194787368 17.21047399868037 3.4452916016864696 0 0 1
2143 1 31.797038898394884 16.565101943103432 5.250275798223225 0 0 0
2916 1 36.62376574054716 18.772379242848288 3.1532100479587766 0 0 0
381 1 38.425426796434735 18.080119429685297 5.077494356293263 0 0 0
2171 1 40.28477572336213 16.182893997162942 3.9724630773089356 0 0 0
519 1 46.336752766914785 17.104004539029734 3.554666431025219 0 0 0
648 1 48.28519664191569 16.62567523635235 5.279998512097097 -1 0 0
154 1 2.1432734375113633 20.524957184448272 4.472332000320983 0 0 0
1792 1 -0.5534110901994751 19.89132157130067 4.040597519887287 0 0 1
2802 1 8.325715237036817 20.73417210857634 4.235262957634365 0 0 0
656 1 5.7104756733403566 19.463929224472988 5.602139183016367 0 0 0
3367 1 14.147616800583272 21.493956193640905 2.6394481798721103 0 0 0
912 1 18.25535297453252 20.364143445460144 4.178611535591264 0 0 0
3863 1 24.688640829555546 21.133450031624562 3.9869326422023574 0 0 1
2567 1 24.099365587372827 19.538242075821106 6.152384074232755 0 0 0
2420 1 28.065726793160007 18.851044666001567 4.678631670567149 0 0 0
1430 1 35.102362538952306 21.030144337048124 3.376856530364993 0 0 1
678 1 34.9155076966035 20.781919018916945 5.998699030583138 0 0 0
176 1 40.67607869474368 21.18859344141684 3.620430200591369 0 0 0
391 1 39.69132057406415 20.446238127599752 5.881956354908908 0 0 0
1986 1 44.34806079712635 18.60688787414527 4.738610076016988 0 0 1
529 1 50.57339084775112 23.958310397585933 5.478075745587778 0 0 0
1815 1 10.779771661373312 21.891894097785173 5.494901282764628 0 0 1
1078 1 9.911483453941226 24.504321522441806 9.44015973185493 0 0 0
472 1 32.582661513576156 11.27195946118494 16.203243200315946 0 0 0
2559 1 13.558933585364596 22.91176983909236 4.940224444816652 0 0 0
2439 1 17.767302453279765 24.15376173431653 5.881155395448326 0 0 0
521 1 19.74391129685954 22.230521186618407 5.272493509384144 0 0 0
125 1 22.174945245042508 22.50015805385814 3.62431939553968 0 0 0
2602 1 26.769167479705462 23.08146084662388 4.753245666061801 0 0 0
2570 1 28.973081903801287 21.430893638113535 5.086243277119882 0 0 0
794 1 30.79669638922235 22.40035884806753 3.2706231306053164 0 0 0
3720 1 36.678049309453144 23.409515977807548 2.8273350538412836 0 0 1
1631 1 36.700175049718865 24.208860212644634 5.682780321018413 0 0 1
1193 1 42.46763389603308 23.128791988125297 4.494466637977943 0 0 0
227 1 18.492142202851635 0.9369287833814985 -0.39196844804844666 0 0 0
583 1 44.69920783758313 21.503223622493906 5.07922634733329 0 0 0
254 1 46.89237224927763 22.332217150303048 3.328513837146392 -1 0 0
187 1 49.722752611492254 22.44908470383071 3.486012763807401 0 0 0
2769 1 -0.09979369817707012 2.0129818964227106 8.54384450319976 1 1 0
2799 1 6.541115952054038 1.1937162055937922 9.134175015041766 0 1 0
2724 1 7.624571967251667 0.13457771874683233 6.8558082617900995 0 1 0
1474 1 10.017804646087404 1.2816885439792571 7.035008928877335 0 0 1
657 1 13.375129064790828 0.7007859530810783 9.261793082449696 0 0 0
1429 1 15.032857977679301 1.1125405774960333 6.964098709566479 0 0 1
3837 1 19.542673395619925 1.6891973301269099 9.225241821249366 0 1 1
1972 1 21.931422884271377 1.6724524487628045 7.828225458502999 0 0 1
793 1 23.088555332274282 0.20548241692415214 10.0007601504916 0 0 0
2763 1 25.863551616728444 0.6201996894784423 10.79461980642799 0 1 0
69 1 30.611400731786787 1.7398107119345485 9.281365455057415 0 0 0
3919 1 10.4835077205667 24.949013370713306 15.88076067463371 0 0 1
130 1 33.34106462750525 0.992502177257339 9.491783121413386 0 0 0
35 1 37.861898750764695 2.22334122819209 9.61433142299401 0 0 0
145 1 2.484832303850384 22.699144314475596 15.860520860267734 0 0 0
256 1 41.585158978713864 2.5116565732526426 7.346965298287311 0 0 0
1487 1 46.329752468321146 0.038298749703365775 7.20888631148868 0 0 1
2296 1 48.63262608076366 -0.4062798124842189 13.038545153871292 -1 1 0
1850 1 2.560226327859094 1.990349937219527 7.967074492166242 0 0 1
375 1 3.032506170824516 5.135341154796493 7.7931324117177425 0 0 0
62 1 5.6370795987891995 5.212824112941477 6.7006037558024625 0 0 0
1318 1 7.141618642526722 4.154628175491008 8.90950109140459 1 0 0
2515 1 9.993694647129958 3.8092679785789034 8.076409370134048 0 1 0
1219 1 13.569197683055533 5.279530274946317 5.94492121720967 0 0 0
1291 1 17.320649237369764 2.3551331414945307 7.670515517924537 0 0 0
2691 1 16.889226529877003 4.548544397327717 9.077459157731328 1 1 0
654 1 23.121088021819006 4.2655209521033015 7.872452624805032 0 0 0
253 1 27.123057515961715 1.8354640685260257 7.094531242111326 0 0 0
117 1 26.001789140688782 4.143061866123072 8.532718745049962 0 0 0
1936 1 29.88395523496218 2.7127033946140813 6.949532325947781 0 0 1
1827 1 29.81962835404213 5.452265121716694 6.669032221394554 0 0 1
2888 1 31.8266259708647 6.248827424077904 8.33753958292562 0 1 1
437 1 34.121472061910794 4.817790461249798 7.749579462708402 -1 0 0
360 1 38.89965313424047 3.039912427155284 7.259996676209901 0 0 0
451 1 42.987305739077144 2.9701862084351385 9.596926819434772 0 0 0
289 1 46.76579689398139 2.8450845695481353 7.251793858379 -1 0 0
541 1 45.950826432283506 3.4531942873276353 9.841533631322287 -1 0 0
639 1 49.40368700927492 3.249345556894049 6.655407454030699 -1 0 0
617 1 11.055476143448006 6.111275941116525 6.80955112430265 0 0 0
2687 1 14.202845510291645 6.564961460911321 8.71295031598387 0 1 0
1051 1 15.705923377129068 8.691938648356958 8.430778607593375 0 0 0
2169 1 18.539126947353125 6.623319756754452 8.41941844404297 0 1 0
28 1 21.370931506206645 6.627398399993501 8.539681357275446 0 0 0
644 1 27.277507759219638 6.266640391445836 7.574745310180141 0 0 0
523 1 32.31569182702373 8.720626823145073 7.166207446638654 0 0 0
425 1 36.150023414856676 6.599691994303325 8.17850007540258 0 0 0
96 1 38.97409405359757 5.897681397961109 7.737302801554824 0 0 0
1485 1 42.9245284928828 8.64595716552379 7.933475281905068 0 0 1
701 1 45.2200662549909 7.229991301035396 7.139928622802209 -1 0 0
37 1 46.841816469983456 6.194198990519492 9.48200309648606 0 0 0
1543 1 49.51714375524722 6.769462125298928 8.90789051793484 -1 0 1
1911 1 3.9972996025956897 9.908004042254438 7.911606350912816 0 0 1
479 1 6.650302799081663 9.496407056869145 8.294381522271223 0 0 0
142 1 8.118538245711393 11.835068079738727 8.04239048228982 0 0 0
1310 1 10.364111004331345 11.955909647244567 6.392135309001713 0 0 0
682 1 12.436645544912222 9.93395650989199 6.407958239927183 0 0 0
866 1 14.141641217005786 11.066591906511949 8.578680927757317 0 0 0
324 1 17.5335667308487 9.219197576216722 6.46528226251079 0 0 0
4114 1 19.7233357853859 10.71983998475396 7.345560595057067 0 0 1
90 1 22.269430807174714 8.890992789922096 7.508445038231805 0 0 0
1501 1 26.59095112413806 10.56379160310236 10.003515629714881 0 0 1
247 1 27.401369817005545 9.464441734538013 7.5181390394817456 0 0 0
2268 1 30.395560961190526 10.568264442745166 7.606956780140251 0 1 0
1077 1 34.939489110277734 8.946103598904024 7.16473134918998 0 0 0
1567 1 35.400949487844585 10.390190598945416 9.340210059063185 0 0 1
2957 1 38.09988835363575 11.188668158870748 9.50143827813977 0 1 0
659 1 39.72061286411713 11.87781317103214 7.40958929811983 0 0 0
579 1 41.34032697470748 10.121081060252004 6.070493954893888 0 0 0
671 1 47.91507659353192 10.993927038415457 6.003022791089911 0 0 0
666 1 49.72861347934766 11.58004592638075 7.911949449094818 0 0 0
215 1 0.9906132336317806 14.96221973457995 5.907246572460869 0 0 0
238 1 0.9197282637082391 12.306241674996214 6.600504244729165 0 0 0
1520 1 3.1696432598592033 12.659642240355653 8.06954117100807 0 0 0
704 1 5.828912378233225 13.667812085913399 7.301765591223481 0 0 0
2913 1 13.74082118360254 14.363682357059634 8.910847461058138 1 0 0
3885 1 16.20577350386956 13.055364276385967 8.350613777112471 0 0 1
1511 1 22.130498473984787 14.112540250721812 7.2531499960560835 0 0 1
3265 1 25.74151089898937 14.75078107742788 9.30987755142042 0 0 0
691 1 31.914296289792038 12.65521789164029 6.738694033615625 0 0 0
3432 1 30.398161462124683 14.863278092196754 6.8076819881298 0 0 0
2798 1 34.29700748123065 12.698607858777379 8.472407849941515 0 0 0
1506 1 41.189876103401176 14.024880859029103 8.206303112325159 0 0 1
475 1 44.8040324259252 12.073778849944818 9.800312033125754 0 0 0
371 1 45.74105079930993 12.641090714509977 7.091371721854106 0 0 0
2920 1 0.478432597055368 16.784361798026957 7.811529445162202 1 0 0
2985 1 2.628963570314032 18.570564798103348 8.452130472683319 0 0 0
394 1 3.2920039658140587 18.64333121623187 5.900243201349179 1 0 0
212 1 8.863336630372977 16.953471965534415 7.614196761677071 0 0 0
112 1 11.401887051783545 16.915926961196785 6.552961963958557 0 0 0
3795 1 17.11393249602289 15.51378432554231 9.266432087099718 1 0 0
2501 1 18.697668499620914 16.48150962012995 6.974993819480438 0 0 0
2286 1 21.317410162285576 17.966896212838652 9.82070485691094 0 1 0
3602 1 21.442309869510982 16.70540225019163 7.468695475406609 0 1 1
489 1 26.138578045769556 15.033079301581827 6.526925535148431 0 0 0
2732 1 26.264974979948082 17.914447266155076 6.327532241262486 0 0 0
832 1 34.6068111745342 17.549424574158788 8.896628881844798 0 0 0
1210 1 37.00248312200178 16.283603192859815 7.307709797865902 0 0 0
552 1 38.9792809735378 15.513385220344297 9.0890702669648 0 0 0
119 1 43.16374834954382 17.49052375557398 6.975741594316951 0 0 0
613 1 46.925020280653 15.30822633999117 7.303346653427428 0 0 0
729 1 44.93673221471349 17.118193832733727 9.007109866673018 0 0 0
536 1 47.82446792832732 17.23251889143767 9.431585194367408 0 0 0
818 1 1.6952870125500819 21.223798076568457 8.482725086458627 1 0 0
510 1 6.4815167430675364 20.327997808599793 8.157928685889486 1 0 0
229 1 11.103720089389304 20.67190310168065 8.135295600396427 0 0 0
2150 1 8.739138381706562 19.272080571588035 8.79906921678543 0 0 0
3114 1 13.229946281131777 19.13602578359611 7.353316508762643 0 0 0
2817 1 15.78994844305915 20.153252025036064 7.4900954308121275 0 0 0
2142 1 16.775268907541115 19.521029197475286 9.780606330735369 0 0 0
111 1 19.30217830548104 19.92242825136656 9.667996924600375 0 0 0
1544 1 23.069677726674318 20.741996039653237 8.385846608423531 0 0 1
2410 1 27.60016788999681 18.757633088945013 8.823058313486689 0 0 0
3958 1 27.676713219201382 21.47200399747468 9.47183279395004 0 0 1
3913 1 31.919396659316643 20.459371413443858 8.516997346627607 0 0 1
3219 1 33.061811692431405 18.656768017733764 6.736193075563088 0 0 0
1978 1 37.109705398361314 19.247576998155903 7.559768291355445 0 0 1
223 1 37.59265772801557 20.091451090976225 10.08714367236709 0 0 0
883 1 41.42650001570071 19.470031980885818 8.116974871999982 0 0 0
1107 1 42.65659133513428 21.19405729016207 9.799171164863637 0 0 0
2895 1 45.33342322455748 19.991346328241566 9.41181458893377 -1 0 0
2553 1 49.68521774890847 18.4811037454005 6.154273381304307 0 0 0
428 1 48.37304159216599 19.910267973472113 8.250143195075928 0 0 0
769 1 1.8332649602485636 22.596167621500808 6.146174834278338 0 0 0
214 1 3.9845315509742347 24.507535836059493 6.599558234052399 0 0 0
623 1 5.798025268958823 23.13404016081867 8.440268745715803 0 0 0
2322 1 11.743496475708351 22.69874897200195 9.696682796021829 0 0 0
2565 1 14.252617602954475 23.730920677181643 9.455812711464382 0 0 0
251 1 15.652393407219424 22.93826861758169 7.151634357359021 0 0 0
422 1 20.425888193372426 21.81579740780027 8.030503322185956 0 0 0
2270 1 19.321922916309827 23.630200387177396 9.626781908548148 0 0 0
383 1 25.03811271728683 22.556134873708142 8.964509639164946 0 0 0
3292 1 49.94014422796775 23.464356569335248 13.881260035120738 0 0 0
2544 1 29.868795429027422 22.047795016482706 7.636666081698573 0 0 0
270 1 29.156304122198517 18.612080003158784 -0.34199073383055023 0 0 0
587 1 34.44958812292474 23.56063729626149 6.716510530018681 0 0 0
3186 1 35.26677315244109 24.206351294920168 9.256391587386782 0 0 0
917 1 37.64087398322157 22.86028642461318 9.36196331021757 0 0 0
23 1 38.98624478290375 22.890048336690157 6.973001235891872 0 0 0
1185 1 41.37393263975214 24.46724252456842 6.821968865969029 0 0 0
40 1 42.49765984261116 24.02197367255017 9.044420334724258 0 0 0
2273 1 45.47979659940822 23.75081375338224 9.375617507222048 0 0 0
636 1 46.13921343319329 21.669181921037634 7.507669484103756 0 0 0
505 1 48.55766223463141 23.410719117115153 7.533170558863299 0 0 0
515 1 50.28730139323055 24.61580860152937 9.66265328979212 0 0 0
1473 1 0.9656177384999602 1.9076426389583157 12.864049550384397 1 0 1
2597 1 4.062766212502443 0.9479270232873618 10.072493814162724 0 1 0
39 1 3.5399253387626786 2.2495877338013752 12.496765898073505 0 0 0
507 1 7.969955722716973 0.09991150063812293 11.460457305111328 0 0 0
2469 1 9.665660416055664 2.0794736013504744 12.192594685991432 1 1 0
3960 1 14.512632867119644 -0.3711660593227488 11.464120170185923 0 1 1
380 1 18.850349059543856 1.7035640918377433 12.126869782403165 0 0 0
4093 1 23.884687798935147 -0.23148726389210844 15.884114112498086 0 1 0
3597 1 21.613132475799645 1.2271595886189512 12.19546535992259 0 1 1
2797 1 10.195725100306978 12.347464602251891 -0.19345878083731988 0 1 0
2244 1 33.33933249892604 0.18922608471450575 12.072784163358541 0 1 0
1443 1 41.00910124806053 1.8631764480212847 12.53411715047284 0 0 1
2172 1 42.30113577386476 0.22509652332024133 10.683153585039918 0 1 0
2910 1 47.89713570937073 2.177878154044444 11.34610797572173 0 1 0
3474 1 17.480221592998365 -0.551036944459824 11.475299393595703 0 1 0
307 1 4.01330907230342 4.8902369443591205 12.01086243776539 1 0 0
118 1 6.630709390356426 5.463519663029724 11.225453011787891 0 0 0
780 1 11.628616555807653 2.8215693497382324 10.236808585747802 0 0 0
86 1 13.347045002401165 4.898683992787512 10.562727812399201 0 0 0
316 1 14.899698530499112 3.892988177075411 12.833355410577639 0 0 0
49 1 17.25646819645385 3.6659777343601156 11.58579624173519 0 0 0
2523 1 25.228278813962024 4.133056462428176 13.175220370511056 0 1 0
101 1 26.829093168461537 3.087226881310331 10.938187490247994 0 0 0
308 1 29.415686934469033 3.2502115028245964 11.176150357794896 0 0 0
1204 1 30.95181039727557 5.6629922881813535 10.803460945557186 0 0 0