LAMMPS data file via write_data, version 29 Oct 2020, timestep = 800000

4175 atoms
1 atom types

-0.6223461400349635 50.62234614003928 xlo xhi
-0.6223461400349635 50.62234614003928 ylo yhi
-0.6223461400349635 50.62234614003928 zlo zhi

Masses

1 18.015

Atoms # atomic

38 1 1.4526691524772493 2.204868966360689 0.12320461496635216 0 0 0
3389 1 45.15103333934306 24.958175916839718 7.251306935677234 0 0 0
198 1 3.602530246428209 1.9266169613228112 1.7954097570412801 0 0 0
2718 1 5.911015845712439 0.6981776713174863 1.0243330239171284 0 1 0
1638 1 7.79286691259702 1.037322949694105 2.8919096557765465 0 0 1
211 1 10.096751362569258 -0.08535996931577161 1.9708344176689718 0 0 0
465 1 18.15650987287032 1.8652184345074478 0.5609185288645255 0 0 0
1446 1 23.530881238144783 1.837717622594762 1.7814219435102703 0 0 1
473 1 3.6740950387094964 21.64301007469047 -0.47905322697682373 0 0 0
3960 1 28.264534460556046 2.8230545628985158 1.9988789569259784 0 1 1
9 1 32.47220817201111 0.9303700493234364 0.9059877183881733 0 0 0
280 1 34.340832721548466 1.4094189909379096 2.743341311250302 -1 0 0
1863 1 35.92752962064473 2.5882469035793836 1.1402275175691672 0 0 1
2859 1 38.41618757266931 2.535677059126991 2.568961077078761 0 1 0
2202 1 39.80508121705838 0.29637900455711375 1.5293832215879846 0 1 0
3668 1 42.50123930004289 0.5049331817935776 1.8535725843789774 0 1 1
2769 1 47.99281400623979 0.28250346267195736 0.7950586720599375 0 1 0
1840 1 -0.1714111385796599 3.8638425199635735 1.5865418542705059 1 0 1
2016 1 9.435846657789705 5.219137177802636 1.9592880883757595 0 0 1
107 1 13.459335088936253 3.0260229496412263 0.6799624645133129 0 0 0
195 1 11.87921369786884 4.153361017574449 2.9099184007655126 0 0 0
479 1 16.103335398670264 3.603261525728831 -0.07091690039835463 0 0 0
466 1 20.04091273846442 4.781328759156163 2.995302076731456 0 0 0
1870 1 22.178514764948652 4.610151662135976 1.378077699614681 0 0 1
534 1 28.80766042927575 5.610556163735993 1.4773807327551305 0 0 0
1426 1 31.54342377768549 4.489260465303454 3.88674331241325 0 0 1
1443 1 33.906243864923546 4.3351090402116705 0.10643940399438168 0 0 1
2469 1 38.529366685373354 5.207577361084482 0.9730608863248564 0 1 0
2005 1 42.23220916392597 3.2050130864641266 1.4975883399781926 -1 0 1
1592 1 44.93271158050904 3.6832805468997014 1.893781152313926 0 0 1
134 1 46.75367022992359 2.5725161611933607 0.18088410173626346 -1 0 0
2040 1 48.87315759687121 4.4381526398372415 -0.3175720643551965 0 0 1
1911 1 2.2007843187842386 7.637866681419867 0.5392008796963514 0 0 1
1916 1 0.6059844145375901 6.426643482712048 2.2601432285726295 0 0 1
610 1 4.596665962250474 6.456619241379072 0.8687940212002638 0 0 0
263 1 6.242517454297555 8.229283768736762 2.3335155282835958 0 0 0
1792 1 9.064400433372471 7.804012121729524 2.4718409203570326 0 0 1
1429 1 10.527120162567957 9.154797959196554 0.5307859550842522 0 0 1
1716 1 14.409639437314704 7.846113998951722 1.6001445635355256 0 0 1
482 1 32.826736702150015 24.624926154791737 7.078808323507497 0 -1 0
336 1 16.897342126220327 6.511089116124405 0.5916992399365733 0 0 0
265 1 18.68034465026513 7.125863160567964 2.4193421871428673 0 0 0
1791 1 26.313567396542975 8.36312592511814 0.6125883010166495 0 0 1
612 1 26.9404630033433 7.098023724982905 2.906363283971163 0 0 0
3786 1 32.17364843220105 8.23403054198037 1.7420875564370206 0 1 1
436 1 31.631140269587725 5.65934684350185 0.9899577613577328 0 0 0
4145 1 35.05921188509284 8.810965945496577 1.2514548518696094 0 1 1
1963 1 39.92928251228735 8.611029035966101 -0.4099050904953382 0 0 1
162 1 42.78852497568651 8.37178303141779 0.28573763798071505 0 0 0
411 1 45.337104458729826 6.235480800071118 1.2787967677618033 0 0 0
2345 1 48.09831016574286 6.915821845937256 0.7794467454793879 -1 1 0
2306 1 0.633023835391773 -0.5177282689820519 -0.0856085313464301 1 1 0
498 1 2.234485643822496 10.644898399345234 0.6366944936723231 1 0 0
1407 1 6.597931466483928 10.336766719718648 0.30370133449389525 1 0 1
1652 1 11.5197960363043 11.236074715691808 1.7798200759079164 0 0 1
548 1 15.848118229634427 11.281899971276774 0.13938114840472826 0 0 0
641 1 15.612904840497052 10.23118229581178 2.6035382326816254 0 0 0
1631 1 18.595612584143897 10.39897643644658 -0.2701789351590914 0 0 1
501 1 19.802425222853373 9.637106874108563 2.1022611593296143 0 0 0
1780 1 22.571777325657003 9.717470728002487 2.657710317766072 0 0 1
51 1 23.49700990041514 8.680065485749354 0.24958995565885778 0 0 0
600 1 23.603933451063973 12.18876601967384 3.0537556058179853 0 0 0
4121 1 27.803636811774197 10.97718018177184 0.8229752801626788 0 1 1
2359 1 30.443395501389666 10.388864890526532 0.7615555751962653 0 1 0
417 1 36.30148634283069 11.727897296567617 1.1853317366525813 0 0 0
328 1 20.46540136065533 3.1800519425476237 -0.4742914587409903 0 0 0
2841 1 42.90609037333347 24.912700060979127 10.384129618015224 0 0 0
322 1 47.04462719419538 11.576398900039987 2.137047404820038 0 0 0
516 1 4.967167661981847 13.662008810507054 2.599786283523623 0 0 0
1823 1 7.106961862663067 12.815434826801376 1.0374089582707258 0 0 1
3458 1 43.738395652630196 -0.49915156086167256 15.265982321086335 -1 1 0
2445 1 16.500839040163008 14.213940559895015 -0.01584314582505797 0 0 0
1773 1 18.708660611761346 15.307213986399521 1.6339278232657035 0 0 1
1538 1 23.436759515867756 13.744239953377935 0.7066894725642405 0 0 1
2565 1 34.72598605736093 13.695839281501877 16.092904953268516 0 0 0
555 1 31.862700055473738 12.399183487159483 2.1715984624785234 0 0 0
2180 1 31.653294036432037 14.44230686650631 0.3431793841446783 0 0 0
626 1 13.250851740136484 22.56128753588336 15.894483545148542 0 0 0
140 1 39.69761528291789 12.435703481029662 1.5970287061904633 0 0 0
102 1 39.26502735270544 15.06425591167979 0.5823146614726324 0 0 0
1455 1 42.865912178438734 12.754043554311291 1.430842748001652 -1 0 1
503 1 44.98973267075782 12.991351759394671 3.3683454780066793 0 0 0
553 1 45.9312716542254 15.797911147920296 3.2373320710643267 0 0 0
425 1 49.35553710107462 13.076781425479462 1.5048009677274963 0 0 0
2672 1 1.0141754484999872 16.678505261369487 2.360292984345602 1 0 0
139 1 3.189171450412972 15.421169803217374 0.9139032168425947 0 0 0
3762 1 6.465623504048284 17.603612738655936 0.6377139765864717 0 0 1
2311 1 46.008343346582656 24.556299950477953 4.7054058497199005 -1 0 0
657 1 11.052909645636 16.872723384847166 1.2438169962772512 0 0 0
3615 1 12.759889329615106 15.318713143132143 -0.3813130635635973 0 0 1
1435 1 17.500747859932705 17.94296828766141 0.08625098700874168 0 0 1
1501 1 24.997690951962763 16.3002196855562 1.155375723513968 0 0 1
42 1 27.492226668799848 15.891316449587421 1.7568897651324078 0 0 0
329 1 28.73917152229232 18.136926210853947 2.6759378480607228 0 0 0
177 1 33.21027753943309 16.873912574211463 0.7018954506499815 0 0 0
317 1 35.69231877727792 16.042543428159625 2.153236583656526 0 0 0
699 1 37.274500530438914 18.352061393518046 2.5011407176505367 0 0 0
514 1 39.63658677519036 16.925828767981812 2.833735130164316 0 0 0
437 1 45.1495835870021 16.744410988078094 0.6791889139813563 -1 0 0
1553 1 47.67787717362004 17.355652945006025 -0.31076788807204886 0 0 1
2140 1 -0.010596482505132454 18.62354771579432 0.6783996640820902 1 0 0
520 1 1.0042201274585223 21.52723655505849 0.6313791614483351 0 0 0
3481 1 9.351593908700826 22.342781320086583 13.616167448010259 1 0 0
2490 1 5.818799914418227 20.07498689424553 0.428937626124521 0 0 0
3058 1 23.266700022848514 -0.5967422145628102 12.042918265612274 0 1 0
2879 1 6.4572075605774515 24.94639308925596 1.848749660401276 1 0 0
4170 1 14.638973038739794 21.235271341011718 0.39942204185280406 0 0 1
342 1 20.031733275758285 19.8405765496311 1.7465445162368693 0 0 0
3881 1 22.83785261340422 20.24864535860345 2.2695041123132644 0 0 1
3783 1 13.25824646211513 24.781010768459556 3.6780541678026477 0 0 1
2794 1 49.43333912708573 -0.09406941953061143 14.745259662267378 0 1 0
295 1 28.839639566697926 14.742672722412554 -0.32299508016530903 0 0 0
560 1 37.505014779903945 20.0374126941642 0.3004999906461352 0 0 0
284 1 40.11603837496441 20.72922467496276 0.896994683817748 -1 0 0
2043 1 41.402277791288014 18.33388266900266 1.0308267534195081 0 0 1
275 1 44.0378937342043 19.223465193318958 1.4182501877856382 0 0 0
3742 1 45.420210515429815 21.305480620845874 0.05693735934971578 0 0 1
2241 1 48.74349386813014 18.804850422878264 1.6928231090918815 0 0 0
3606 1 47.64504581698025 21.507972253587287 1.451573897130399 0 0 1
189 1 2.824185442814074 21.586221686721593 13.801541182794518 0 0 0
3779 1 39.58031840598128 24.657743712844404 -0.026419556374487563 0 0 1
1651 1 8.783926686957889 23.092036700686734 1.7557767731245715 0 0 1
1476 1 20.46458672198711 14.324359115151868 -0.47908245396138627 0 0 1
356 1 11.250113893523336 24.91058965149117 1.4325687202038866 0 0 0
2411 1 16.781590940207476 22.761491904875914 1.4524143347085445 0 0 0
2538 1 21.308100642757385 23.594798608626473 0.12020543276787421 0 0 0
2027 1 23.825725445537785 24.677675936157808 -0.2612449066092063 0 0 1
505 1 6.905158368117853 24.34615928469235 12.261407335048105 1 0 0
1886 1 27.403166966404513 21.865852400364197 0.7301320044641466 0 0 1
3850 1 29.687358669436044 23.65448669964588 0.27891996213408765 0 0 1
1485 1 31.660958916292415 24.14615014541996 2.3903496336741656 0 0 1
2069 1 33.05192485968578 21.90492846275156 1.7115697263352412 0 0 1
698 1 35.46048599655473 21.947800019471522 0.3587414911155715 0 0 0
1153 1 4.810216492116278 23.267317059573724 14.53217033184304 0 0 0
2172 1 49.701596232281624 21.489725156173396 15.71409200651885 0 0 0
602 1 43.90886184519226 23.860361524065343 0.6768485445275454 -1 0 0
3594 1 48.470773989669816 23.95647474548602 0.5268807602338916 0 0 1
2120 1 3.245240802253438 1.0990205597865974 4.456702551577666 0 1 0
200 1 7.1566638237671 -0.38498018990238725 5.28957527799111 1 0 0
2215 1 11.975829385757526 1.3727676955239967 3.504595101977916 0 1 0
595 1 11.481297698259844 1.3011868304179461 6.12167578085304 0 0 0
2257 1 28.985496640223655 19.55089668301116 0.3392423365460565 0 0 0
2524 1 15.396390666280425 -0.15347915455337968 5.535168518084377 0 1 0
493 1 16.60692142197569 2.3293506898974976 5.548859768304143 0 0 0
2162 1 18.54609499574746 2.4301212786911606 3.3305103269704985 0 1 0
324 1 21.220134350566465 1.2826588613350163 3.631709073667724 0 0 0
521 1 21.501480177242346 2.37631816292433 6.167613200263815 0 0 0
2264 1 25.609828942684423 1.4474170920417229 5.369931635823423 0 1 0
3218 1 25.58289252890916 3.024322623518559 3.1424905575470943 0 1 0
2423 1 30.463202106913823 1.388826150234138 2.990128152537368 0 1 0
450 1 49.0767239800363 22.784945438755447 13.538364158303004 0 0 0
3870 1 32.620163739519995 0.2543736340620856 6.29089492095392 0 1 1
671 1 38.06514887855496 3.394693895554079 5.164992165427843 0 0 0
3165 1 43.92686860220932 0.8025990067137092 3.9972994404305524 0 1 0
170 1 16.362523094210403 24.027454408948284 10.735652996617041 0 0 0
3827 1 49.0826679153474 0.614223246928802 3.1661414527710936 -1 1 1
92 1 1.2005324214468236 2.94226222851548 5.11380302872349 0 0 0
174 1 4.516588804649534 4.41845431106744 2.6135467645457133 1 0 0
196 1 3.2195614765865965 4.972525182243541 4.864094992338908 0 0 0
216 1 7.35127743732634 3.7809688968678694 2.9285364976698904 0 0 0
116 1 8.48352339950061 4.7433379112842 5.5241369150428055 0 0 0
1597 1 13.786656172514963 6.061450909997797 3.618329186345888 0 0 1
159 1 15.762978203685893 5.012899787077127 5.468382493264766 0 0 0
532 1 21.338076665653247 5.1791130017489335 5.475022623419686 0 0 0
2077 1 24.576620604727815 5.468921743008894 3.0749132267939046 0 0 1
506 1 34.12384832047146 3.5707354574900707 4.491482922794873 0 0 0
1647 1 36.24813115600252 5.2072092612043965 3.9247872973502265 0 0 1
175 1 41.06618991211365 5.479265828184118 2.9666729234530593 0 0 0
2255 1 40.528927230013196 4.329385519239949 5.677966906360094 0 1 0
345 1 45.371017653408856 4.965636915602439 4.342989426960269 0 0 0
2580 1 49.92554701755695 3.20089236380228 3.703925397428134 -1 1 0
2893 1 48.20527423251563 5.187609381688281 4.430166182183798 0 1 0
62 1 2.1950410734341004 7.566927908963603 4.580756572199514 0 0 0
632 1 9.255873868754147 7.255747649338544 5.29260117766199 0 0 0
56 1 12.248312688104878 7.463716941127998 5.437198120011159 1 0 0
686 1 17.648762853045 7.142882818287044 4.902674934700242 0 0 0
3219 1 24.03778248300674 6.159669690183077 5.59996751699969 0 0 0
1826 1 28.37833003904764 7.616256933940036 5.544944163409682 0 0 1
416 1 31.30928294529604 6.9491345726350575 5.7520626504717045 0 0 0
1871 1 32.94690672575236 8.47280397495577 4.353551539759118 0 0 1
1745 1 35.59276483581657 7.824002729135582 4.6148683856282675 0 0 1
2001 1 35.88383739218533 6.1299412020931365 1.3454287904321403 0 0 1
1836 1 39.51670500868904 7.866685404110585 2.0261335959713755 0 0 1
12 1 43.3365343560752 7.074262130998395 3.096352373359244 -1 0 0
456 1 49.381852012250214 7.521496397768773 3.2592881706318715 0 0 0
1495 1 4.339414802073739 9.526412484856174 3.905369428818661 0 0 1
1850 1 3.0686797160207187 11.817914110631275 3.0590759849635525 0 0 1
2819 1 8.781199322409798 11.657003632556895 5.911146352354856 0 1 0
150 1 9.135444677134235 12.609243924175995 3.0638479553611577 0 0 0
406 1 13.429410269563695 11.738899771250084 3.6870857759546363 0 0 0
1984 1 12.95533457326721 10.111889138189508 6.006524911556136 0 0 1
439 1 16.002889893369026 9.546015412825017 5.777609241922322 0 0 0
1699 1 18.15401362381435 10.876421136034406 3.9634220815391474 0 0 1
527 1 19.606115463954666 12.396937343268704 5.7987908569467805 0 0 0
593 1 23.400432049173812 9.121205277103947 5.401233515977609 0 0 0
2781 1 26.379543133988633 11.34621060504596 3.3032285896667655 0 1 0
230 1 27.95517127839506 10.309103725192493 5.5116713452003925 0 0 0
1473 1 37.479139863737245 9.432881152891714 3.1839154250664654 0 0 1
636 1 32.77966333656968 10.988201658806627 5.287586029739046 0 0 0
529 1 38.17702995321585 10.765468275866139 5.529758890684925 0 0 0
202 1 43.751292630662604 11.729633026329738 5.573309513897994 0 0 0
268 1 41.16503661387468 10.635098939099803 5.66508607240224 0 0 0
1517 1 41.59933928554448 9.886182285076266 2.791719471128337 -1 0 1
589 1 45.594437157044176 9.848853320205299 5.584113034681017 0 0 0
2090 1 47.81451817845726 9.901607348988513 4.163136838351715 -1 0 1
4025 1 49.90499176876062 10.7834501207596 5.882521884384635 -1 1 1
564 1 0.8001567723314447 12.516702717386405 4.77334431112296 0 0 0
387 1 6.122057596677179 14.81207003879684 4.653689098188032 0 0 0
32 1 9.619048070619087 15.500553089403937 3.314406870740169 0 0 0
407 1 14.400083003351554 14.31519538851168 3.5491658305522558 0 0 0
1590 1 17.134767276070903 13.573101948420977 3.3230968011857223 0 0 1
4026 1 22.03667165548261 13.681060422954928 4.879314518867193 0 1 1
71 1 26.224446284107515 15.074274522151653 5.497456312484198 0 0 0
705 1 27.642419565003326 13.795338163749747 3.5159004757131473 0 0 0
562 1 30.431473715714574 13.664153092479257 4.1413196201685345 0 0 0
2171 1 34.31916599892721 12.080028933818015 3.185054879559994 0 0 0
201 1 34.079501081315264 15.128453091418036 6.052652445431945 0 0 0
4021 1 35.76797887433114 14.223056452340801 4.110992865210035 0 0 1
1739 1 37.90799952816131 13.68148555991795 5.4502037750701495 0 0 1
419 1 40.479076580341946 13.354774419351624 4.372916003908959 0 0 0
292 1 -0.5553171072459 14.568992750025357 3.4488331349547066 1 0 0
2455 1 1.9659449260929467 17.503234838115883 4.9824088960332675 1 0 0
672 1 3.7311097612244 15.656032906396508 5.977469805114789 0 0 0
429 1 7.333335845834992 16.84757539788594 3.2968007444424017 0 0 0
298 1 10.92436959350263 16.542874466005195 5.494401778799961 0 0 0
19 1 15.038412542143242 16.28534387456509 1.1547027562326384 0 0 0
443 1 13.170777246914584 17.13545130202544 3.3046494294607927 1 0 0
426 1 16.155084657451248 18.388376610030726 3.037876904406374 0 0 0
2762 1 19.42367206852143 17.426400278816914 3.1914859745648414 0 0 0
3950 1 17.631973179873587 17.700974353355676 5.629771268777222 0 0 1
191 1 21.630394234430938 16.592348103799697 4.632694545733611 -1 0 0
549 1 23.734254125207055 17.72756706055902 3.2211886362793565 0 0 0
435 1 25.47477551451515 17.805783609194382 5.472466854615995 0 0 0
662 1 31.60763038442571 15.949154958769999 5.010944284464276 0 0 0
1729 1 31.480968944380223 17.695629187926365 2.9171824726079767 0 0 1
489 1 41.34630730301526 15.921154250000352 4.727408609329613 0 0 0
1782 1 44.13995351974041 16.65885992582737 5.064351475686313 -1 0 1
54 1 48.49608823491951 15.721043959590325 4.638166471382662 0 0 0
357 1 49.0744848850959 18.2401407041029 4.509254070428615 0 0 0
352 1 3.0010358173913225 20.147700518407706 4.234992301468404 0 0 0
2520 1 5.507006677472684 20.594817765024178 3.121082643560283 0 0 0
2536 1 7.500791840602666 19.348160325715504 4.478247479850784 0 0 0
2740 1 11.210901046917355 19.647049302144396 1.4245631528574396 0 0 0
2720 1 9.597520065928455 20.6859046287949 3.4887480242124473 1 0 0
3738 1 13.79884884836797 20.179451707738355 2.9969646976107223 0 0 1
1074 1 15.233213980416584 19.539517879283384 5.905583839404432 0 0 0
27 1 17.95319293579453 21.004170160915997 3.355849295637378 0 0 0
2362 1 18.918975250761942 21.571776735343157 6.15057442127936 0 0 0
2474 1 23.24678173248996 22.03301501571814 5.098399285854665 0 0 0
2788 1 27.633067981211582 19.428197639431293 4.911026248601361 0 0 0
601 1 31.394732775361852 21.01197206560471 5.677068416810767 -1 0 0
463 1 33.02231377818645 20.047736285573663 3.5584938234763692 0 0 0
1843 1 35.605681463050516 19.16670288511544 4.604653181611868 0 0 1
262 1 39.13579524860646 19.426476592517105 5.048406801150886 0 0 0
17 1 44.643766581441525 19.384220072026 4.20510965757051 -1 0 0
278 1 42.858650008927384 21.603833558466548 4.290725390184746 -1 0 0
499 1 47.095432388982495 20.023817056998315 5.3293928675268845 -1 0 0
214 1 1.0957133299411996 21.931521067775165 3.2456028618488415 0 0 0
7 1 2.9274288884622437 23.929760362984783 4.223538052695568 1 0 0
343 1 5.347431645742485 23.21903903188883 3.6575421352328004 0 0 0
1577 1 7.153972668051557 23.938653649385635 5.784300663250128 0 0 1
1987 1 41.51425918832602 22.790340920111834 -0.38458733645908827 0 0 1
2419 1 10.756056339489433 21.827048376764125 5.645422177067528 0 0 0
3591 1 23.67290705977151 20.456812842553337 -0.1934039473725176 0 0 1
1696 1 13.280719160710916 22.27785298589664 4.662925538106648 0 0 1
1252 1 46.26663419493717 22.797049961913007 13.611961364840841 0 0 0
155 1 12.489870827303701 7.624795313820888 -0.39196019985651476 0 0 0
11 1 20.91949302944297 22.55755534325386 2.976360292307914 0 0 0
3899 1 25.24345219987951 23.85160796517728 4.212735091900619 0 0 1
192 1 27.279472497669243 21.920898891556025 3.458908376878407 0 0 0
675 1 29.873174930869155 22.860134414484875 4.414189097703243 0 0 0
1461 1 35.67234960217384 21.947382757997648 5.387119462464725 0 0 1
2451 1 36.192936565222716 23.179902687925836 2.940652701302299 0 0 0
3530 1 38.879199306446374 23.72988914920029 3.4209826762720628 0 0 1
852 1 40.36386533574197 21.27563786750601 3.4283061716280665 0 0 0
673 1 43.77773505794532 24.135653225209992 3.431800215494315 0 0 0
1294 1 31.20216931103501 0.2088686727338691 8.802291767117019 0 0 0
871 1 47.54615312316673 22.348135771127957 4.056160365143658 0 0 0
544 1 50.156975306126405 23.33652389705569 4.66432525196368 -1 0 0
683 1 1.5689790645999064 0.14873578494283335 8.590635668713626 0 0 0
2763 1 5.136691671211151 1.3918567988855632 6.526046352190583 0 1 0
326 1 4.668684249040385 0.6614502920228031 9.248102080342733 0 0 0
1116 1 21.657141642346467 0.9637117757499776 15.81691076148347 0 0 0
905 1 9.168710714771317 0.21044137339092284 9.537394533902344 0 0 0
82 1 13.888460845279036 0.5294628085398492 7.695266096133363 0 0 0
354 1 19.006630836178697 1.5853894054963202 6.931382480484592 0 0 0
1038 1 17.807108469178424 1.9147245076912518 9.42758763621209 0 0 0
2395 1 23.697894668816588 1.3599176537477762 7.611511801522454 0 1 0
310 1 28.269246729656846 1.76172107859552 6.308968353069149 0 0 0
2530 1 42.80321118994669 24.408771629111765 7.718874081949169 0 0 0
2394 1 32.32370730339503 1.444751961268786 10.92583142064332 0 1 0
73 1 35.73949080063447 -0.38673221589478185 7.351918124501906 0 0 0
2365 1 38.14086671566704 0.39560523027841255 6.367986610017485 0 1 0
1032 1 37.69374825322162 1.094935535324412 9.306333410827188 0 0 0
91 1 42.44547796205709 2.554324712836974 6.920604222058508 0 0 0
359 1 42.133081700690035 -0.161821064134977 7.610844411850236 0 0 0
2178 1 44.86241106972988 2.653638470268838 5.760724883694014 0 1 0
389 1 46.81641706340036 1.1157551167366542 7.292839873581483 0 0 0
3042 1 48.93194750899287 2.7251704058358004 8.437215992615386 0 1 0
380 1 0.2330134632563171 2.293211531362777 7.775887255739349 0 0 0
631 1 2.0500449739372333 4.163656382360804 8.96378156300416 1 0 0
647 1 3.9159739315441753 5.623918523934653 7.4371905898847785 0 0 0
1820 1 6.125764402799816 3.9677995099359986 7.06540709684485 1 0 1
496 1 7.591315133895852 4.801942326090502 9.219424030861465 0 0 0
219 1 10.716582911175228 3.7878810595536034 6.85765329359163 0 0 0
369 1 15.175474843720263 2.575067468522653 9.172274497755431 0 0 0
1344 1 14.840519114454812 5.11268026405201 7.969245515256155 0 0 0
74 1 25.140554921477666 3.0491404689546324 9.06013413115857 0 0 0
2011 1 27.655151999509823 2.6928310517508534 8.653218599358997 0 0 1
58 1 30.99656345776445 2.451330361588651 5.749242967145296 0 0 0
785 1 33.324447166610945 3.4233031433579617 9.05225864050883 0 0 0
2678 1 34.53977233291628 2.449447574259959 6.872758678187514 0 1 0
1997 1 36.7848361172579 3.760672920143451 7.701301391353461 0 0 1
2744 1 39.38678045761699 6.357837023966643 7.320964378938945 0 1 0
2187 1 43.17409031026971 4.151112426293896 8.929975486840553 0 1 0
187 1 45.3367653976802 5.919644857306662 7.9265560625868385 0 0 0
2792 1 47.95560406328109 5.039105227432024 7.253018293031309 0 1 0
476 1 0.031064057841538206 8.261989703044025 6.317415328060139 0 0 0
468 1 4.004522180368581 8.099803624149557 8.51665718803298 0 0 0
2167 1 7.925451652661216 8.946675390413086 6.72225148799724 0 0 0
1399 1 7.867733357377576 7.614856838302682 9.205975911750574 0 0 0
2315 1 12.37480682505496 5.840245370994741 7.758810959135525 0 1 0
1806 1 16.03345763765373 7.174343676658648 9.371340614112043 0 0 1
494 1 19.93346803049266 7.178538182477658 6.248321065022138 0 0 0
556 1 18.70309089926827 6.62123754848979 8.947390306112458 0 0 0
271 1 25.225782681732877 5.655530224528819 7.8643355178258005 0 0 0
90 1 27.728153071797674 6.772077041140875 8.023391963185556 0 0 0
1777 1 31.318694610051907 4.586569601192673 7.593988002453605 0 0 1
495 1 32.282051160175214 8.230598888065858 8.269096958750087 0 0 0
1954 1 34.191292410837015 6.200682923697671 8.941429865040412 0 0 1
2783 1 36.58204835011594 6.816518820388144 7.196433258183698 0 1 0
349 1 41.380269096222094 8.275915368600385 6.942973042756277 0 0 0
2430 1 43.94642567219068 7.4446354336078375 5.738966337072358 0 1 0
4133 1 47.58070917593586 8.302001177538383 9.426461799438892 0 1 1
701 1 49.760575957429 7.142901822605009 8.45848913203982 -1 0 0
616 1 1.5948465735316062 8.887469384545701 8.805422710144253 0 0 0
588 1 5.199468849865441 12.009561842858238 7.939478309530951 0 0 0
3011 1 5.251153716773396 9.642265654761198 6.5942181941505424 0 1 0
84 1 10.972620856552588 11.89788514097968 7.245777057179531 0 0 0
392 1 14.119786010318753 11.49583171572335 8.408873546461775 0 0 0
919 1 16.32652825673128 9.861046068614822 8.539314330295204 0 0 0
1159 1 18.521839333360205 11.299987347940235 9.39147346548468 0 0 0
959 1 20.920529716537896 9.821473665650151 6.765584589962434 0 0 0
876 1 20.950075479776924 9.965554208558896 9.422010399445764 0 0 0
95 1 25.33434053888406 10.727237198663095 6.673085262446107 0 0 0
334 1 25.26653375391114 9.98985035152565 9.29563012487494 0 0 0
249 1 27.92370893094195 8.877473277923691 9.599983935252101 0 0 0
1152 1 30.23507660437413 11.665860131706518 6.0353665365246805 0 0 0
348 1 30.568542875640365 9.846849894123725 9.74288742437626 0 0 0
515 1 34.05354434315716 10.335370067351873 7.70377616885281 0 0 0
353 1 36.709114290825475 9.564259556079898 7.746748819283409 0 0 0
35 1 41.16608873833987 8.062712620943158 9.802074073887598 0 0 0
80 1 46.393642336384644 10.65215464347404 8.076861748303662 -1 0 0
218 1 48.62827268265106 12.180076909269552 7.899254114315113 0 0 0
398 1 1.5278005229367317 14.157809870196264 6.845090005656255 0 0 0
36 1 2.9465042144309685 13.141368313429867 9.059839019814975 0 0 0
492 1 7.212876517367968 13.567907265170584 6.835460094052207 0 0 0
4094 1 11.12045228724043 14.732611558834858 7.735318777917055 0 0 1
3114 1 14.073780259405824 14.168028529002907 8.075673551319925 0 0 0
130 1 15.057950922004977 15.4648450378028 5.9150238921428775 0 0 0
3507 1 17.79638741570974 14.963667536098882 5.770397077470779 1 0 1
909 1 18.686471102910293 13.920265843139115 8.31758243186059 0 0 0
1853 1 21.0137164270681 14.975607653491664 8.817375632995343 0 0 1
300 1 24.422082412093022 13.203357541921706 6.673536887646072 0 0 0
2065 1 23.26942078043973 13.538346073210851 9.050554731106233 0 0 1
512 1 30.178489466589163 12.235824900690623 8.604615823338417 0 0 0
206 1 32.11685805529035 13.832611423240468 9.893012783289663 0 0 0
654 1 33.94788263095148 13.18114120093353 8.010475546546747 0 0 0
490 1 38.23994362479569 14.261436077968755 8.02842754258663 0 0 0
645 1 36.225600828290766 13.320743469196765 9.452693146279397 0 0 0
110 1 43.09339157904798 13.29775124702288 8.005815024994632 -1 0 0
312 1 45.10766148907568 12.202366236586444 9.86298007453269 0 0 0
661 1 48.51764765463547 14.902598218108041 7.280972060013359 0 0 0
240 1 -0.3579337987884781 15.960499565525534 7.9483515811330765 0 0 0
1265 1 3.8641971908252213 17.189627437774558 8.470383649276068 0 0 0
228 1 8.31490477949444 15.73537712894839 8.333649265917364 0 0 0
1242 1 6.574336765096031 17.948367213559454 8.957140837328229 0 0 0
306 1 9.107215072974299 18.12396041229607 6.739200558855905 0 0 0
697 1 13.464135942088554 17.53798516233392 6.442482492213822 0 0 0
2260 1 12.958165105555072 18.249251688197585 9.450565244162025 0 0 0
288 1 17.37715276725498 18.705077935606514 9.045006300491563 0 0 0
1206 1 16.706418733157964 15.980938777435881 8.905779766760444 0 0 0
1614 1 21.526543946140457 17.245409002532693 7.337107700349426 0 0 1
22 1 26.168449674300255 17.063735410056516 9.210973153435791 0 0 0
2636 1 24.080258321117267 18.284562869988893 7.650791560747626 0 0 0
1567 1 27.613461317450337 15.15703848382729 7.829175898463722 0 0 1
669 1 30.08758269611446 16.551800203004177 7.15853503307808 0 0 0
104 1 31.364841900085484 16.610806868523444 9.598356348682245 0 0 0
1768 1 35.547649050511836 17.43598672305117 6.957218023283122 0 0 1
583 1 33.87612007704291 17.716761269241513 9.151249394786046 0 0 0
648 1 37.95524268186631 16.98286337583571 8.314780777592292 -1 0 0
700 1 40.19991709362996 17.61682113335928 6.764721916110901 0 0 0
707 1 42.531199888555754 17.5235759246368 8.39993130492231 0 0 0
243 1 44.2912961290112 15.709668388813558 7.630834138656226 0 0 0
922 1 46.71178545163739 16.553652377582637 8.698095364936623 -1 0 0
3623 1 -0.02771424830039193 18.3128305273948 6.574370903746954 0 0 1
2699 1 2.10050404724441 19.287386589392835 8.42835350781353 1 0 0
3755 1 3.5033741158496188 21.129345458112205 6.60738910524625 1 0 1
318 1 5.997394080871915 19.755377250629188 6.948521863644227 0 0 0
1151 1 10.371299074114262 19.031583680132925 9.253956831388361 0 0 0
3230 1 10.13911037353287 21.835382626158317 8.560030112663727 0 0 0
3712 1 14.915998673403827 19.96487099462817 8.991281201292086 1 0 1
3754 1 19.22538195262491 19.182354290891038 7.208310477954882 0 0 1
1808 1 21.182665396715016 23.38467069063574 6.569128646394521 0 0 1
1856 1 24.793079236115986 20.62119494803067 9.163950807479786 0 0 1
374 1 29.138271449374187 21.305673397763446 9.054905879528047 0 0 0
4070 1 29.48218484631973 19.328832738266012 7.028117123274836 0 0 1
46 1 33.8587310746417 20.475616066298034 9.39528550101867 0 0 0
10 1 39.32547324601744 21.350362827179445 7.768445466838873 0 0 0
2272 1 43.392297160115305 20.062597000776176 8.503640760560563 0 0 0
339 1 46.07896421494671 20.62103411078927 8.013082156873233 0 0 0
2669 1 2.4115406178472165 23.70702837037028 7.01797978191986 1 0 0
3262 1 7.324267281041015 22.1050208586387 7.768986415780688 0 0 0
2386 1 35.86630761204428 22.2157902839766 13.455537066726464 0 0 0
3173 1 14.254692354187403 22.3712834672133 7.037957496930325 0 0 0
2427 1 16.853206772071452 22.98077645089036 7.3311199169256325 0 0 0
188 1 18.81819902062583 23.16038781599636 9.442175218287993 0 0 0
1624 1 24.447271646438008 23.133798702767074 7.908092195465386 0 0 1
347 1 0.10237202035036874 24.544853275553415 12.626162852019938 1 0 0
50 1 28.734398012243933 23.362404491300847 6.9962902430844105 0 0 0
1178 1 38.16503175570112 21.768478942873948 14.842826468850712 0 0 0
887 1 33.64473454368698 22.042918129256382 7.218660087180697 0 0 0
361 1 37.54971850458296 23.183313170661087 6.840316669474722 0 0 0
2244 1 29.781200082991994 22.658621887486134 15.120340205380955 0 0 0
2522 1 42.038615513439325 21.779565387202695 6.902870443997427 0 0 0
2316 1 46.37917303164317 23.184617700631804 8.92419523464845 -1 0 0
420 1 50.582701762907725 23.78068245127193 7.35621284738455 0 0 0
637 1 48.80557147509797 23.607876092418078 9.817712222586797 0 0 0
834 1 25.70088477288343 12.762098461302408 15.905744455329309 0 0 0
379 1 2.318557011771403 1.4867886284878256 12.272414157649601 0 0 0
2103 1 17.297381487089325 21.625182783738502 15.511871880536358 0 0 0
2603 1 12.609317275347408 0.40594288900640474 12.373306118068944 0 1 0
3454 1 18.732038065022504 0.3401132421271015 11.528534191705562 0 1 0
120 1 9.72294724436046 24.88240042037255 12.26468891091556 1 0 0
474 1 25.292550570741785 0.9885382773769424 12.926512334784258 0 0 0
1334 1 27.87639608668893 0.26304917208917944 12.29830422199481 0 0 0
2997 1 15.407169202766564 6.145543678738864 14.98911978219883 0 1 0
75 1 34.07097391272361 1.017811885554941 12.812893207271214 0 0 0