LAMMPS data file via write_data, version 29 Oct 2020, timestep = 800000

4175 atoms
1 atom types

-0.636332431336907 50.636332431331056 xlo xhi
-0.636332431336907 50.636332431331056 ylo yhi
-0.636332431336907 50.636332431331056 zlo zhi

Masses

1 18.015

Atoms # atomic

2870 1 2.982872980152737 1.4937141751186775 0.7537590567006569 0 1 0
1770 1 5.407966563960788 1.5792701397288877 1.943182905309695 0 0 1
4175 1 23.874769799478507 4.067797677977041 -0.29226898049646943 0 1 1
622 1 20.49941970546801 23.28198951260593 -0.22918259289719595 0 0 0
3302 1 10.423842055235221 1.9496307978933825 1.174717494357225 0 1 0
2178 1 13.263861043302278 2.1685952729352524 1.812224574377998 1 1 0
1828 1 18.357059044597165 2.361854311470394 1.140644096654615 0 0 1
3503 1 20.880121805053435 1.0392893908288643 1.6142467273944665 0 1 1
576 1 22.75771529321285 -0.435070167837211 8.28322832749553 0 0 0
1631 1 19.673806047796614 14.410321020844512 -0.3542384250323603 0 0 1
636 1 41.14332610260125 24.78400493362967 16.328561602620717 0 0 0
1414 1 34.79577184512772 1.8661916883828398 0.517840990030598 0 0 1
2608 1 25.12162749356595 -0.14673189418336863 0.8916310050389624 0 1 0
3792 1 30.156955098845728 1.1574202318480156 -0.276884089090373 0 1 1
2207 1 20.330161673253464 24.773976928186322 15.149404651708453 0 0 0
4112 1 42.52806849427685 1.7845845989754592 0.16394802763994343 0 1 1
2447 1 45.482660293854764 1.2785019438812362 1.015695245556122 -1 1 0
1757 1 42.67807415616349 24.758041685024345 4.484643313264361 0 0 1
3588 1 1.3789688333074244 3.048921547685311 2.246901716476422 0 1 1
3715 1 1.5141418951690016 5.675147061276879 1.5986155041119239 0 1 1
330 1 6.760816790402916 3.728370238553701 0.9432171264510567 0 0 0
2687 1 9.319614740164122 4.437892709547351 1.9002001040237535 0 1 0
1925 1 47.65114386471724 24.758766468275923 14.416472805239417 -1 0 1
492 1 14.865890941878252 4.411477507246404 2.4817456967458704 0 0 0
1998 1 19.974060157400476 4.723098415544324 0.7327832799882379 0 0 1
1417 1 22.178244427820122 3.6246100750718933 1.7574805404994454 0 0 1
2655 1 26.044628874767398 5.259678771853462 0.8398173322024929 0 1 0
1323 1 6.728431710349791 -0.24386762169370935 12.130389474254201 0 0 0
410 1 29.74961003406171 2.8189869463495083 1.9847447294597873 0 0 0
1704 1 45.012687766131435 21.281046019749404 -0.1918413118163284 0 0 1
3797 1 34.29902060406923 5.292548672280631 1.094524478462419 0 1 1
2394 1 38.32250304065158 4.41116390599377 1.6931867722609817 0 1 0
2325 1 11.179828576082143 15.285552908143465 -0.26706152770899716 0 0 0
375 1 40.57022063276759 5.8702616400675725 2.307494456555448 -1 0 0
589 1 45.81947674749759 3.8475492126210904 2.049274164503019 0 0 0
127 1 50.022725267355014 2.6918168107992484 1.4697269815372236 -1 0 0
2190 1 -0.22231700174397667 7.4823799017816786 2.8025173170729443 0 0 0
1429 1 3.7565824599914377 7.304415944872544 1.831237431049459 0 0 1
1416 1 46.660235969010714 16.546131313600487 -0.41517361769577166 0 0 1
1988 1 6.71407982193069 10.505291145668215 0.014696210557273659 0 0 1
169 1 9.089990724319147 9.211878634718524 2.474059450719888 0 0 0
3559 1 12.970658013878023 7.6123059904010955 0.012181632018638977 0 1 1
1972 1 11.827041129775 9.29259193105363 2.1110798972842018 0 0 1
1758 1 15.117114458087805 5.830195805483355 0.339651859761835 0 0 1
1819 1 16.41921176386155 7.947410327583315 1.5731506632443653 0 0 1
125 1 18.67603243025779 6.408513355265774 2.319233026107836 0 0 0
121 1 20.478519178997 8.499517534332927 0.9285150784579925 0 0 0
2523 1 23.11632549207479 8.13793903853861 0.42544553694612364 0 1 0
3830 1 24.28581076109813 6.639023574568888 2.3730017730860307 0 1 1
1777 1 21.04617264204938 -0.2881483118128968 13.849495119791543 0 0 1
1674 1 31.247391205072073 5.043728861958439 1.635964921485642 0 0 1
486 1 9.963649391091764 0.9923409112923411 5.308350403427258 0 0 0
1479 1 36.491228794622515 6.581026632909541 2.1335411740617953 0 0 1
339 1 37.04459316344348 8.748822823041081 0.12045284355971231 0 0 0
2031 1 41.4247093823986 7.486021813387346 0.17539913776996108 -1 0 1
2792 1 45.535417227593754 6.303802051615519 0.8018169999253706 0 1 0
343 1 45.365247329331 8.291617211295172 2.7475206217109256 -1 0 0
1731 1 49.55542974309327 8.386218469013144 0.7299068478713122 -1 0 1
502 1 3.985968275396293 9.876415341593752 0.73092752662461 0 0 0
294 1 3.915885279372673 12.030232697932792 2.890042984850893 1 0 0
2667 1 8.10452607195541 11.586588536202411 2.7022630895003337 0 1 0
421 1 12.651073107270964 11.848020007919352 1.7212353923368178 0 0 0
301 1 16.263725212347776 12.005834716296622 0.15114798788962647 0 0 0
1670 1 18.314062270570734 12.825258674216993 1.5482376713314938 0 0 1
1989 1 28.86306689178314 9.056838191857679 -0.01955421312411232 0 0 1
1519 1 26.687498014023163 10.947211789792075 0.34408563719606033 0 0 1
360 1 30.443954371526775 9.489967844429342 2.2246994815303256 0 0 0
665 1 32.93920006782622 10.983004654890298 1.6938173362176339 0 0 0
1753 1 37.49108427583286 10.67299338065405 1.8072947301966589 0 0 1
594 1 43.28421652846714 9.316984324797762 1.7076615949139335 0 0 0
1644 1 43.95888115668596 11.929629994494679 1.0031243018842884 0 0 1
9 1 49.79811430414961 -0.1302806603743626 1.6997419237848654 0 0 0
2029 1 47.54036639884775 9.861968725959958 2.105322409021705 0 0 1
433 1 26.788282068590238 -0.16780877947491224 4.405954745810436 0 0 0
1986 1 3.8344012505521974 14.246213607954507 1.314581422685847 1 0 1
1765 1 7.863831482259707 13.081794625679787 0.2678664674695981 0 0 1
3345 1 6.030863714607877 15.187893086168021 -0.10401263159534169 0 1 0
2130 1 10.571939312264165 24.101440515481155 -0.11017809729472772 1 0 0
2210 1 15.117105714859871 11.720552152327008 2.685922711286954 0 1 0
1498 1 40.154809515543846 0.26799978034144345 -0.04321457076870627 -1 0 1
753 1 21.788695315739528 12.849373458157245 0.3230503770026637 0 0 1
1118 1 23.130455582390262 15.207468405976018 1.2464241621948868 0 0 0
2411 1 7.9358270651862135 8.145495082363233 0.15670143066012632 0 0 0
666 1 28.947425345489336 13.108433666972681 2.2782434662343642 0 0 0
2077 1 27.067922180081236 13.715256499219473 -0.09318682652021248 0 0 1
574 1 31.588573553680835 13.608132637269707 2.4413388374451226 0 0 0
2481 1 34.799785000101366 15.574193231595178 1.2660712743538955 0 1 0
2304 1 37.871627350615626 12.54646152069895 -0.12132148759996764 0 0 0
80 1 39.082077101394034 14.788238531843978 0.7347645855063023 -1 0 0
1812 1 43.083515902827486 14.15646816503449 2.191160412031276 0 0 1
1680 1 -0.5809553340764001 13.765653417816559 0.4729056851132474 0 0 1
657 1 -0.4662374537849933 16.25512514092339 1.0404419112015442 0 0 0
544 1 4.570923632942114 18.558156419756944 2.099807562024163 0 0 0
424 1 7.026128034091185 17.743964864868524 1.093262804478273 0 0 0
320 1 8.831730573841325 17.603637480026777 3.1626052556274793 1 0 0
1433 1 32.653580935264074 0.021964452710196314 -0.520237403759062 0 0 1
1794 1 15.012614903044504 16.022539175606724 2.167492830752985 0 0 1
2096 1 16.660066309950842 18.362171287479864 2.3819088746471997 0 0 1
4158 1 20.788728353918795 16.76711983320687 1.101619917595457 0 0 1
676 1 28.266688398376164 17.411042321833463 2.4525612292646755 0 0 0
347 1 30.806643648811924 18.14302135569418 1.4370695456284697 0 0 0
3438 1 32.04255774047489 15.781100112411394 0.6545075926813051 0 0 1
1729 1 35.97681573153574 18.148074156585743 1.2336325882580403 0 0 1
656 1 38.816058948595526 17.713092286137865 1.483249218976911 -1 0 0
439 1 13.855587371189774 15.276594709627012 -0.3128819454123861 0 0 0
559 1 44.182290680842726 16.584731218264963 1.0718199352605247 0 0 0
1133 1 3.86053563830208 0.4333966475493751 15.521678097264942 0 0 0
2020 1 48.6313506717528 18.006682523996346 1.087369424276248 -1 0 1
1159 1 0.6074050658487478 20.89577676265496 2.067498921569931 0 0 0
437 1 2.5889056643500648 19.675109750222937 0.5254352498723978 0 0 0
2431 1 9.797360405021381 19.879676745231325 2.017117929523233 0 0 0
1657 1 47.948044129277875 -0.3865882284280278 11.525098842884617 0 0 1
1096 1 36.82463316687726 24.71547612354625 15.674916291576327 0 0 0
555 1 12.670031880317952 19.260617500706015 2.1265798259456425 0 0 0
2166 1 5.657055830684056 6.2664896685475595 -0.009950245083416687 0 1 0
2604 1 17.478296949392917 20.041793256144476 0.4018963380120768 0 0 0
3756 1 19.90297012568296 21.230209502310746 1.6593695905105155 0 0 1
2541 1 21.99276797517866 19.12417300661405 1.568669407291662 0 0 0
2485 1 26.180849688131108 19.207577400977648 1.9166580014303656 0 0 0
2809 1 27.0507611971134 21.62005037014267 1.2277872628373239 0 0 0
701 1 12.52636196021115 -0.5244193500466083 0.3589980109418669 0 0 0
2397 1 37.531500924413066 20.80822341763911 1.8821618336271388 -1 0 0
369 1 40.44140911574337 19.39874835596055 -0.02356731765730291 -1 0 0
812 1 44.336106679759624 21.032349251955136 2.437342941889379 -1 0 1
283 1 29.69681023273468 24.787156996242697 6.611364812305014 0 0 0
642 1 49.51552828194069 20.598506698560595 0.7902910232187037 -1 0 0
2373 1 29.882565062332205 24.878725378289555 14.810840452393132 0 0 0
2637 1 2.871390025303319 24.306183475513787 0.9252911707801259 1 0 0
2416 1 10.89518267599969 24.08916549194659 2.6643962747033707 0 0 0
408 1 25.925957853707942 22.489607446952107 15.10580706038974 0 0 0
2581 1 14.570638123954431 23.85437257119375 0.6134646090020315 0 0 0
1430 1 30.67183139189832 20.08738912506475 -0.5363802423987345 0 0 1
230 1 25.089794411615454 23.380632031451725 0.8232470478311915 0 0 0
3920 1 32.834163662390665 22.701754444588133 2.2794031074058623 -1 0 1
6 1 44.71850777300091 21.631589720777402 13.355119974899239 0 0 0
1656 1 36.769024231037776 23.93803593891342 1.4147986368444783 0 0 1
3993 1 41.80905989555161 21.440204172931136 1.1524668191018317 0 0 1
679 1 41.293110534482494 23.878383001205854 -0.050487368068923066 0 0 0
1362 1 47.48175225570722 22.454334436595243 0.3967759250813401 -1 0 0
639 1 0.6659555259512973 2.4505201772448872 4.910417200638835 0 0 0
1094 1 2.88243091650966 1.7513497910460276 5.917052824985331 1 0 0
135 1 7.377428552573088 1.5697269525237831 5.905221913839761 0 0 0
2788 1 41.29757317672143 22.05266913434536 14.638162408505469 0 0 0
247 1 12.260475630174547 2.7699627350369638 4.795579093874766 0 0 0
254 1 15.80117408871596 0.3846373941852659 3.1064374275871582 0 0 0
941 1 18.870842061006304 1.1404461845029605 6.317985269269567 0 0 1
1547 1 18.43644837463381 0.15735037125933016 3.4375937779487566 1 0 1
2531 1 22.00600603080454 -0.49002908089599484 3.9501971504879183 0 1 0
2334 1 24.403813095256737 0.7222075267955506 3.3346758668041896 0 1 0
2768 1 25.12493356366177 3.331783522657886 3.798819922901947 0 1 0
185 1 31.293929655520877 0.9732116965664415 3.415577891563558 0 0 0
2149 1 36.49381538028142 0.5850066480788596 2.755439395977132 0 1 0
160 1 40.7005395626029 1.8877872629251367 4.527664385644044 0 0 0
509 1 45.39236338258034 1.7765378295751395 5.522205222349527 -1 0 0
579 1 27.84933323034774 -0.17072040819877238 0.3872347120981088 0 0 0
992 1 50.06591260022127 0.8624292332296246 5.961627613409312 -1 0 0
677 1 0.39804426979907626 4.9893982631326965 5.838688687256168 0 0 0
919 1 5.177737799296767 2.4521896223827073 4.354376701160554 0 0 0
2597 1 6.401275047546374 4.735854701613395 4.952028546229456 0 1 0
1275 1 11.291688384674266 5.072290279638788 6.044306006544532 0 0 0
3814 1 13.634127196561668 5.861263730194164 4.7577070041684255 0 1 1
4105 1 17.393748097114322 4.1342008080570904 3.235711133158713 0 1 1
660 1 17.354075025817657 3.575363908866904 5.823718802414454 0 0 0
1826 1 22.586844555401758 5.164439296769973 4.567130812920636 0 0 1
286 1 27.586030902613697 4.065181102485672 2.841943579343272 0 0 0
2423 1 33.47798737962272 2.86979045697693 2.7469814599290943 0 1 0
114 1 33.896850851202984 3.3757243581056082 5.497696612144917 0 0 0
2024 1 37.86925918932796 2.9242303494154736 3.987070041333287 0 0 1
3992 1 36.48893460133593 4.464983300901054 5.798289262144451 0 1 1
820 1 41.79844743754872 3.403534334575572 2.4368330795672644 0 0 0
2814 1 44.07241044688509 3.996846891307942 4.053905874503024 0 1 0
2574 1 47.673804856201784 2.947835527046606 6.02756942580538 0 1 0
2058 1 48.25897855917559 3.6830724057706457 3.354486992001526 0 0 1
392 1 1.3341533609475291 9.095842558760587 4.592440631180089 0 0 0
118 1 2.496872015505396 6.819976031697509 5.716770836187842 0 0 0
267 1 4.859254998375709 6.994194573473672 4.381702880427068 1 0 0
3968 1 8.890839931655846 5.30878681320885 4.498385048882835 1 1 1
297 1 8.794103535409217 7.981493025042148 4.884274708992188 0 0 0
1850 1 12.742942039284404 8.236547176351785 4.324538013140837 0 0 1
503 1 20.203010008439318 6.689855699442697 4.706301139768452 0 0 0
1885 1 23.8269399575306 7.392828922762028 5.834054802400077 0 0 1
1526 1 28.22686907676727 5.978241290507003 4.69041448672881 0 0 1
1751 1 25.921935022380637 8.256314584305507 4.218767370315133 0 0 1
82 1 30.612889290773534 7.070350410957115 3.358272988512297 0 0 0
3687 1 33.166650485450006 8.200846682699494 0.4613248449508416 0 0 1
4074 1 36.686939863898644 7.295798604958656 5.027500470036637 0 1 1
434 1 41.11505357132339 7.140721720646197 4.8071478360151145 0 0 0
40 1 38.83101243374119 8.407242512101378 6.069266021583657 0 0 0
1592 1 44.18828253182741 6.735556131926645 4.743950219837121 0 0 1
3912 1 49.598138211645875 5.817970641832162 4.5741080784522214 -1 1 1
2582 1 1.5032767400349933 11.80670308391672 4.470696141607271 1 0 0
2315 1 6.012127562960697 11.671594332007887 4.695239184770626 0 1 0
263 1 6.222012927249101 8.899800726805694 5.750903397125744 0 0 0
1073 1 10.806849345069313 9.146936860813042 6.078976313277493 0 0 0
1003 1 13.912293093003905 12.173940817949997 7.332497638865173 0 0 0
2216 1 15.313505288660364 9.283376660319327 3.925262145606868 0 1 0
554 1 15.509562682298029 10.180465022521329 6.678879677053576 0 0 0
471 1 20.203827315503247 11.032506083719506 2.092917957936781 0 0 0
363 1 21.638275012898088 11.098810169839249 4.495521220751423 0 0 0
2644 1 25.947879882664413 10.663651349360102 2.863352191445965 0 1 0
177 1 24.098288102107777 12.410933714941136 4.511704475080675 0 0 0
3569 1 28.568030568892908 10.822072693583259 3.8983428481326508 0 1 1
24 1 29.826428171662265 11.306829329079871 6.2342790091106 0 0 0
638 1 35.29229666380709 11.23960646840754 3.1030829757119864 0 0 0
2937 1 34.9582538702804 10.873631522002544 5.58755320839201 0 0 0
1802 1 39.142652167601995 11.202300424706346 6.22117171055109 0 0 1
393 1 39.70605922066187 11.353939205608572 3.4905594383316654 0 0 0
506 1 41.725503085977095 9.70404901850869 3.8152663725278764 0 0 0
359 1 43.17670243846486 11.165801654845872 5.939635806046978 0 0 0
322 1 48.727678698253996 11.267943504720918 4.191285939400942 0 0 0
531 1 50.02333411189876 9.605654839186988 5.935423875205549 0 0 0
663 1 -0.5900386466963106 12.959183789357741 3.088262707513473 1 0 0
365 1 5.886946863311251 13.99870542025894 6.353196771906464 0 0 0
206 1 10.694057532173852 12.63701278279719 3.4660247340078536 1 0 0
1740 1 15.633465755676497 14.216824432615757 4.190443376497574 0 0 1
249 1 18.42917822066037 14.294512551547863 3.865655660959894 0 0 0
3752 1 19.624786052859104 12.818069893896803 6.179803139155489 0 1 0
3541 1 24.585019031978 14.914053072826635 3.76949701105175 0 1 1
1512 1 32.504202564473076 14.640835645459745 4.589896615417897 0 0 1
1597 1 35.08377725085519 13.874098528913372 3.490096273276823 0 0 1
1288 1 36.7184967922814 14.636814774871356 5.874216591050044 0 0 0
2614 1 40.470506053077884 13.818462913655772 2.714754312377123 -1 1 0
295 1 39.33282842979624 15.035882803782824 5.0284977374535895 0 0 0
188 1 44.12011558394629 13.428146994444464 4.558822334395675 0 0 0
214 1 46.99195123118288 12.8900341189335 4.913836752917059 -1 0 0
610 1 50.427001406048014 15.325667903769627 4.547463938379746 -1 0 0
54 1 0.5284903296173835 17.210872053059642 3.3392229601726395 1 0 0
158 1 3.2118314842252684 16.34866730872004 2.9223272198201435 1 0 0
530 1 4.173712706134755 16.180641811720815 5.597618968232254 0 0 0
2889 1 5.425538619799326 18.543691574528516 6.234984480717492 0 0 0
1752 1 8.136865542648739 18.184183741511642 5.798057189017564 1 0 1
356 1 10.324084013591328 15.416313071281728 2.444507693613005 0 0 0
2619 1 12.57373749087143 16.81370778241319 3.1599644543401824 0 0 0
548 1 19.05488404326887 17.073144773591853 3.2051824786283882 0 0 0
1910 1 19.74849998249928 18.728284414255583 5.519687727346147 0 0 1
269 1 24.106229251410028 17.11267508527943 5.715390431810262 0 0 0
119 1 27.24898043351558 15.034107604934446 3.4131918382984967 0 0 0
2000 1 32.78958407203487 17.23068475180088 5.803770815922093 0 0 1
2786 1 32.404192663032916 18.904386030782092 3.5793105256445577 0 1 0
2206 1 39.12156088487052 17.671362159640385 4.071528619978661 0 0 0
2081 1 43.65341798679587 18.068329065309282 5.606880010834351 0 0 1
1489 1 44.99132657926285 18.400986950110628 3.219052838696992 0 0 1
926 1 47.48581466576843 18.201625796875337 3.659033299994406 0 0 0
1653 1 47.97806669227643 15.793587445351363 5.043907602157711 0 0 1
3273 1 0.10973322979766864 19.457980258400216 4.492552194401471 0 0 0
450 1 2.478468098642639 21.22708572500002 5.794102244571507 1 0 0
311 1 4.726593299352143 20.258424882437758 4.312313652403176 0 0 0
56 1 9.16599314175852 21.961684655273874 3.793586272440618 1 0 0
967 1 9.388292947331998 20.513286904263175 6.210005088810446 0 0 0
3701 1 13.351352517207536 22.588540242089255 3.0273689037770724 0 0 1
3542 1 15.16738879685103 20.270165256274186 3.7707994766846538 0 0 1
2739 1 17.01959544537245 21.56740166772288 5.452393837375967 0 0 0
3754 1 19.2890821477897 22.002895187934847 4.074322489586392 0 0 1
1833 1 23.952214002036854 19.015325362764017 3.6468664764277747 0 0 1
2086 1 29.09656987820447 18.536121551058166 4.807163237888459 0 0 1
2004 1 31.040524230458878 21.302493241967742 4.169434757833761 0 0 1
473 1 35.14211335018588 19.59120040598469 3.4837457484709935 -1 0 0
4126 1 36.96017533822601 19.19070201072596 5.553254726175258 -1 0 1
1788 1 40.03927090420555 21.337820471751122 3.3224991348840103 0 0 1
1212 1 41.192245620701655 19.441360516441534 5.308563632294929 0 0 0
318 1 48.78856332938011 20.141282605222244 4.768352809586245 -1 0 0
3856 1 1.3091018941086268 23.457575680507336 2.8092088449313803 1 0 1
2330 1 2.10051553636178 24.067915313653604 5.668876547177329 0 0 0
1260 1 2.5151397079399276 -0.1847579239838983 10.990705954221438 0 0 0
4136 1 6.458731312822775 22.606606416515376 4.257339146665445 0 0 1
2453 1 6.843719659661033 24.074896897819663 6.707847595087645 0 0 0
4164 1 13.171044465245 22.77884800972608 5.755668794291445 0 0 1
488 1 32.885380400115906 21.56396295326011 -0.09353445117483739 0 0 0
1853 1 19.76503720816309 24.708480823308577 4.337121623419642 0 0 1
2344 1 21.23424203915669 20.937069911500064 5.550642468575525 0 0 0
2457 1 23.828641339415192 21.6513431422927 4.680552469427828 0 0 0
2402 1 24.13783346647823 24.114429662494274 3.157197719490862 0 0 0
172 1 25.834105443980572 21.850329505849707 6.566744855108872 0 0 0
1806 1 28.95328235451592 22.592480323714973 2.96268509855538 -1 0 1
2811 1 27.712136101025212 23.670877033539636 5.194847611611976 0 1 0
4031 1 35.39337523717742 22.548799301381163 3.633431977272755 0 0 1
446 1 34.244538395555324 23.60799063305498 6.286212277136767 -1 0 0
587 1 39.707161453823915 23.577357009649848 4.599311884524471 0 0 0
871 1 42.939795006409895 22.05631755657865 4.7345800389285175 0 0 0
2246 1 47.297323512178764 22.711821236837338 5.284260780692213 0 0 0
3676 1 47.51945793846522 23.973546534161127 2.825569126074998 0 0 1
2505 1 3.4164793246910836 1.4261953288188534 8.885767263408038 1 1 0
1979 1 6.068033668833541 0.5080705693113634 9.506194666827243 0 0 1
134 1 35.59473067051336 -0.4427761541036908 5.254317495190341 -1 0 0
3518 1 10.644146289701292 1.6432450753874148 8.657777908847772 0 0 1
3695 1 14.999951256947657 1.7290374691203465 5.452828701369142 0 1 1
1222 1 15.324473756108706 -0.011023142709539746 7.601290999273067 0 0 0
42 1 39.20961914950793 24.991367455350964 9.075425783067134 0 0 0
2161 1 3.5335036444255925 22.221022194146414 -0.48386122579464375 0 1 0
876 1 21.662857149928794 0.9949445213137564 6.297387948655193 0 0 0
3023 1 29.391119029718983 1.7421250444412526 8.073345063662789 0 1 0
720 1 27.16263585174239 0.6852599082504782 6.986582221689107 0 0 0
89 1 30.943328536340786 0.3168580758334435 6.069181306516188 0 0 0
3832 1 33.72307057130047 0.910401752318458 6.73505707283172 0 1 1
131 1 39.79909566246795 1.122130532544945 8.388670952411005 0 0 0
2502 1 44.13894641237303 1.3215921736636878 7.87260206777842 -1 1 0
468 1 0.2077926705716504 4.850719850345788 8.677350587978058 0 0 0
1394 1 6.621877291111905 5.279843035170455 7.823596212793987 0 0 0
371 1 7.569662866893914 2.5917208383015606 8.48608716487132 1 0 0
1081 1 11.664723408537803 4.429057461474401 8.489536653017247 0 0 0
3397 1 15.347613757488142 5.441766603469007 7.047361595471165 0 1 1
49 1 19.382866477540915 5.0446260471050115 6.799788308028961 0 0 0
239 1 22.975907159775925 3.574054096927446 6.726828277467671 0 0 0
66 1 20.879442614804148 3.995005114746938 8.876949639143966 0 0 0
2156 1 25.913059695749855 3.300422381683502 6.8412815473367035 0 1 0
3864 1 28.935084488003156 4.374098571493957 7.097630470313452 0 1 0
2512 1 31.872096717119792 4.645156796402322 7.032907721544488 0 1 0
469 1 36.903740241934756 4.9037199713762725 8.557738506628382 0 0 0
220 1 41.69013592909053 2.6499489413453974 7.023693024900282 0 0 0
451 1 42.169444218559136 5.387264121871706 6.91487195324628 0 0 0
2398 1 45.275832128983126 3.141097256942094 9.573935474782123 0 1 0
3571 1 47.508099337624955 4.457258858539162 8.351644224758541 -1 1 1
903 1 0.7940567294168834 8.820981391442619 9.785717995049342 0 0 0
222 1 2.9089709802007735 7.686279067229419 8.2326429738696 1 0 0
2744 1 8.498804006288283 7.223556556579063 7.887726208819528 1 1 0
953 1 12.202716497648483 8.730361452037883 8.732782821727582 0 0 0
12 1 14.924963786967293 8.07004753373803 8.425796354804305 0 0 0
2437 1 18.01148496703797 6.750783223131365 8.581196862852726 0 1 0
705 1 21.15266130982319 8.922950763523678 6.04902398347571 0 0 0
3735 1 23.1855491382476 8.209249876194866 8.348775118633752 0 1 1
1343 1 27.920143489230007 6.1680356250936965 9.006754087742994 0 0 0
3956 1 26.86635401252348 7.846515447324148 7.122632403067406 0 0 1
1939 1 31.968238138198547 7.31293840411154 5.893634906026974 0 0 1
2041 1 34.559040616246406 8.228277411338384 6.486129941392408 0 0 1
1334 1 34.926505350415226 8.212066087500569 9.336112757611987 0 0 0
2071 1 38.35843562451207 7.279645044011165 8.402684356043252 0 0 1
305 1 44.69557520141346 5.917649863783383 8.922470369343225 0 0 0
174 1 45.693263052984136 7.62854705985621 7.082775775728461 0 0 0
401 1 48.41821806208546 7.348883369681676 6.8465996234367426 0 0 0
651 1 49.74963003190605 7.163477107103965 9.48962436818729 -1 0 0
2421 1 -0.057235638467712624 10.62213230573382 8.064246119336618 1 1 0
713 1 5.201869504769524 9.412413338313803 8.14323280901592 1 0 0
2689 1 19.15045113472123 9.199732927907647 8.049691657480501 0 1 0
1919 1 17.80297696642516 11.47854225231589 7.642263348224521 0 0 1
854 1 25.541186109461968 9.824221865972829 8.411691064197877 0 0 0
265 1 25.394003220871397 12.396305130958005 7.006221923674947 0 0 0
3982 1 29.704505977445738 8.692817038073665 7.162638086114184 0 1 1
2793 1 41.014413664935375 12.053431204011797 7.555175636646807 0 1 0
271 1 45.13644332639741 10.237895547176285 8.056313146242843 0 0 0
1969 1 49.206973735794136 11.91922165848567 9.156204633329345 -1 0 1
640 1 1.69965983627942 12.466856323209251 7.113466945952492 0 0 0
102 1 0.6615168676734289 14.853889314072005 6.902684331052724 1 0 0
97 1 4.342288498733472 12.050800376968324 7.8662363474974075 0 0 0
946 1 8.375192870501717 14.47704023320162 7.628693738758708 0 0 0
2188 1 11.57284910609003 11.626274521090119 6.00195220474177 0 0 0
1501 1 9.997852937296097 12.262465314525457 8.24672539384931 0 0 1
2186 1 14.48991033228018 14.712275049912044 6.812560772755584 0 0 0
1916 1 15.0352522725898 15.662035014935519 9.473329960964946 0 0 1
48 1 21.331925626519176 14.53321801523473 7.620870721810148 0 0 0
2307 1 23.74344380325303 13.655274605642841 8.756407673300508 0 0 0
11 1 28.057259777845857 13.074713024144561 7.4591031176312335 0 0 0
2013 1 31.06164725920359 14.919459813679396 9.424096013344162 -1 0 0
3582 1 32.49598982627042 12.157861983013904 6.094044898661897 0 0 1
769 1 33.205146450776994 13.075854843551529 8.830618544581657 -1 0 0
1180 1 36.768832926552136 12.165921523015653 7.249578494144986 0 0 0
2097 1 40.94289929646632 14.804172466614563 7.265926232871692 -1 0 1
3635 1 43.505778830917976 15.454134209696036 6.305237033378487 0 0 1
1043 1 46.84695907199071 12.441423308566053 7.763808988180443 -1 0 0
4081 1 45.46479125412962 14.872749426876652 8.588828343530711 0 0 1
1786 1 49.924465311644056 14.713402028417239 9.226175129224622 0 0 1
405 1 2.221373056856941 16.996602560909004 7.660053684970199 1 0 0
1119 1 10.041696307665179 16.65633053225446 7.132681501829212 0 0 0
2310 1 12.631404413233788 16.618860292567746 5.856606051169607 0 0 0
672 1 13.825044385630427 19.0843832881415 6.0572420470009325 0 0 0
2654 1 15.555365814989788 18.003146912090315 8.018867833470331 0 0 0
449 1 21.568936466176858 17.136416580171886 6.641071052749088 0 0 0
3432 1 21.58316742739117 18.454749380597303 8.919729215270369 0 0 0
275 1 26.3362982346628 16.859849163935426 7.521703859126582 0 0 0
1618 1 25.44724758661308 15.676557386488554 9.89793332727745 0 0 1
187 1 28.564986483717448 15.64086702054366 6.0280503790161974 0 0 0
902 1 30.46738200521941 17.035861258111858 7.58262555955559 0 0 0
1164 1 35.3248809147354 14.933936130712395 8.397524012216369 0 0 0
2224 1 35.16805678002251 17.597331479408886 7.011592336970326 0 0 0
2107 1 39.51856056038993 16.66785574724906 8.820585204340954 -1 0 0
1557 1 38.168724674493944 18.99384182132162 8.271365945843929 0 0 1
2653 1 47.70290311686351 16.16370137073158 7.934141081629148 0 1 0
774 1 0.9920418362339702 19.269089643932382 7.3665886028792595 1 0 0
1352 1 5.712372714891285 20.203941103412543 8.452941660087895 0 0 0
2384 1 7.786577010670008 21.715252658815302 7.930685018576041 1 0 0
2455 1 12.01680945636673 20.874192723590177 7.103364598660184 1 0 0
1128 1 17.323073315338583 21.636325707643127 8.429543468763388 0 0 0
693 1 17.94676967997576 19.090826981872606 7.452492549044079 0 0 0
104 1 21.37719043086048 21.13018656103616 8.396355389406164 0 0 0
514 1 27.49608297332238 19.329186875514797 6.9125795602797 0 0 0
298 1 29.484889038326234 19.3339529437601 8.923007541824795 0 0 0
2446 1 31.573518734086388 20.978669671155608 8.883336142268778 0 0 0
3858 1 34.00595961842744 19.298583955274196 9.023717811333722 0 1 1
165 1 40.260227710154055 20.75671167995238 7.530260794530312 0 0 0
3983 1 44.5875024748554 19.597625016751163 7.5227189206242056 0 0 1
1699 1 47.286941516967744 18.912177344988446 8.301067993229347 -1 0 1
364 1 49.37216551415881 20.409292787876222 7.590940803588426 0 0 0
387 1 15.151337553614962 17.027631718762358 16.180225302892325 0 0 0
990 1 3.758728096660991 22.189108719612843 8.110161294748677 0 0 0
2179 1 4.419715011891054 24.98195061881916 7.272410781119735 0 0 0
370 1 15.27847818028169 24.349666599049073 8.818977334101765 0 0 0
2327 1 15.998906183735777 24.069439462662782 5.928847769475698 0 0 0
2023 1 5.294426611804569 24.8698464590995 2.629804594581955 0 0 1
669 1 25.00634137047789 23.52720087837514 8.695310511308012 0 0 0
2087 1 0.7960737788996863 24.35476524839319 10.790236550888833 1 0 1
1630 1 31.62996866875581 22.752693382574687 6.547700938287157 0 0 1
2680 1 36.242042023967244 21.914212860163016 6.849990090129902 0 0 0
258 1 34.06718429741791 23.993180219504115 15.847871223276965 0 0 0
585 1 38.94688296238448 23.020277009278356 7.172214669093545 0 0 0
402 1 44.94759049167861 22.517155547397195 6.616046593483986 0 0 0
3009 1 43.70091330074466 23.441376958093315 8.776136360282852 -1 0 0
972 1 49.35219817362383 23.462978885706168 7.211974849404335 0 0 0
217 1 25.193921746749492 24.747198244293244 13.912822793025555 0 0 0
2703 1 0.7834289343541581 1.699872778837003 12.225500435961868 0 1 0
540 1 50.07623224380865 1.2711597703423116 10.305446368645223 -1 0 0
3150 1 8.05830783954838 1.630398124314619 13.519263688883976 0 1 0
107 1 28.052042972343084 4.8358957486630745 16.1624062156179 0 0 0
1038 1 12.351736460941746 0.9407667141450495 11.254992070376948 0 0 0
3193 1 14.738281399377861 1.5882505339681798 9.845896802880894 0 1 0
2247 1 16.777078169583213 1.6535632836580567 11.83012588636957 0 1 0
2158 1 18.773036139082482 0.4183060422477973 10.298230344213355 0 0 0
138 1 21.3882425466952 1.442629365874215 9.744170346185177 0 0 0
1001 1 25.05357164959671 0.3167144238997134 14.474719613697525 0 0 0
2311 1 9.884296885004279 23.218502784499425 14.29714266841077 0 0 0
3433 1 29.218568846746134 0.7183915421245721 10.911352347792725 0 1 0
2319 1 32.50136699964233 24.918519051242193 11.454061722526653 0 0 0
629 1 34.096512470387225 1.433219357596173 9.580047044588529 0 0 0
268 1 36.37941001214986 1.491334833468163 11.123230381117152 0 0 0
228 1 40.94733414364789 0.13085229533517728 10.8745967788436 -1 0 0
2295 1 42.01747582403621 2.1290723271027705 12.286325616244872 0 1 0
1219 1 2.48927229552293 3.997845052686923 10.070957983063247 0 0 0
2388 1 1.3715756575399913 4.493399554609158 12.923558419831258 0 1 0
340 1 4.478363750080729 5.79310888255321 9.594725465955772 0 0 0
4079 1 5.287255229248439 5.791169750938384 12.271738991383396 0 1 1
1330 1 10.53882046750659 2.7569759124069684 12.458328383297927 0 0 0
100 1 10.670741237865764 5.547753532640932 12.388627284170546 0 0 0
192 1 14.007150291306887 4.387713096255995 9.455234170943974 0 0 0
690 1 17.10679251361755 4.6067155826809785 12.257181188622365 0 0 0
332 1 19.099963887135324 5.820909874868973 10.796645703854193 0 0 0
2326 1 22.56827795603181 1.2707042412535654 12.253142180304803 0 1 0
1166 1 23.209113815540704 5.663214651911852 9.073789706475974 0 0 0
3642 1 25.819745127865396 4.428004979898749 9.494563276117312 0 1 1