LAMMPS data file via write_data, version 29 Oct 2020, timestep = 800000

4175 atoms
1 atom types

-0.24024034662466676 50.24024034662553 xlo xhi
-0.24024034662466676 50.24024034662553 ylo yhi
-0.24024034662466676 50.24024034662553 zlo zhi

Masses

1 18.015

Atoms # atomic

2948 1 0.10570650629938766 1.8948741355511038 0.7422992139507149 0 1 1
2678 1 2.0904877794513443 2.2772721682060926 2.7837683333634056 1 0 1
1074 1 20.163791329522088 23.766046216134566 8.74724217592892 0 1 0
662 1 40.628111281330234 14.610163058455406 2.670860470331777 0 0 0
3102 1 11.202397152803734 1.7552446028089737 0.7045123906379521 0 1 1
861 1 32.470033615550875 24.504724424923566 12.820509595409236 1 0 0
3320 1 35.3023894141279 23.849461286227793 12.111423360188846 0 0 -1
1972 1 17.804402337238272 1.7491147544470675 2.1582732982211636 0 0 0
519 1 22.047823780399163 24.66060790196414 12.452931508701994 0 0 1
1676 1 19.154851850980094 0.208343893552269 11.52669172389245 1 0 1
1878 1 23.067631418524613 0.539926138597368 1.3727653530839894 1 0 0
4022 1 6.976517196022978 22.084148915376904 12.53360146617001 1 0 0
3532 1 28.75383169012344 4.546560744080146 2.443388215541267 0 0 1
3021 1 31.05919117904416 2.7827786999109505 2.030194316513902 0 1 1
3721 1 5.688609512786105 0.5078236440574248 3.3764413840286402 0 1 1
3072 1 34.70699311469037 0.45636007764893316 1.0558311835629204 0 1 1
1804 1 39.98469279090187 1.6393160262884756 1.2946343043618251 0 -1 1
2791 1 44.45029637805305 1.783342029010976 0.9319974303116472 -2 0 0
4116 1 46.71976764841561 1.648120348638234 2.455500590612354 -1 1 1
2683 1 12.47224828642982 22.87445172210284 12.59724582675099 1 0 -1
3335 1 5.962206795957309 4.739243448638679 3.0128968243290326 1 1 1
990 1 15.891255023563193 8.845821333969965 0.616172240748165 0 0 1
1812 1 8.55167029013969 3.479759723206859 2.9670593843395285 1 0 0
797 1 13.845402901019042 4.378557985457897 4.018376733834991 1 0 1
774 1 18.862832856032554 4.136424575727799 3.1044287526789502 0 0 0
2800 1 23.82215677805731 4.100266565244285 3.3809972965804254 0 0 1
3623 1 44.08255858954128 12.61710272423738 0.3093155264847387 -1 0 1
3615 1 48.540887333884115 0.1078749786751555 1.0114978769036258 -1 0 1
1289 1 9.76218509560127 23.017377499135108 7.676008712043703 0 -1 1
4099 1 35.36340158947542 4.533831959224668 1.6387662194088606 0 1 1
52 1 37.71869808764348 3.2295254118180168 2.0742401442170104 0 0 0
2572 1 39.32281776355509 5.343539840683839 3.0502661216597144 -1 1 0
4018 1 42.34589621942439 3.013948190994273 2.1396593695736335 0 1 1
3943 1 11.911125265006811 24.067315353071045 3.5904214357539206 0 0 1
1023 1 48.12498351836337 3.59949668101853 3.775036085232898 0 0 0
2578 1 0.5981910813091583 6.0624034527565085 2.437230861143715 1 1 0
2035 1 5.122803006762061 6.473211623233488 4.952203262529371 1 0 1
2300 1 9.771605949186316 5.359871317449124 1.4208696564871695 1 1 0
514 1 12.456987960692363 6.030729066393748 1.9430546194821972 0 1 0
2044 1 34.276895240387205 8.708942447639235 0.6197239963245078 -1 0 0
68 1 27.69318028880841 4.722085871878183 0.08584626375084886 0 0 1
2927 1 19.431921800102224 5.857433710701526 1.068463439969719 1 1 0
1359 1 20.988669867245687 8.269751293909165 1.9385218075274544 0 1 0
1243 1 28.082014410095546 8.81808542490236 1.6868444856436804 0 1 0
1338 1 31.841685237930356 7.525610266568675 1.2027393808119657 0 0 0
245 1 36.656633191063875 7.1434588918818225 1.034938748745104 -1 0 0
1429 1 4.701608096177613 4.9768426054375015 0.5391153493631685 0 0 1
3850 1 18.72183419154364 -0.1650407444603581 6.371902841719715 0 2 1
2282 1 40.62758997601934 6.4423142182785265 0.8996186519329212 0 1 0
1592 1 42.572626095148635 8.563062192540826 1.4282992379542285 0 0 1
1319 1 45.05092310059731 6.573675431477593 0.5605907488067531 -1 0 0
3190 1 47.09803211553382 5.999050967074678 2.157121978033572 0 0 0
1585 1 48.69875765539138 8.170256477258802 2.0856544479367987 0 0 1
2720 1 2.1550065818123794 10.305765442940249 0.432342292804307 1 1 0
4011 1 4.683678487757278 9.244115940878162 1.8639308035314213 0 1 0
788 1 6.043947428005066 7.550041821421565 0.32503467271431674 0 0 1
4155 1 8.456172750639874 7.779611278868323 1.2432839282329624 0 1 1
3522 1 11.728607742492473 10.04295077304909 3.548041405964474 0 1 1
2900 1 16.639355952821916 9.48015137583835 3.2785637799511953 0 1 1
802 1 24.189274509470803 11.356912882109876 1.172538434183209 0 0 0
3238 1 43.55560540044045 24.433382964163002 3.6990423204622402 1 0 1
2426 1 25.874373015155538 10.15418874981314 2.8598732871019337 0 1 0
1927 1 30.34658122212178 9.883113524968817 0.47607485557370643 0 0 0
35 1 31.25748958918369 12.220886215774796 1.6215981963259054 1 0 1
3418 1 35.66652459604626 10.206967996873864 2.0847014365191634 0 0 0
1410 1 38.29810677229588 10.5094479370506 1.110874419251182 0 0 1
3168 1 13.38329057364313 3.6085511055888224 0.7354146266898316 0 1 0
922 1 10.179762786848606 24.286277934674473 11.85045498401689 0 0 0
1695 1 46.23853815794975 11.369747181060108 1.5227369036862584 -1 0 2
1889 1 4.663951365606046 2.023302540389444 0.6616044060754773 0 1 1
1817 1 -0.23175346959290646 12.836665578619884 1.3916583400916493 0 0 0
2618 1 4.799849688034013 20.733179261967155 0.010782933518293292 1 0 0
2686 1 9.300494116542469 13.648286310977316 1.5372369875552006 1 0 0
1158 1 41.88960573348118 15.057710261067859 0.2037132451732896 -1 0 0
3381 1 15.767239576548494 13.920427139887245 1.9545238344561153 0 1 0
1581 1 19.75889709586286 12.248599858686445 2.2049421149947945 0 0 2
942 1 18.632457385350747 14.973525168562343 2.1884842736500123 0 0 0
3697 1 22.36192433103222 12.933940763064514 2.301292793848017 0 0 1
3857 1 28.84375960127697 23.83582323731935 12.051333309819087 0 0 0
1528 1 27.393546834907305 14.146191028101265 0.7495355755511564 1 0 1
2433 1 10.876607033969576 13.543993781386408 15.743085842585678 0 1 0
241 1 12.171296299176246 -0.13430749171545425 9.614555849685726 0 0 0
1049 1 34.06739680618441 12.618161964266607 2.2839870949760197 0 0 1
2358 1 17.94440963550395 23.92936771376398 2.9101408075907953 0 -1 0
2354 1 43.425707290634975 17.147158443744395 1.7859792639553822 0 0 0
1053 1 48.02976069901262 13.007373641237887 2.9327183941234627 0 0 1
3158 1 23.818336949441775 -0.04062248855609668 11.408395799187847 0 0 0
2897 1 5.079434292408324 15.223534889533665 1.9368851579796007 1 0 1
1980 1 38.93760423848767 1.2896580957435102 14.255968343854681 -1 0 1
3700 1 13.418010161253877 15.22206010415462 2.2438346385594032 0 1 1
2450 1 17.557763676361258 17.679681659217295 1.5576481529659163 0 0 1
1913 1 19.605072350409422 19.22525559444314 0.76656612298559 1 1 0
2294 1 27.92302119986437 24.191648953697044 16.22261108069621 1 0 0
1915 1 23.021812449394655 15.309151324521507 0.566065596168433 0 0 1
2098 1 24.036479148404677 16.40962698638486 3.1619308274906945 0 0 1
3257 1 26.624304656819323 18.815913602621183 0.6850328714232223 0 0 0
3976 1 28.49964047147318 17.03301358864856 1.388174925631597 1 1 1
1616 1 31.63675720631853 16.432860241061984 1.4215768020129287 0 -1 1
2837 1 38.27742053214603 13.551954973687673 1.4982702906516452 -1 0 0
3120 1 33.45767035883485 20.130412151390814 2.9396621820287714 0 0 1
2799 1 39.040153452762915 18.47911764737264 2.956307615042546 0 1 1
2931 1 42.63229022009319 21.312545297758806 0.9899120805316621 -1 0 1
1262 1 41.170757719285156 19.0617817781788 1.2284281452569679 -1 0 0
3594 1 45.830894046981875 17.73648966370989 0.49468046590971515 0 0 1
3877 1 12.308012763405117 -0.14901849554757335 14.459396902464576 0 0 0
1123 1 48.772120181109884 17.630447745620927 2.401623568748968 -1 0 0
3751 1 3.1690446739897045 17.44150103045129 1.703354683914487 1 0 0
2244 1 5.924711040284867 18.86859514200724 2.4038123513582166 0 0 0
2979 1 8.337726060442384 19.632449703594418 1.0725315565584945 0 0 1
3142 1 31.643768575092203 21.147157219237037 14.288561005853568 0 0 0
1981 1 25.410569440972612 20.479996457234403 2.404664381122502 0 -1 0
2995 1 0.632397320492804 24.62119275339139 9.791142199532475 0 0 0
513 1 30.652917219091503 19.41467898032657 1.1950214265521357 -1 1 0
805 1 16.376992614804166 0.2501366455258753 8.093305565374113 0 0 1
579 1 29.746738153833377 0.0740330219537913 1.6200803822560517 0 0 0
2075 1 36.56142085540047 20.780606513099436 2.9807110078044867 -1 0 1
2008 1 45.29530882657774 20.552037259396965 1.7622563052439348 0 0 0
3627 1 47.514314623777445 22.45308711877281 1.0799264028370539 0 1 0
4054 1 48.0795315260362 20.36926717668256 3.60057075759107 -1 0 1
3001 1 50.102886207285245 20.479842018279584 1.8363297130849254 -1 0 0
1818 1 3.532174217450064 22.696742177328897 4.2502976576257225 -1 0 1
980 1 3.374312105756469 22.935388231154654 1.0709879091920822 1 -1 0
2603 1 11.881558161350199 10.119450213018553 0.6821568909702995 0 1 0
2890 1 49.22461417012547 21.503272244307052 13.663834651170973 -1 0 0
2967 1 11.102241661454075 8.803049299146961 16.163804213026683 0 1 1
512 1 15.498785262816815 21.071893390237825 3.357872419138652 1 0 0
2911 1 16.5229170245423 22.48571751232592 1.086555999716456 1 0 1
2309 1 22.03417991731609 21.962682451102086 1.1932646864712861 -1 1 0
1228 1 27.044295523145895 23.844750432534898 9.985715708906753 0 0 0
3979 1 24.65311838438368 22.85409200895698 1.1088768039764925 0 0 0
2944 1 14.80930732425554 24.284851551734047 0.08879013615499065 0 0 1
2247 1 17.258246403833073 0.7539953306723717 13.281391188417821 -1 1 0
4167 1 39.212426233845946 24.8626361229385 1.0256757542047383 0 0 0
3965 1 36.734879509310176 22.939615112057115 1.391029914076497 1 1 1
1902 1 7.568528600095035 0.4704374875782309 15.834511303554859 1 1 0
3566 1 20.49841613326908 8.60476737099252 16.108346997135435 1 1 0
1028 1 32.690382649493614 23.62200049029265 15.222419192388369 0 0 0
3283 1 36.42184189821989 18.326037010498133 1.5437389287675365 0 0 0
2288 1 31.566956934586756 24.86937907734393 5.853953892235475 0 0 0
4023 1 45.39742230101279 -0.08673896268455253 4.273067990464687 0 1 1
2987 1 36.545516172869945 18.624300814191106 15.276192312173684 0 1 0
3031 1 4.504836828879342 2.8977779702032342 4.027617284129859 0 0 0
2482 1 7.572712672213946 2.2469123593703735 -0.10591592021247209 0 1 1
1560 1 38.99058322095408 17.40125803818454 15.174149073655165 0 0 0
4101 1 11.04387107797506 1.2828699671080144 3.58342040714948 0 0 1
2688 1 12.303241052486257 1.4861815143390233 7.329438786748042 1 1 0
20 1 16.852305224823144 -0.15250699090948888 4.180970679393782 0 0 0
2852 1 14.74612046411669 1.2411457973382707 5.856250344659357 -1 1 0
1045 1 33.41028488283275 2.6568281282189004 0.6333041684165295 -1 0 0
3847 1 22.65247217825079 1.572548204579004 4.117558105208054 0 1 1
58 1 32.9626375223355 -0.03150529768985985 4.466477216347728 0 0 0
3998 1 27.2957195554838 0.73537787013838 3.4257672107039707 0 1 1
227 1 32.34267331004769 2.750644664239815 4.618660579716345 0 0 0
3243 1 40.78888444597326 23.727522046882854 12.741537383543848 0 0 1
2746 1 36.2512136505283 24.65440157824586 8.514180570870277 0 1 0
1719 1 37.378296983308545 1.348833589963499 4.191272305518196 0 0 1
2 1 44.2406282762327 1.9672937153062628 5.6007274581173325 -1 0 0
557 1 6.7432498436425705 10.249460418723219 15.723070981402005 0 0 0
344 1 47.92097582708892 1.2829318798318674 5.6088399267107425 -1 1 0
2704 1 0.3040989290676184 3.87143604380746 4.427799690292013 1 1 0
2784 1 49.83376411233031 5.56990244770074 6.754887016836039 0 2 0
3310 1 3.686234308973205 3.284832442898775 6.55798123201377 0 1 0
2052 1 2.378989533002986 5.712419790356714 6.060122769688557 -1 0 0
1601 1 9.568924390869196 3.6103232676220456 5.488025651870784 0 0 1
1792 1 12.151676542601544 4.407766665968317 6.152547745740646 0 0 1
3772 1 13.761178732166918 1.7458659476905365 3.283417231335633 1 0 1
3132 1 16.447725777221613 4.990336042817302 4.525451792560628 0 1 0
1369 1 20.663017670733087 3.5849593359041556 5.231899538816151 0 0 1
3909 1 21.697380686024136 5.925144076814787 5.853734371801103 0 1 0
4021 1 26.609888856760254 3.4118247087755273 3.7499930914401536 0 1 2
2013 1 26.769686231115994 4.720921543756659 6.510459521751869 -1 0 0
1192 1 34.46174797028575 4.593687392020791 4.15478430134268 -1 1 1
3274 1 35.76658170491317 4.580830767137386 6.583434895243009 0 1 1
3508 1 43.148438177887144 4.094064747357756 4.441677788208681 0 1 1
3914 1 40.75061706679469 5.010298463065959 5.270656784736462 0 1 1
1692 1 46.80030837126022 4.9393027573864305 5.865852193874137 -1 0 2
488 1 2.775873558587189 7.8922144063109325 3.4638022874172205 0 0 1
1645 1 6.991396063646415 7.0638593546632045 6.904845082891212 0 0 0
1087 1 11.882987252931196 7.066409592766428 6.710679264773881 1 0 0
3983 1 13.18493428637278 7.641600433314966 4.1322138252157155 1 1 0
387 1 15.622630800413626 7.648339546135401 4.817297124896989 0 0 0
91 1 22.898395873468573 6.7821951519379295 3.474129096124902 0 0 0
689 1 26.88787087450811 7.280152365065149 5.599824792312425 0 0 0
1869 1 24.69842971747357 8.373238729391542 4.653765020241744 0 0 1
2685 1 28.668772225543904 6.930652271992162 3.417613661981036 0 0 -1
2794 1 30.81345325405093 7.146004206447761 5.158874381196794 0 1 0
3317 1 33.011001615235706 6.927219401329022 3.7117220476788857 0 1 1
3024 1 36.92029876282106 7.3246106789845875 6.088107211179317 0 1 1
3422 1 37.901755200486946 7.569819917663112 3.2718804825103223 0 1 0
3286 1 40.83283225690316 7.962539458763883 5.3091634452983225 -1 1 0
1006 1 44.62351622026883 9.4124879407199 3.19346292086573 -2 0 0
1394 1 44.89088449664875 6.422250315139007 4.3709037185495445 -1 0 0
2789 1 47.59338380810943 9.447431981722993 4.410956874223248 -1 1 0
1906 1 47.085707981485236 7.697522425966503 6.761650929561505 0 0 1
963 1 -0.16383249048753873 7.652330893513995 4.811391456390049 1 0 1
4034 1 3.095833883814799 10.424718624670389 4.719289943421644 0 0 0
1545 1 6.143813434550164 9.072182437351385 4.51291172545564 0 0 0
2633 1 9.34327026857575 8.535895051132005 6.504620405066804 0 0 0
2465 1 8.62843251963405 9.285245052673153 3.5664125456426974 1 1 0
2256 1 12.969076174470766 12.04945714721331 4.894366720311958 0 0 1
2238 1 15.512790380038025 11.821157106544117 3.797749915075695 0 1 1
3612 1 19.528079231270326 9.83407345326388 3.4668395814376827 1 0 1
3284 1 19.94722838267175 9.809369164987393 6.29882847172467 1 0 0
571 1 30.69942789112121 9.707373490251134 5.970213741438912 0 0 0
1860 1 33.31513560019151 10.51199193060031 6.066342003638491 0 0 0
3111 1 35.044240182494946 8.762763017905014 4.457917776956681 0 1 1
3719 1 40.157950899089904 9.444232624909457 2.7952184959915787 0 0 0
2575 1 40.9500082141345 11.616388730272938 4.21766629756354 0 1 0
3453 1 42.98192640885803 10.631241951047489 5.728816555917486 0 0 1
2414 1 44.92387149104056 11.910487981638942 4.777788767530855 0 0 0
1506 1 48.34161428074389 11.94309963594291 5.3437872522035565 0 0 1
2373 1 2.253537274206472 12.3311700759243 2.6961294424660265 1 0 0
3046 1 5.328720845227723 12.26714829228851 2.7035891324499404 1 1 1
463 1 7.903860565958263 12.100028254904702 3.6201144720481895 1 1 0
249 1 11.351138953649453 13.937094340365588 3.469572913299641 0 0 0
2291 1 16.333355162767017 12.87153562717354 6.432096100010897 1 0 0
652 1 22.017407362263793 13.78959455927843 4.880856177335711 0 0 1
2036 1 26.593563225511705 13.484972325375063 5.497265150461137 1 0 0
3011 1 27.601253523640626 12.373653185902059 3.1065505939620657 0 1 0
2468 1 29.960524672817375 11.754736181741407 3.9569231808506853 -1 0 0
210 1 31.278385170806995 13.965937866513572 5.417253027882413 0 1 0
1264 1 33.92008914152828 12.874132579313576 5.021156978818332 0 0 0
1554 1 36.38948034180277 14.795990190647021 3.2813692953047946 -1 0 1
3939 1 39.7016377950055 13.700445613358186 6.090561428149533 1 0 0
1304 1 43.13110187693855 13.002203944059904 2.87019050330238 -1 0 0
1716 1 48.035606140083075 15.202957431365414 5.784863468499834 -1 0 1
1179 1 1.9737984849735741 15.108589770370529 3.20130148147856 0 0 1
2029 1 0.31611674411399693 16.987955077179382 4.312630830746114 0 -1 1
1584 1 4.340419386653417 15.12492887967883 5.109921466008092 0 1 1
3798 1 7.8750365608630855 16.32712012609559 1.996113626786288 0 1 1
1342 1 10.627710119343684 17.84237413466344 1.1419905791575302 1 0 1
301 1 13.63517532278018 17.437723506229613 4.072157272232376 1 0 0
1222 1 20.096408436717997 15.699686846543147 4.5755490809015855 0 0 0
2113 1 20.051281063552764 17.376482135871484 6.780000515266444 0 0 0
4038 1 24.309510265835268 15.053361898334975 5.500583446253291 1 0 0
566 1 26.912314990833657 17.714790498888917 3.8297864186870108 -1 0 0
3995 1 31.98083266099482 16.642677165663198 4.005668102136874 0 0 1
2815 1 34.72421725668502 17.29339084277385 3.7926465318476987 -1 0 0
1747 1 38.764746355100726 15.826703796611728 4.206112504125447 0 -1 1
2032 1 44.14358912198806 15.417280434108628 4.023199581876833 0 0 1
822 1 44.40757966868952 17.571121703697646 6.809225689967446 -1 1 0
2272 1 46.851101123113736 15.701522206403567 3.263804307380082 1 0 0
2481 1 1.4686912949674271 19.259744026116714 3.3881461760482883 1 1 0
145 1 5.818128335092937 17.518027273998683 5.10855565257283 0 0 1
710 1 4.534958117634371 18.99078962887129 6.916538720538807 1 0 -1
260 1 9.047672372624183 19.347924012428116 4.753579108053 0 -1 0
470 1 11.375282540280582 19.42551487053593 3.4352957330239775 0 0 1
1144 1 16.217117111492318 18.430502834390634 3.81582088418386 0 0 0
827 1 17.8211040830315 18.622938940804325 6.0818272911829325 0 0 0
1010 1 20.862145196515403 20.18938273874843 3.0249965467687248 0 0 0
2330 1 23.16173506555396 19.332548653845116 3.779594483080383 0 0 0
4130 1 27.380515677258703 21.322127890994807 4.004977656775111 0 0 1
2017 1 30.87927995686693 18.881145402766453 5.502706550783049 0 0 1
2908 1 30.600496952803123 20.95625191006504 3.6456736640136147 0 0 0
2263 1 34.78463431894354 22.178088502570695 4.957460873041266 0 0 1
1785 1 38.34695827828369 20.289796172831824 5.358844395650054 0 0 1
529 1 45.236723153073335 18.45464884627799 4.002467742516745 0 0 0
2663 1 46.19066701234923 22.57768618952075 4.193134811079572 0 1 0
620 1 47.90636061589157 18.0790866397952 5.636665199383623 0 -1 0
4126 1 49.17127026024032 22.09925710016046 5.6331127287737255 -1 0 1
1451 1 2.370696832876294 20.40091104097171 5.673046128743844 1 0 1
3164 1 7.1158446653910685 20.964403700068118 3.713007940181158 0 0 0
1587 1 12.89142237233842 21.498647421964048 2.7781705748407033 0 -1 0
3740 1 14.59359379475977 22.94145983154444 5.446185818063822 0 0 1
1350 1 5.51125805720791 24.53557855800757 1.8582914623419824 1 -1 1
3732 1 17.596170712882444 22.86387450390218 5.383255855071627 1 1 0
1474 1 22.082815171356522 23.421235060336883 6.392714520439633 0 0 1
781 1 45.841510243881984 21.0749558661233 9.924141008660698 0 -1 0
765 1 26.05519658762423 21.48652075224243 6.400890460381587 0 -1 0
4153 1 30.20444410843838 14.222608260782051 0.16936393723031762 1 0 1
645 1 29.064277002779317 23.51403715036349 2.813024636755162 0 0 0
1929 1 31.978693959803195 22.07719797445444 5.712190539045202 0 0 0
1332 1 14.14978843058438 24.7782945073752 14.464867891465504 1 -1 0
2133 1 35.18639726303973 24.34736453070982 3.411781479012012 0 1 0
1293 1 23.24191496395263 3.446356943430329 0.6786816898091558 0 0 0
2088 1 42.22760488538559 21.98917681119592 3.770146584676942 -1 -1 1
1656 1 46.358549394161 7.843554376477936 16.407597722851605 -1 1 1
1594 1 1.8834885887569373 1.4825150435874133 7.163813839409854 1 0 1
1947 1 49.8566160521874 2.64443933585167 7.255854214224393 -1 1 0
2266 1 3.0412466284871225 0.696653232938067 9.840445798704959 0 1 0
866 1 9.489037986500442 1.130827268174463 6.908149735749357 0 0 0
3540 1 11.349172056310358 2.39228683003208 10.95740833092755 1 1 1
411 1 12.87403845477258 3.8795579189180263 8.861238195765162 0 0 0
2417 1 15.416694698259452 1.0833890555062087 11.268946411704663 1 1 0
1069 1 22.37716352585455 9.709134194402635 0.10213256279823668 0 0 1
2387 1 23.970431388127132 1.4875311512458107 6.810370089782258 -1 1 0
1464 1 11.535999358094157 21.592982758351326 0.3265761236289051 1 1 1
1864 1 26.075019923239054 1.1204932916973394 8.83521008768911 0 0 0
1917 1 28.581097314161315 1.923241325394025 7.340116233659977 0 0 0
1 1 28.732184603112206 -0.10260033684162312 5.883968147296166 1 0 -1
1390 1 32.10089413051701 1.3000088792896254 8.968278916606875 -1 0 0
3124 1 34.15550651581344 2.3229234736082667 10.174488759277653 0 0 -1
2747 1 35.97437106689596 0.7200398330428298 8.514682040119045 -1 1 0
1702 1 42.028213473759855 1.046099641575704 6.598834627025703 -1 0 0
1533 1 41.198538576074256 2.043999004328847 9.123273156697726 -1 0 1
2665 1 48.536876438921524 2.8645822139247947 9.54568864430534 0 1 0
1803 1 46.75248897239012 0.6118508001694208 9.673999389920995 -1 0 1
2268 1 4.798495617379838 2.8080417211917372 10.936433141500657 1 1 1
243 1 5.718741499249201 2.663816521593894 8.056185916357812 1 0 0
1280 1 7.705849472295977 4.6320253162660805 7.198794503346347 1 0 0
1845 1 11.079721202611898 6.287947967687433 9.563318826094124 1 0 1
2182 1 15.505127654798716 3.175209634153596 9.376536247908819 0 0 0
3734 1 16.448659499571082 3.5222582385135244 7.02656401243798 1 1 1
3085 1 18.775731607874587 2.5754619925988456 7.3530096437543095 0 -1 0
1257 1 19.645010210062146 6.278346410691818 9.584731923647698 0 0 1
3461 1 23.862684144695514 4.364446664355691 6.957407324036287 0 1 1
2882 1 28.281848910058663 5.600288150664261 8.505715026225515 0 1 0
319 1 31.3636408538694 3.205474458251798 7.121579683475321 0 1 0
4092 1 34.512981235616415 4.870828917191906 8.852954368863053 0 0 2
517 1 37.59145500167045 2.712906383335653 6.771239011715457 -1 0 1
2139 1 39.841556074550546 4.191782510708644 7.933332616638927 0 1 0
345 1 45.70383403575111 3.164319793664359 7.589278539645593 0 0 0
2069 1 44.32929132814839 5.065033330453508 9.250398438858191 0 0 1
2924 1 1.365239334514985 8.803502183170734 6.6112443747554686 1 1 1
462 1 2.8466304938413254 6.905875459135589 8.823962148455172 1 -1 0
3641 1 8.640529357257877 7.978218809440067 9.423945935129462 0 0 0
1161 1 5.2773846965707705 8.33932360825995 8.64285602660662 0 0 1
2542 1 13.551952666721682 8.76721006803091 7.9570209748396135 1 0 0
4036 1 16.154685575244848 8.16013953433667 7.42614691226013 0 1 1
2713 1 17.1916001549508 5.965449883689133 8.681568482288945 0 1 1
89 1 20.861285692585103 7.665498939324319 7.714070249624321 -1 0 1
1509 1 22.711609650121122 8.951686957132674 9.276286362039603 0 0 1
1765 1 27.127885068160687 8.005447619231099 9.411210013220822 0 0 1
999 1 30.853987596180794 5.997691803377687 7.728684429301554 -1 0 1
2920 1 32.921337655892835 7.260983369784992 9.128666654446494 0 0 0
2707 1 39.19870616640552 6.240360909901096 9.407351478810568 0 1 0
1987 1 38.76101147419217 8.245791257357894 7.544610367768061 1 0 1
3220 1 42.44844714030476 6.7812082272966565 8.46806779069402 1 0 0
339 1 43.56176007222877 8.08507170821011 6.321240087590887 0 0 0
1966 1 48.550010145941144 8.453128764095972 9.217242067116771 -1 0 0
1058 1 0.05396176173563538 6.51554776460208 9.321232746519414 0 0 1
3572 1 4.8524671745476216 10.80903599755176 7.056822836207704 1 0 0
4159 1 9.618044620717955 10.80259174724256 7.992185405920635 0 1 1
3893 1 12.221558875110086 11.386672355654493 7.695565311326206 0 0 1
2329 1 17.554714792195867 10.630005389246653 7.49058490203516 0 1 0
3964 1 22.678831117110178 11.274206495149919 10.554115593492883 0 1 0
1189 1 23.95082587452982 10.062609165203739 6.948186940274349 1 0 1
3971 1 21.766187323853394 11.832392248833358 6.753755102170415 0 1 1
2858 1 26.47338828585356 11.5211060379473 7.2958768691996685 0 0 1
534 1 28.018168844962037 9.360487707744838 7.155727156653224 0 0 0
4062 1 35.009741631341875 8.932072828389954 7.876723552591322 -1 1 1
2264 1 31.194168950401224 9.828832536220029 8.815417243060265 0 0 -1
735 1 40.003907909168404 11.279637900518965 9.721809152445884 0 0 0
2519 1 42.62609869754964 10.949786966754258 8.611164600227392 0 0 0
966 1 46.10506457314864 12.145303677316411 7.576940912965563 -1 1 1
2699 1 0.23347382486432905 11.721777679386847 6.757788014327949 1 0 -1
2801 1 48.651208455831075 11.143725324797757 8.58174085548402 0 0 1
1230 1 0.18558097961435133 14.549411690925293 6.7946091303678875 0 0 0
526 1 50.01389225789904 15.044239162472575 9.318299521630994 -1 0 0
771 1 5.906750216338594 13.323292599465118 6.83291230318155 0 0 0
1307 1 2.3104897855558035 13.900063937826916 10.070633234998377 1 1 0
1401 1 8.442491930554757 12.69363258998417 6.361146120715888 0 0 0
3189 1 6.571814652315955 14.71370570708374 9.069828929079305 0 1 0
3315 1 11.70935313303016 15.46806649627381 8.391187654702387 0 1 1
36 1 13.114761102139717 13.450127165330397 9.300115602664398 1 -1 0
211 1 15.73639197315852 13.632312323669769 9.274972200420262 0 0 0
1513 1 18.98228186104387 13.761739965991561 6.749141213372124 0 0 1
4052 1 20.790880410044046 12.531312548203607 9.292152033958526 0 1 1
2424 1 28.458359102866087 15.178203746486464 6.943100476223153 0 0 0
4121 1 31.087671224304042 14.157992873612166 8.272495871549717 0 0 1
2866 1 36.54972030133294 13.847745234072889 6.23416389739592 0 0 1
2200 1 39.065474034840825 13.614612569934215 8.760945632732493 0 1 0
390 1 39.82731574729131 16.29705773899703 9.502026496621179 0 0 0
783 1 45.883034489866255 15.13078697091136 7.571807456426421 -1 0 1
1078 1 47.249695824262844 16.346672001892408 9.883115972764429 0 0 0
3656 1 2.474786278331979 16.4405884912967 7.031142122300554 0 1 0
2240 1 8.512559114595769 16.85721514235362 4.680279614378966 1 1 -1
287 1 9.974437344047518 14.790356773613249 5.8957434406139475 1 1 0
2313 1 13.316041766804153 17.21049115979495 7.108819582880031 1 1 0
2138 1 15.231466451163003 17.40441837705702 11.959152510571734 0 1 0
3471 1 15.521111271928605 18.755612589044887 7.8145147617671125 0 1 1
259 1 19.171393109344578 20.59971607002623 5.434028185344024 1 0 1
217 1 19.016486893837573 15.640715789792878 8.851894762435885 0 0 0
544 1 23.84165862128891 16.171949291700745 8.115356332292523 -1 0 0
1724 1 22.626601517465566 18.20824466651741 6.866638773782148 1 0 0
3810 1 28.325048946455063 17.901336510888548 6.157062516149838 0 1 1
2876 1 35.53248466794829 16.752266503555987 6.312899411929328 0 1 0
886 1 35.244868882484845 19.009625594726746 7.860366570616533 0 0 -1
1761 1 38.37701797742414 17.76948793203097 6.475377758001737 -1 0 1
2042 1 42.477262979155384 15.111058186020935 6.199070567514659 0 0 1
1083 1 46.866627642511965 18.593324394798433 8.206364645071604 -1 0 0
1713 1 0.09680461103917026 18.110852073113268 7.311827454771667 1 -1 0
2449 1 0.24572585471380015 20.933809434520942 7.438896006338697 0 0 0
897 1 2.3738622795555373 18.768840091544988 10.545339850578632 1 1 0
1900 1 6.857819659633916 20.81105464359134 8.59107619182882 1 0 1
3880 1 9.164357575553897 19.76592238190677 7.66547732679219 0 1 0
2553 1 12.030444250914384 19.807789106217864 6.551668953210878 1 0 -1
667 1 13.623294770140138 21.76929555635128 7.695134839949922 0 0 0
3397 1 18.460226205366794 20.79723747077131 10.159030211302616 0 0 1
3913 1 23.311039248675517 21.249341809040008 6.099301706440222 0 0 0
1031 1 26.632712770654205 19.52774559983391 8.251046642116112 1 0 0
3303 1 32.36063795860928 18.365934729107337 8.023408770327476 -1 0 0
668 1 36.36481262372373 21.661377156751662 7.216434888825143 0 0 0
3075 1 40.27253539692962 22.40358019159494 5.674584109174394 -1 0 0
2192 1 40.95928132649213 17.452676087623676 7.466890881774405 -1 0 0
1105 1 44.24535291272172 20.940093006820646 5.3778972314409845 -1 0 0
2524 1 50.09630324827285 21.78861822115235 10.613862504301323 -1 1 0
2715 1 2.3647892327685254 22.06012133458051 9.398366856843639 1 0 1
1432 1 39.76402340376404 -0.02663825783416074 4.820673271505569 0 1 1
3153 1 3.9791116524753702 23.701299864539042 7.498679871177476 0 1 0
486 1 5.775341322067794 21.740072190706492 6.04601733953726 0 0 0
299 1 7.059919482266556 1.4786759970394148 11.814579219905335 1 1 0
407 1 44.59221973623115 21.043373139785576 15.130470386546053 0 0 0
2431 1 11.971269969551704 23.49643301953661 9.181680322903397 0 0 0
1865 1 17.425822404031084 24.355682526920575 11.87019820524954 1 0 1
2072 1 37.10005220341559 21.409425518318308 14.566194985864401 0 0 0
2190 1 28.515057272293006 20.791225618121445 -0.1002469203304596 -1 0 0
1935 1 24.859266210479724 22.36259353676302 10.153451823329057 -1 0 1
3384 1 22.38266152722792 0.50011018539803 9.254657669537442 1 1 0
3601 1 28.1622631657797 23.03319145350159 7.424965820565759 0 1 0
925 1 30.57968329320272 21.081601409667137 7.865419068020692 0 0 1
97 1 34.50582671820437 22.779422313990125 9.652189135042251 0 -1 0
2026 1 45.1438326697809 0.9389594973522806 15.584127444599611 -1 0 0
176 1 38.22940311929201 22.725405299749465 9.54432064692111 0 0 0
255 1 28.0930860996962 19.967537471563567 16.540819281991638 0 0 0
143 1 44.36928381258652 22.40189389545963 7.871475533486803 -1 0 0
977 1 47.7196987424775 24.220850345545934 6.796334452206585 -1 0 1
364 1 45.2881568486049 24.16551299694736 1.3713935741147463 0 0 0
956 1 0.3075582041788466 1.419264227897971 10.337452334115076 0 0 0
1485 1 36.14625090883024 0.33208970982294617 13.466530272063677 -1 0 1
2108 1 20.778759585933777 24.054280761070927 2.4267719922975868 0 1 0
568 1 8.559753706114915 1.551390821780905 9.671049326126003 1 0 0
3398 1 13.348840760314172 1.8112525098599126 12.724191126565014 0 1 0
824 1 1.1817651535387255 15.681712056387122 0.4374755045640789 1 0 1
509 1 9.722628535528079 23.829170291638476 14.632211602536486 0 0 0
3750 1 20.193373168530684 2.259965889326986 9.79569375641408 0 1 1
2062 1 23.777735564388436 24.37664103309422 8.36012655107084 0 0 1
2988 1 29.458439532048676 1.0039614748729644 10.373278077480624 -1 0 1
1707 1 33.333204283896116 2.8934298668435825 12.683511046213047 0 0 1
1455 1 38.21775812077971 1.9351626909902429 9.990653760689685 -1 0 1
2179 1 27.345286255278662 20.409220362837033 12.788056904485885 0 0 0
1589 1 42.772676860366275 3.4693208037229137 10.884193346030356 -1 0 0
346 1 45.01802965393026 1.754738376752213 11.73648679884547 0 1 0
1844 1 0.6255438898111664 5.750454235486807 13.765225230282136 0 0 0
2437 1 3.1593823152054417 3.2148109646794225 13.242299464925868 1 1 0