
# Create simulation box of size 50 x 50 x 50 Angstrom
#
lattice	            sc 1
Lattice spacing in x,y,z = 1.0000000 1.0000000 1.0000000
region 	            all block 0 50 0 50 0 50 units box
create_box          1 all
Created orthogonal box = (0.0000000 0.0000000 0.0000000) to (50.000000 50.000000 50.000000)
  1 by 2 by 3 MPI processor grid

# fill box with 4175 randomly distributed atoms
#
create_atoms        1 random 4175 63782 all
Created 4175 atoms
  create_atoms CPU = 0.001 seconds
mass                1 18.015

# Define potential
#
pair_style          sw
pair_coeff          * * ML_mW.sw mW
Reading sw potential file ML_mW.sw with DATE: 2019-02-27

# Run minimization
#
minimize            1.0e-8 1.0e-8 10000 1000
WARNING: Using 'neigh_modify every 1 delay 0 check yes' setting during minimization (../min.cpp:187)
Neighbor list info ...
  update every 1 steps, delay 0 steps, check yes
  max neighbors/atom: 2000, page size: 100000
  master list distance cutoff = 6.0032907
  ghost atom cutoff = 6.0032907
  binsize = 3.0016454, bins = 17 17 17
  1 neighbor lists, perpetual/occasional/extra = 1 0 0
  (1) pair sw, perpetual
      attributes: full, newton on
      pair build: full/bin/atomonly
      stencil: full/bin/3d
      bin: standard
Per MPI rank memory allocation (min/avg/max) = 4.255 | 4.258 | 4.261 Mbytes
Step Temp E_pair E_mol TotEng Press 
       0            0    7792709.3            0    7792709.3    5898794.3 
     630            0   -45180.336            0   -45180.336   -154.07449 
Loop time of 1.13143 on 6 procs for 630 steps with 4175 atoms

98.7% CPU use with 6 MPI tasks x no OpenMP threads

Minimization stats:
  Stopping criterion = max force evaluations
  Energy initial, next-to-last, final = 
      7792709.32924461  -45180.0188663597   -45180.336116598
  Force two-norm initial, final = 2.0191930e+08 4.9721331
  Force max component initial, final = 1.0948746e+08 0.73126211
  Final line search alpha, max atom move = 0.053306038 0.038980685
  Iterations, force evaluations = 630 1000

MPI task timing breakdown:
Section |  min time  |  avg time  |  max time  |%varavg| %total
---------------------------------------------------------------
Pair    | 0.89746    | 0.9851     | 1.0305     |   4.8 | 87.07
Neigh   | 0.024144   | 0.024583   | 0.024835   |   0.1 |  2.17
Comm    | 0.056484   | 0.10195    | 0.18966    |  14.8 |  9.01
Output  | 0          | 0          | 0          |   0.0 |  0.00
Modify  | 0          | 0          | 0          |   0.0 |  0.00
Other   |            | 0.0198     |            |       |  1.75

Nlocal:        695.833 ave         704 max         685 min
Histogram: 1 1 0 0 1 0 0 1 0 2
Nghost:        1494.17 ave        1515 max        1468 min
Histogram: 1 1 0 0 0 0 1 1 1 1
Neighs:        0.00000 ave           0 max           0 min
Histogram: 6 0 0 0 0 0 0 0 0 0
FullNghs:      19997.0 ave       20462 max       19320 min
Histogram: 1 1 0 0 0 0 0 2 0 2

Total # of neighbors = 119982
Ave neighs/atom = 28.738204
Neighbor list builds = 26
Dangerous builds = 0

# Add velocity/set timestep
#
velocity            all create ${TEMP} 120598 rot yes dist gaussian
velocity            all create 220 120598 rot yes dist gaussian
timestep            5.0

# Define output
#
compute	            1 all msd
thermo	            100
thermo_style        custom step temp press vol etotal ke pe c_1[4] density

# Neighbor lists
#
neigh_modify        delay 0 every 1 check yes

# Set fixes
#
fix                 1 all momentum 10 linear 1 1 1 rescale
fix                 2 all nve
fix                 3 all temp/csvr ${TEMP} ${TEMP} 500.0 928347
fix                 3 all temp/csvr 220 ${TEMP} 500.0 928347
fix                 3 all temp/csvr 220 220 500.0 928347
fix                 4 all press/berendsen iso ${PRES} ${PRES} 1000.0 modulus 20000
fix                 4 all press/berendsen iso 250 ${PRES} 1000.0 modulus 20000
fix                 4 all press/berendsen iso 250 250 1000.0 modulus 20000

# Run 0.5 ns equilibration
#
dump                1 all custom 1000 eq.${NAME}.dump id type x y z vx vy vz
dump                1 all custom 1000 eq.liquid_density_MLmW.dump id type x y z vx vy vz
run                 100000
Per MPI rank memory allocation (min/avg/max) = 3.506 | 3.508 | 3.511 Mbytes
Step Temp Press Volume TotEng KinEng PotEng c_1[4] Density 
     630          220    846.92133       125000   -42443.118    2737.2183   -45180.336 2.7295415e-33   0.99914793 
     700    140.19963    164.08331    125258.12     -41603.2      1744.35    -43347.55   0.25845812   0.99708896 
     800    173.89335   -33.023791    125158.61   -40840.893    2163.5639   -43004.457   0.61024701   0.99788176 
     900    192.34932     153.3323    124973.26   -40425.734    2393.1912   -42818.925    1.0620478   0.99936173 
    1000    209.30262    317.03764    125032.23   -40164.143    2604.1225   -42768.266    1.4486701   0.99889037 
    1100    213.86825    155.48194    124893.35    -39997.35    2660.9276   -42658.277    1.9478293    1.0000012 
    1200    212.82751    38.745127    124700.72   -40048.941    2647.9788    -42696.92    2.4308055    1.0015459 
    1300    214.45855    182.23826    124685.72   -40025.999    2668.2721   -42694.271    2.7981156    1.0016664 
    1400    213.38072    288.89069    124822.69   -40031.909    2654.8618   -42686.771    3.2153148    1.0005672 
    1500    214.35139    20.250855    124915.45   -39980.508    2666.9388   -42647.446    3.5299087   0.99982417 
    1600    215.37533    393.88126    125110.78   -39882.644    2679.6786   -42562.322    3.9575289   0.99826323 
    1700     218.4641    183.12963    125060.29   -39898.848    2718.1087   -42616.956    4.2374009   0.99866624 
    1800    217.56239    383.69469    125216.78    -39979.98    2706.8898    -42686.87     4.585874   0.99741814 
    1900    218.30877     328.6696     125336.6   -39975.429    2716.1761   -42691.605    4.9380673   0.99646468 
    2000    217.88609    185.27572    125525.91   -39936.654    2710.9171   -42647.571    5.3738108   0.99496183 
    2100    217.47505    154.55908    125570.36   -39898.917    2705.8031    -42604.72    5.8199409   0.99460962 
    2200    219.30153    388.85289    125495.68   -39925.736    2728.5279   -42654.264    6.0901508   0.99520153 
    2300    218.78478    373.23871    125580.45   -39911.309    2722.0987   -42633.408    6.4271772   0.99452969 
    2400    219.74016    274.82912    125516.92   -39920.224    2733.9853    -42654.21    6.6825586   0.99503309 
    2500    222.00995    273.53162    125352.04   -39871.849    2762.2259   -42634.075    7.0318953   0.99634192 
    2600    226.36181    378.71834    125478.86   -39816.869    2816.3713    -42633.24    7.2985671   0.99533495 
    2700    225.24873    350.53136    125415.16   -39842.772    2802.5225   -42645.294    7.6086525    0.9958405 
    2800    226.48517    249.02365    125516.39   -39847.042    2817.9061   -42664.949    8.0261341    0.9950373 
    2900    225.60895    295.85882    125523.68   -39920.038    2807.0043   -42727.042    8.2848043   0.99497955 
    3000    222.17005    203.94337    125612.71   -39957.949    2764.2178   -42722.167    8.4556862   0.99427433 
    3100    224.45557    255.40892    125473.37   -39928.135     2792.654   -42720.789    8.7073959   0.99537846 
    3200    218.43445    399.17857    125686.72    -39975.28    2717.7398   -42693.019    8.9619284   0.99368887 
    3300    221.63249    353.36902    126000.42   -39977.076    2757.5295   -42734.605    9.3711937   0.99121485 
    3400    218.30574    111.88466     125902.5    -40033.25    2716.1384   -42749.388    9.7080199   0.99198578 
    3500    222.22315    395.68486    126054.49   -40077.344    2764.8785   -42842.222    10.091841   0.99078972 
    3600    217.47617    294.15448    126077.24   -40120.324     2705.817   -42826.141    10.484152   0.99061093 
    3700    215.03237     130.2642    126246.52   -40185.045    2675.4115   -42860.457    10.802455   0.98928268 
    3800    219.79356    169.11473    126091.05    -40131.62    2734.6498    -42866.27    11.242029   0.99050245 
    3900    224.49675    339.62509    126182.29   -40162.044    2793.1663   -42955.211    11.677553   0.98978621 
    4000    214.53672    247.63004     126243.5   -40163.742    2669.2446   -42832.987    11.907228   0.98930633 
    4100    219.36281      408.492    126314.07   -40148.639    2729.2904   -42877.929    12.086794   0.98875362 
    4200    219.29456     233.2156    126663.79   -40158.091    2728.4412   -42886.532    12.336563   0.98602366 
    4300    219.07607    288.07058    126467.86   -40151.979    2725.7228   -42877.702    12.661003    0.9875512 
    4400    218.66471    43.710006    126454.09    -40148.77    2720.6048   -42869.374     12.76895   0.98765881 
    4500    220.41633    320.27935    126677.61   -40159.629    2742.3982   -42902.028    12.941656   0.98591608 
    4600     221.1806    199.96473    126879.84   -40215.333    2751.9071    -42967.24    13.204296   0.98434464 
    4700    224.48984    405.28251    126886.07   -40148.351    2793.0805   -42941.431    13.376917    0.9842963 
    4800    221.38612    248.95411    126680.67   -40231.611    2754.4642   -42986.075    13.613436   0.98589228 
    4900     226.3806    196.98513    126842.42    -40123.49     2816.605   -42940.095    13.893246   0.98463501 
    5000    224.47107    426.10293     126739.6   -40082.996    2792.8469   -42875.843    14.128857   0.98543385 
    5100    222.14751    208.84361     126629.4   -40150.157    2763.9374   -42914.095    14.283617   0.98629142 
    5200     223.9232    379.77557    126861.93   -40206.956    2786.0303   -42992.987      14.4343   0.98448357 
    5300    221.81711      82.7821    126868.58   -40185.714    2759.8265    -42945.54    14.674535     0.984432 
    5400    222.59277    283.90725    126818.15   -40219.273    2769.4772    -42988.75    14.913819   0.98482348 
    5500    214.45889    492.16515     126978.4   -40217.822    2668.2763   -42886.098    15.162852   0.98358062 
    5600    222.32131    299.96184    127044.01   -40245.029    2766.0998   -43011.129    15.392978   0.98307265 
    5700    219.96581     132.1823    127069.51   -40243.115    2736.7928   -42979.908    15.654841   0.98287534 
    5800     218.7836    415.49762    127018.06   -40289.718    2722.0839   -43011.802    15.954223   0.98327352 
    5900    215.32613    137.99326    126913.07   -40312.259    2679.0664   -42991.325    16.298719   0.98408693 
    6000    218.48888    412.19447    126960.46   -40308.293     2718.417    -43026.71    16.638557   0.98371959 
    6100    220.73668    247.01953    126962.92   -40243.218    2746.3839   -42989.602    16.961482    0.9837005 
    6200    218.99859    385.97467    126875.79   -40307.722    2724.7588   -43032.481    16.904223    0.9843761 
    6300    219.35854    285.09371    126878.76   -40279.427    2729.2372   -43008.665    17.159633   0.98435302 
    6400    221.81881    279.24798    126954.48   -40270.903    2759.8477   -43030.751    17.465855   0.98376592 
    6500    223.57184    236.17457    127023.15   -40221.001    2781.6588    -43002.66    17.635657   0.98323412 
    6600    218.49705    381.02012    127245.66    -40284.98    2718.5187   -43003.499    17.819514   0.98151477 
    6700    214.88393    291.01915    127172.14   -40343.268    2673.5646   -43016.833    17.975617   0.98208218 
    6800    215.15437    227.42018    127171.55   -40255.461    2676.9294    -42932.39    18.072972    0.9820867 
    6900    220.44964    126.96917     127165.8   -40180.456    2742.8126   -42923.269    18.377999   0.98213116 
    7000    219.79429    447.48511    127101.49   -40153.023    2734.6589   -42887.682    18.474034   0.98262806 
    7100    222.75452    294.98439    127048.52    -40173.45    2771.4898    -42944.94    18.634822   0.98303772 
    7200     217.5328    202.05797    126793.92   -40212.254    2706.5215   -42918.775    18.939417   0.98501167 
    7300    217.86299     432.0141    126758.83   -40259.899    2710.6298   -42970.529    19.266643   0.98528434 
    7400    217.93205    67.594456    126590.14   -40286.958     2711.489   -42998.447     19.41128   0.98659732 
    7500    218.31511    90.016502    126730.17   -40253.756    2716.2551   -42970.011    19.671322   0.98550714 
    7600    215.69985    249.82863    126708.97   -40331.064    2683.7162    -43014.78    19.695106   0.98567209 
    7700    216.14428    331.10164    126847.39   -40218.497    2689.2458   -42907.743    20.000817   0.98459649 
    7800    220.13235    136.24675    126884.06   -40194.365     2738.865    -42933.23    20.070819   0.98431194 
    7900    217.92763    343.63983    126935.93   -40270.518     2711.434   -42981.952    20.408752   0.98390968 
    8000    218.89917    308.06756    127015.75   -40248.326    2723.5218   -42971.848    20.641158   0.98329135 
    8100    218.87978    219.05885    127071.08   -40321.719    2723.2805   -43044.999    20.834694   0.98286324 
    8200    213.84621    192.32467    126870.51   -40339.421    2660.6534   -43000.075    21.121934   0.98441705 
    8300    216.05916    370.52747    126941.28   -40317.499    2688.1867   -43005.686    21.303066   0.98386821 
    8400    221.14454    449.26981     127142.9   -40263.041    2751.4585     -43014.5    21.382752   0.98230805 
    8500    218.21108    187.18273    127115.14   -40193.647    2714.9607   -42908.607    21.713444   0.98252255 
    8600    219.75397    302.01784    127013.54   -40222.413    2734.1572    -42956.57    21.948127   0.98330845 
    8700    221.15381    328.24587    127019.77   -40203.147    2751.5739   -42954.721    22.170629   0.98326029 
    8800    217.81315    218.01005    127033.69   -40253.484    2710.0097   -42963.494    22.496164   0.98315252 
    8900    217.57729    215.47843    127167.18   -40317.884    2707.0751   -43024.959    22.811291   0.98212047 
    9000     216.5328    308.19127    127239.25   -40272.776    2694.0797   -42966.856     23.06029   0.98156419 
    9100    215.65739     218.8586    127189.27   -40362.584     2683.188   -43045.772    23.359911   0.98194989 
    9200    218.44127    304.30405    127120.56   -40289.507    2717.8247   -43007.332    23.542054   0.98248067 
    9300    216.49004    82.686443    127100.85   -40355.231    2693.5476   -43048.779    23.783423   0.98263303 
    9400    219.40128    253.98061    127127.99   -40309.845     2729.769   -43039.614    24.005225   0.98242327 
    9500    218.73492    156.99209    127121.34   -40323.764    2721.4783   -43045.242    24.131571   0.98247461 
    9600    217.70789    486.63865    127159.89   -40288.548    2708.7001   -42997.248    24.408383   0.98217682 
    9700    218.32336    246.62017    127277.64   -40221.261    2716.3576   -42937.618    24.532003   0.98126811 
    9800    221.27363   -50.133496    127121.54   -40294.207    2753.0646   -43047.272    24.582231   0.98247305 
    9900    216.49124      322.112    126934.14   -40369.662    2693.5626   -43063.225    24.879172   0.98392359 
   10000    217.71765    217.67676    127014.09   -40359.031    2708.8215   -43067.853    25.068468   0.98330419 
   10100     217.6251    17.951905    127090.68   -40340.829      2707.67   -43048.499    25.129713   0.98271168 
   10200    216.12204    193.23537    126989.79   -40386.121     2688.969    -43075.09    25.191488   0.98349235 
   10300     218.3838     214.0571    127138.19   -40371.878    2717.1097   -43088.988    25.278356   0.98234445 
   10400    220.63371    266.37037    127180.43    -40322.33    2745.1028   -43067.432    25.510145   0.98201815 
   10500    227.50503    165.67187    127236.54    -40316.96    2830.5951   -43147.555    25.753488   0.98158507 
   10600    217.81306    316.69998    127262.24   -40246.489    2710.0085   -42956.498    25.948208   0.98138685 
   10700    222.97603    123.45968    127462.98   -40221.055    2774.2458   -42995.301    26.139073   0.97984126 
   10800    220.72757    287.95982    127370.83   -40202.642    2746.2706   -42948.913    26.179205   0.98055017 
   10900    225.21309    493.99514     127330.1   -40240.964     2802.079   -43043.043    26.290995   0.98086386 
   11000     217.7115    436.20035       127418   -40237.338     2708.745   -42946.083    26.704114   0.98018721 
   11100    222.07255    256.31936    127690.06   -40277.584    2763.0048   -43040.589    27.010721    0.9780988 
   11200    221.36045    60.567324    127516.87   -40282.644    2754.1449   -43036.789    27.218086   0.97942724 
   11300     217.4688    -29.77073    127787.69   -40290.144    2705.7253   -42995.869    27.555315   0.97735151 
   11400    217.48225    158.86397    127643.11   -40297.665    2705.8927   -43003.558    27.510608   0.97845855 
   11500    220.89792    370.93708    127514.98   -40327.666    2748.3901   -43076.056    27.743778   0.97944169 
   11600    221.91556    231.49329    127509.47   -40338.376    2761.0514   -43099.428    28.163491   0.97948408 
   11700    224.13341    236.81902    127480.41   -40234.878    2788.6457   -43023.524    28.522213   0.97970733 
   11800    217.39123    256.44842    127706.83   -40316.719    2704.7602    -43021.48    28.520319   0.97797037 
   11900    217.73914    406.91939    127496.75   -40336.839    2709.0889   -43045.928    28.646981   0.97958173 
   12000    216.69816    95.069115       127500   -40349.911    2696.1371   -43046.049    28.766789   0.97955681 
   12100    223.29682    60.268775    127427.33   -40297.677    2778.2369   -43075.914    29.089305   0.98011544 
   12200    221.64174    337.79542     127400.1   -40287.807    2757.6446   -43045.452    29.435752   0.98032491 
   12300    221.70272    357.22251    127441.22   -40322.186    2758.4033    -43080.59    29.617054   0.98000856 
   12400    224.50447    364.47922    127416.08   -40300.992    2793.2624   -43094.254    29.678241   0.98020193 
   12500    219.81518    320.82706    127549.79   -40395.961    2734.9187   -43130.879    29.761354   0.97917439 
   12600    220.23856    264.61615    127766.93   -40312.331    2740.1864   -43052.517     30.09598   0.97751029 
   12700    221.85151    351.89774    127543.83   -40299.612    2760.2546   -43059.866    30.122065   0.97922019 
   12800    225.45603    159.51798    127490.38   -40278.511    2805.1016   -43083.612    30.360348    0.9796307 
   12900    220.52526    237.45517    127633.62   -40340.268    2743.7534   -43084.021    30.702015    0.9785313 
   13000    223.79154    390.26814    127631.57   -40287.137    2784.3923    -43071.53    31.116211   0.97854702 
   13100    221.48368    315.56277    127560.79   -40299.501     2755.678   -43055.179    31.409356   0.97908999 
   13200    223.22281    479.65037    127502.14   -40223.514    2777.3162    -43000.83    31.377272   0.97954035 
   13300    223.93541    481.25262     127644.9   -40273.295    2786.1823   -43059.477    31.702655    0.9784448 
   13400    224.20114    109.48046    127653.75   -40358.714    2789.4884   -43148.202    31.756553   0.97837696 
   13500    220.22628     236.7876    127514.88   -40396.526    2740.0335    -43136.56    31.948679    0.9794425 
   13600    218.24333    184.52456     127498.8   -40426.006    2715.3619   -43141.368    32.185931   0.97956598 
   13700    217.86672    319.47839     127572.8   -40421.995    2710.6762   -43132.671    32.284545   0.97899778 
   13800    224.16749    230.88359    127697.79    -40336.24    2789.0698    -43125.31    32.644899   0.97803956 
   13900     218.6245    187.87634    127521.55   -40373.269    2720.1044   -43093.373    32.967104   0.97939122 
   14000    219.86757    212.47545    127521.62   -40350.911    2735.5706   -43086.482    32.907286   0.97939074 
   14100    217.69337    384.56904    127494.36   -40340.465    2708.5194   -43048.984    33.227595   0.97960015 
   14200    217.90094    424.35547    127517.41   -40356.979     2711.102   -43068.081    33.330593   0.97942303 
   14300    217.97564    189.43754    127504.49   -40410.139    2712.0313    -43122.17    33.552675   0.97952233 
   14400    215.38995    206.81163    127514.56   -40385.465    2679.8605   -43065.325    33.793139   0.97944498 
   14500    223.20175    182.17544    127466.06   -40327.465    2777.0541   -43104.519    34.009181   0.97981764 
   14600     219.8692    455.45456    127325.06   -40338.446    2735.5908   -43074.037    34.273796   0.98090266 
   14700    220.75816    78.946859    127386.08   -40377.236    2746.6512   -43123.888    34.505968   0.98043281 
   14800    218.88265    333.65244    127324.04   -40405.931    2723.3163   -43129.248    34.761979   0.98091054 
   14900    217.50829    265.09233    127148.78   -40467.768    2706.2167   -43173.985    34.874027   0.98226263 
   15000    217.12907     148.4666    127184.87   -40466.086    2701.4984   -43167.584    34.947464   0.98198385 
   15100     212.6334    294.76499    127247.07    -40498.06    2645.5638   -43143.624    35.077455   0.98150387 
   15200    216.06978    159.42173    127238.77   -40418.327    2688.3189   -43106.646    35.255705   0.98156786 
   15300    216.70687    487.77242    127313.37   -40444.333    2696.2455   -43140.578     35.15407   0.98099275 
   15400    218.07897    291.20454    127409.87   -40431.518     2713.317   -43144.835    35.322237   0.98024974 
   15500    218.87119    156.14726     127321.8   -40421.063    2723.1737   -43144.236    35.145226   0.98092775 
   15600    220.49973    225.03218    127322.23   -40349.555    2743.4359   -43092.991    35.438617   0.98092444 
   15700    216.06948    101.75487    127296.21   -40432.718    2688.3151   -43121.033    35.573666   0.98112498 
   15800    219.00277    327.54162    127433.19   -40417.865    2724.8108   -43142.676    35.500776   0.98007036 
   15900    217.92122    81.784806    127534.02    -40465.87    2711.3542   -43177.225    35.789575   0.97929546 
   16000    220.53147    378.82258     127904.4   -40406.581    2743.8307   -43150.411    36.256385   0.97645968 
   16100    222.61196     150.9162    128072.68   -40352.559     2769.716   -43122.275    36.456333   0.97517667 
   16200    217.98138    341.36653    128199.44   -40401.576    2712.1028   -43113.679    36.873324   0.97421248 
   16300    218.88707    255.72399    128186.77   -40414.591    2723.3713   -43137.962      36.9549   0.97430873 
   16400    223.57798    305.22111    128017.03   -40317.878    2781.7351   -43099.614    37.134703    0.9756006 
   16500    223.91907    244.51699     128155.7   -40322.823    2785.9789   -43108.802    37.412913   0.97454498 
   16600    219.26825    396.19925     128080.9   -40305.758    2728.1139   -43033.872    37.509166   0.97511409 
   16700    221.47363    276.90633    128049.33   -40347.975     2755.553   -43103.528     37.26672   0.97535447 
   16800    220.31313    275.55433    128125.77   -40331.698    2741.1142   -43072.812    37.541641   0.97477258 
   16900    226.07268    343.68023    128177.52   -40304.175    2812.7739   -43116.948    37.990246   0.97437909 
   17000    222.48237    338.13824    128374.07   -40321.968    2768.1037   -43090.072    38.368967   0.97288725 
   17100    218.50265    180.46802    128202.22   -40232.445    2718.5884   -42951.033    38.373182   0.97419131 
   17200    221.23288    219.09163     128299.1   -40250.659    2752.5577   -43003.217    38.605312   0.97345568 
   17300    221.76237    291.96827    128419.04   -40316.106    2759.1455   -43075.252     38.83459   0.97254654 
   17400    224.78159     95.82547    128200.47   -40346.418    2796.7104   -43143.128    38.898739   0.97420461 
   17500    218.07775    272.97661    128063.51   -40328.948    2713.3018    -43042.25    38.739921   0.97524649 
   17600    222.11759    208.21089     128028.3   -40308.203    2763.5651   -43071.768    38.765619   0.97551472 
   17700    220.11719    245.44431    128045.47    -40339.59    2738.6764   -43078.266      39.2633   0.97538387 
   17800    217.64893    347.02473    127969.29   -40354.236    2707.9665   -43062.202    39.480815   0.97596452 
   17900    221.85259    322.53072    128213.39   -40313.087    2760.2681   -43073.356     39.72521   0.97410647 
   18000    226.16951    97.615399    128088.53   -40268.662    2813.9787   -43082.641    39.759142   0.97505603 
   18100    221.71835    201.05433    128016.97   -40367.596    2758.5978   -43126.194    39.917889   0.97560102 
   18200    221.84794    217.92996    127749.01   -40366.773    2760.2102   -43126.983    40.088409   0.97764746 
   18300    222.33342    247.01755    127883.72   -40292.244    2766.2505   -43058.494    40.279781   0.97661756 
   18400    221.65249    314.01412    127830.69    -40356.86    2757.7784   -43114.638    40.537766   0.97702271 
   18500    224.38808    133.13208    127835.71   -40327.157    2791.8143   -43118.971    40.878654   0.97698435 
   18600    220.12406    387.30132    127816.61   -40381.056    2738.7618   -43119.818    40.741773    0.9771304 
   18700    224.02937    175.68091    127815.83   -40354.715    2787.3512   -43142.066    41.161417   0.97713632 
   18800     223.1858    309.55943    127835.54   -40330.212    2776.8557   -43107.068    41.388496   0.97698564 
   18900    225.39395    253.25627    127957.94   -40368.349    2804.3292   -43172.679    41.437714   0.97605109 
   19000    224.04467    385.87554    127982.71   -40351.792    2787.5416   -43139.334    41.825986   0.97586221 
   19100    220.20419    67.523946    127955.47   -40395.359    2739.7587   -43135.118    41.992423   0.97606996 
   19200    220.93413    495.60688    128114.22   -40362.087    2748.8406   -43110.928    42.015821   0.97486051 
   19300    226.30807    341.78895    128205.93   -40311.078    2815.7027    -43126.78    42.387497   0.97416311 
   19400     220.5082    329.64066    128187.04   -40319.059    2743.5412   -43062.601    42.416045   0.97430668 
   19500    220.48693    231.62334    128083.63   -40324.413    2743.2765    -43067.69    42.547505    0.9750933 
   19600    219.02054     223.5953    128239.73   -40370.439    2725.0319   -43095.471    42.770713   0.97390639 
   19700    222.00737     242.0502    128287.35   -40342.979    2762.1938   -43105.173    43.215768   0.97354489 
   19800    224.87457    247.92555    128201.49    -40387.17    2797.8672   -43185.037    43.371501    0.9741969 
   19900    222.49881    125.42187    128208.18   -40401.943    2768.3082   -43170.252    43.396182   0.97414605 
   20000    216.74936    350.07854    128055.04   -40452.426    2696.7741     -43149.2    43.385981   0.97531104 
   20100    222.02615    79.867128    127969.52    -40416.62    2762.4275   -43179.048    43.705909   0.97596279 
   20200    219.06555      316.151    127961.63    -40449.29     2725.592   -43174.882    43.814001   0.97602297 
   20300    216.51994    139.09103    127971.58   -40460.485    2693.9196   -43154.404    44.045844    0.9759471 
   20400    215.84745    262.18143    128163.83   -40452.581    2685.5527   -43138.134     44.11691   0.97448312 
   20500    217.29861    154.32274    128084.05   -40421.651    2703.6078   -43125.259     44.29858   0.97509012 
   20600    217.07603    344.30472    127960.58   -40446.355    2700.8385   -43147.193    44.257286   0.97603098 
   20700    218.75231    184.08568    128144.64   -40382.235    2721.6947    -43103.93    44.428516   0.97462909 
   20800    216.81396    357.76975    128300.02   -40380.129    2697.5778   -43077.707    44.796149   0.97344871 
   20900    218.17573    158.85194     128315.2   -40430.316    2714.5209   -43144.837    44.927959    0.9733336 
   21000    215.20611    158.86078     128092.6   -40525.911    2677.5732   -43203.484    45.133185   0.97502502 
   21100    215.16081    174.75982    128138.52   -40544.665    2677.0095   -43221.675    45.611578   0.97467559 
   21200    213.84756    202.10924    127952.66   -40522.148    2660.6702   -43182.818    45.871432   0.97609138 
   21300    217.99954    252.84828    128111.74   -40527.383    2712.3287   -43239.712    46.225843   0.97487935 
   21400    219.89923    70.855362    128202.47    -40492.04    2735.9645   -43228.004    46.289639   0.97418942 
   21500    216.02511    312.57386    127949.48   -40496.001     2687.763   -43183.764    46.340604   0.97611565 
   21600    223.55103    325.44838    128191.18     -40464.7    2781.3999     -43246.1     46.42646   0.97427526 
   21700    224.17719    351.05063    128252.44   -40455.171    2789.1904   -43244.361    46.706395   0.97380986 
   21800    223.74883    273.29913    128267.67    -40451.31    2783.8608   -43235.171    46.985414   0.97369427 
   21900     224.1537    214.00845    128330.09   -40476.623    2788.8982   -43265.521    47.315051   0.97322062 
   22000    216.59179    220.47696    128034.01   -40526.097    2694.8136   -43220.911    47.189506   0.97547123 
   22100     219.1773    331.43856     128248.1    -40451.44    2726.9823   -43178.422    47.629273   0.97384285 
   22200    217.39016    124.12908    128249.52   -40471.081    2704.7468   -43175.828     47.77227     0.973832 
   22300     223.8408    220.96514    128129.72   -40452.803    2785.0051   -43237.808    48.009561   0.97474258 
   22400    222.18939    164.35043    128112.43   -40421.594    2764.4584   -43186.053    48.115287   0.97487414 
   22500    223.20581    173.91415    128022.38   -40428.628    2777.1047   -43205.733    47.997887   0.97555983 
   22600    219.61995    306.60906    127869.35   -40393.902    2732.4897   -43126.392    48.188584   0.97672735 
   22700    224.68278    305.37425    128016.02   -40384.521     2795.481   -43180.002    48.418906    0.9756083 
   22800    226.61124    304.33891     128019.6   -40355.119    2819.4746   -43174.593    48.328684   0.97558104 
   22900    224.63384    297.20895    127907.68   -40399.847     2794.872   -43194.719    48.483688   0.97643462 
   23000    220.65149    203.86264    127954.24   -40388.813    2745.3241   -43134.137    49.105463   0.97607936 
   23100    215.56666    331.48945    127961.41   -40475.292     2682.059   -43157.351    49.478136   0.97602464 
   23200    218.35117    464.29589    128160.52   -40411.339    2716.7037   -43128.043    49.544051   0.97450828 
   23300    219.31186    412.99802    128252.76   -40460.003    2728.6564    -43188.66    49.684244   0.97380742 
   23400    221.01012    95.939291    128308.17   -40409.353     2749.786   -43159.139    49.714493   0.97338688 
   23500    218.15008    258.15339    128077.23   -40435.226    2714.2017   -43149.427     50.01206   0.97514201 
   23600    222.07299    402.17247    128164.25   -40404.942    2763.0101   -43167.953    50.395629   0.97447993 
   23700    218.85071    65.150498     128127.5   -40443.988    2722.9189   -43166.906    50.607538   0.97475948 
   23800    215.51563    294.44621    128039.02   -40486.643    2681.4242   -43168.067    50.504176   0.97543304 
   23900    218.08968    317.05941    128081.45   -40493.654    2713.4502   -43207.105    50.589066   0.97510989 
   24000     219.7531    239.53449    128049.06   -40422.988    2734.1464   -43157.134    50.638769   0.97535658 
   24100    218.25377    220.89856     127971.5   -40429.844    2715.4919   -43145.336    50.787762   0.97594769 
   24200    219.43965    280.37911    128021.24   -40482.984    2730.2464    -43213.23     50.89228    0.9755685 
   24300    217.95262    267.65984    127916.45   -40449.419    2711.7449   -43161.164    51.270948   0.97636769 
   24400    216.10761    130.72135    127844.38   -40483.216    2688.7895   -43172.006    51.623318   0.97691815 
   24500    218.55375    386.85689    127961.27   -40426.714    2719.2241   -43145.939    51.732817    0.9760257 
   24600    218.70076    194.33291    127730.54   -40413.204    2721.0532   -43134.257    51.873851   0.97778881 
   24700    219.05039     258.0847    127655.92   -40438.988    2725.4033   -43164.392    51.878776   0.97836034 
   24800    220.22596    295.40314    127763.31   -40438.139    2740.0296   -43178.169    51.824966   0.97753801 
   24900    220.39815    213.35847    127762.99   -40402.756    2742.1719   -43144.928    51.899469   0.97754048 
   25000    221.68782     310.7543    127745.58   -40390.147     2758.218   -43148.365    52.117579   0.97767365 
   25100    223.18675    215.57012    127755.45   -40400.917    2776.8674   -43177.784    52.254896   0.97759812 
   25200    221.44026    303.58038    127726.19     -40423.4    2755.1378   -43178.538    52.436437   0.97782213 
   25300    219.08896    190.97354    127567.19   -40415.073    2725.8832   -43140.956    52.703457   0.97904082 
   25400    217.56563    174.23801     127336.3   -40396.525      2706.93   -43103.455    52.818883   0.98081608 
   25500    220.23198    350.43554    127425.63   -40350.724    2740.1045   -43090.829    52.936607   0.98012853 
   25600    217.27526    187.77566     127475.5   -40419.376    2703.3173   -43122.693    53.380446   0.97974508 
   25700    219.57493    386.24363    127554.99   -40429.938    2731.9296   -43161.867    53.285667   0.97913447 
   25800    220.08998    297.75595    127437.24   -40398.971    2738.3378   -43137.309    53.557284   0.98003919 
   25900    223.29321    306.30012    127652.36    -40360.95     2778.192   -43139.142    53.630664   0.97838766 
   26000    223.56143    301.48978    127789.74    -40291.61    2781.5292   -43073.139    53.812328   0.97733585 
   26100    218.83413    238.78278    127876.36   -40362.874    2722.7126   -43085.586    53.882471   0.97667377 
   26200    219.59741    307.17143    127702.46   -40363.684    2732.2093   -43095.893    54.034828   0.97800377 
   26300    220.60648    259.23956    127680.12   -40343.678     2744.764   -43088.442    54.447877   0.97817492 
   26400    224.55895     213.7919    127776.14   -40339.319    2793.9402   -43133.259    54.464203   0.97743985 
   26500    218.24091    190.36331    127852.42    -40404.81    2715.3318   -43120.142     54.82563   0.97685667 
   26600    218.19026    39.717801     127670.1   -40451.933    2714.7017   -43166.634    54.781005   0.97825171 
   26700    218.72105    252.10467       127766   -40474.346    2721.3056   -43195.651    54.877458   0.97751739 
   26800    220.94465    267.86715    127944.53   -40391.844    2748.9714   -43140.816    55.208004   0.97615344 
   26900    220.33648     372.3911    128120.18   -40407.965    2741.4047    -43149.37    55.303251    0.9748151 
   27000    214.89581    212.87806     128224.8   -40451.976    2673.7124   -43125.689    55.565218   0.97401978 
   27100    217.87651    285.71478    128044.05   -40440.518     2710.798   -43151.316    55.472118   0.97539472 
   27200    215.25987    292.97854     128057.4    -40451.24    2678.2421   -43129.482    55.648175   0.97529301 
   27300    214.79823    234.53323    128051.15   -40485.259    2672.4984   -43157.757    55.876938   0.97534064 
   27400     217.9248    137.58078    128053.74   -40447.602    2711.3988   -43159.001    55.994586   0.97532093 
   27500    222.73979    199.33437    128243.45    -40391.52    2771.3064   -43162.827    56.295273   0.97387813 
   27600    218.61731    191.18741    128262.19   -40431.227     2720.015   -43151.242    56.428359   0.97373586 
   27700    218.95165    174.78668    128180.07   -40430.377    2724.1748   -43154.552    56.695268   0.97435965 
   27800    218.61731    256.18337    128181.13    -40349.96     2720.015   -43069.975    56.883608   0.97435161 
   27900    220.61843    272.36525    128235.35   -40359.428    2744.9127   -43104.341    57.112918   0.97393968 
   28000    219.68366    429.14637    128264.89   -40397.699    2733.2823   -43130.982    57.333397   0.97371531 
   28100    222.94081    205.58876    128281.12   -40391.976    2773.8075   -43165.784    57.592157   0.97359212 
   28200    219.12959    271.01014    128289.18   -40427.644    2726.3887   -43154.033    57.667884   0.97353097 
   28300    219.20548     263.1471    128174.48   -40414.675     2727.333   -43142.008    57.715386   0.97440218 
   28400    217.33391   -45.884655    127958.62    -40452.49     2704.047   -43156.537    57.936717   0.97604596 
   28500    216.21895    226.11516     127806.2   -40466.273    2690.1748   -43156.448    58.323318   0.97720993 
   28600    220.29038    503.81342    127897.21   -40413.561    2740.8312   -43154.392    58.428885   0.97651461 
   28700    217.65021    142.78726    127779.74    -40416.68    2707.9825   -43124.662    58.689716   0.97741233 
   28800    219.64396    347.36562    127832.11   -40365.332    2732.7884    -43098.12    58.738166   0.97701191 
   28900    220.14703    185.64564    127922.23   -40319.864    2739.0476   -43058.911    59.065812   0.97632358 
   29000    218.28354    204.42872    127934.04   -40390.965    2715.8622   -43106.827      59.3323   0.97623344 
   29100    222.87506    238.79348    127787.49   -40348.569    2772.9895   -43121.558    59.653773   0.97735302 
   29200    219.98621    218.34519    127665.57   -40324.636    2737.0467   -43061.682    59.653389   0.97828642 
   29300    219.95976    241.87004    127795.84    -40365.07    2736.7176   -43101.788    60.340973   0.97728915 
   29400    219.28921    346.67227    127853.47   -40420.657    2728.3747   -43149.032    60.399781   0.97684865 
   29500    220.99474    188.20952    127811.64   -40464.197    2749.5947   -43213.791     60.21043   0.97716838 
   29600    223.05979    204.96739    127782.53   -40390.511    2775.2879   -43165.798     60.03026   0.97739098 
   29700    219.54555    431.53378    128055.55   -40443.602     2731.564   -43175.166    60.298993   0.97530712 
   29800    220.16435    205.48058    128083.74   -40445.593    2739.2631   -43184.856    60.414883   0.97509246 
   29900    219.43393    306.12358    127910.88    -40494.35    2730.1753   -43224.526    60.633073   0.97641025 
   30000    223.71636    345.56041    127992.06   -40475.198    2783.4568   -43258.655     60.83583   0.97579089 
   30100    219.11271      183.673    128170.59   -40462.987    2726.1787   -43189.166    60.999236   0.97443172 
   30200     217.5836    298.91846    128447.47   -40478.111    2707.1536   -43185.265    61.449898   0.97233126 
   30300    221.62667     215.3364    128429.93   -40454.488    2757.4571   -43211.945    61.712399   0.97246407 
   30400    221.53105    189.61695    128219.52   -40436.163    2756.2675    -43192.43    61.886438   0.97405988 
   30500    222.68245     165.7318    128021.11   -40443.668    2770.5931   -43214.261    61.894039   0.97556952 
   30600    221.31046    213.55857    127989.64   -40436.815    2753.5229   -43190.338     61.75026   0.97580941 
   30700    224.40728    398.36203    128185.08   -40457.083    2792.0532   -43249.136     61.67817   0.97432158 
   30800    222.32173    331.86024    128067.73   -40410.428     2766.105   -43176.533    61.893816   0.97521441 
   30900    218.93047    256.30487    128201.09   -40532.039    2723.9113    -43255.95    61.834457    0.9741999 
   31000    221.48329    245.98711     128036.6   -40566.804    2755.6732   -43322.477     61.76543   0.97545149 
   31100    218.21069    274.86536    128289.68   -40561.035    2714.9559    -43275.99    62.248366   0.97352715 
   31200     218.0736    229.27579    128307.85   -40580.896    2713.2502   -43294.146    62.454922   0.97338935 
   31300    218.92287    363.65243    128424.86   -40548.962    2723.8167   -43272.779    62.754246   0.97250248 
   31400    220.48716    188.43419     128436.5   -40526.153    2743.2794   -43269.432    62.886791   0.97241431 
   31500      220.996    321.57339    128291.37   -40581.678    2749.6104   -43331.288    63.031789   0.97351434 
   31600     219.0287    266.12983    128541.67   -40509.527    2725.1334   -43234.661    63.479522   0.97161871 
   31700    218.64018     369.2728    128390.93    -40535.16    2720.2995    -43255.46    63.332187   0.97275944 
   31800     220.8259    509.77065    128494.37   -40458.629     2747.494   -43206.123    63.357874   0.97197637 
   31900    221.81326    345.24447    128615.34   -40455.236    2759.7787   -43215.015    63.806083   0.97106215 
   32000    220.24185    150.20809    128519.48   -40455.597    2740.2274   -43195.825    63.883903   0.97178644 
   32100    224.07447    187.60585    128694.27   -40467.743    2787.9124   -43255.655    63.993262   0.97046658 
   32200    224.02006    293.21146    128710.58   -40462.713    2787.2354   -43249.949    64.048881    0.9703436 
   32300    222.35736    352.31741    128671.08    -40448.88    2766.5483   -43215.428    64.138204   0.97064153 
   32400    219.15251    162.72254    128638.79   -40508.741    2726.6739   -43235.415    64.204192   0.97088513 
   32500    218.34307    255.59481    128609.06   -40509.237    2716.6029   -43225.839    64.444195   0.97110959 
   32600    220.00098    316.85524    128619.13   -40451.252    2737.2304   -43188.483    64.484862   0.97103358 
   32700    219.29354    214.99254    128788.24   -40507.591    2728.4285   -43236.019    64.724425   0.96975854 
   32800    216.28549    293.47246    128713.24   -40540.691    2691.0027   -43231.694    64.914173   0.97032359 
   32900    215.88894    32.844163    128626.95   -40525.214    2686.0689   -43211.283    64.944578   0.97097452 
   33000    217.56353    219.89289    128576.98    -40571.23    2706.9039   -43278.134     64.93166   0.97135188 
   33100    220.20288     285.9088    128715.82   -40502.127    2739.7424   -43241.869    64.978467   0.97030414 
   33200    216.70547    201.59766    128676.93   -40542.106     2696.228   -43238.334    65.139464   0.97059738 
   33300    220.92145    224.86136     128575.3   -40488.406    2748.6828   -43237.088    65.403719   0.97136459 
   33400    215.27646    319.85679    128717.71   -40561.366    2678.4484   -43239.815    65.842859   0.97028991 
   33500    217.95558    309.70639    128527.76   -40521.928    2711.7817   -43233.709    65.669636   0.97172387 
   33600    219.67927    347.56751    128479.65   -40480.069    2733.2277   -43213.297    65.647155   0.97208777 
   33700    218.06811    372.04769    128596.86   -40467.619    2713.1819   -43180.801    65.841506   0.97120175 
   33800    220.09774     323.6588    128731.63   -40450.085    2738.4343   -43188.519    66.108711   0.97018492 
   33900     219.3418     383.6773    128791.89   -40451.256    2729.0289   -43180.285    66.374168   0.96973101 
   34000    220.60009    320.16927    128765.67   -40418.807    2744.6845   -43163.491    66.520855   0.96992846 
   34100     220.2918    100.11968    128824.78   -40456.507    2740.8489   -43197.356    67.016455   0.96948344 
   34200    219.22274    341.67887    128730.41   -40450.934    2727.5476   -43178.481    67.154307   0.97019414 
   34300    214.71213    334.36544    128908.31    -40497.11    2671.4271   -43168.537    67.606072   0.96885524 
   34400    219.62973    222.48745    128731.61   -40424.625    2732.6115   -43157.237    67.497564   0.97018514 
   34500    218.00914    185.77979    128671.46    -40450.06    2712.4482   -43162.508      67.4744   0.97063866 
   34600    219.28819    225.53161    128633.09   -40438.888     2728.362    -43167.25    67.647185   0.97092816 
   34700    216.22879    255.88774    128689.86   -40504.818    2690.2972   -43195.115    68.085714   0.97049985 
   34800    219.08975    197.31992    128487.12    -40491.28     2725.893   -43217.173    68.159483    0.9720312 
   34900    216.93053    119.83183    128361.01   -40510.386    2699.0282   -43209.414    67.870415   0.97298618 
   35000    212.77826    377.69471       128303    -40584.39     2647.366   -43231.756    67.705822   0.97342614 
   35100    214.50248    276.32636     128327.4    -40511.78    2668.8186   -43180.599     67.94277   0.97324105 
   35200    216.42557    125.75895    128219.02   -40507.598    2692.7456   -43200.344    68.295427   0.97406367 
   35300    216.13653    438.61199    128322.06   -40482.569    2689.1493   -43171.718    68.499886   0.97328157 
   35400     215.9317    37.806623    128478.92   -40519.108    2686.6009   -43205.709    68.592459   0.97209324 
   35500    226.49947    155.70179    128288.77    -40436.08    2818.0841   -43254.164    68.441266   0.97353406 
   35600    220.36747    307.35418    128341.92   -40492.124    2741.7902   -43233.914    68.784656   0.97313093 
   35700    222.26802    226.16814    128287.87   -40468.789    2765.4368   -43234.226    68.913457   0.97354091 
   35800    215.63972    306.81252    128376.86   -40495.658    2682.9681   -43178.626    69.077344    0.9728661 
   35900     222.1956    347.81378    128417.74   -40440.672    2764.5357   -43205.208     69.27809    0.9725564 
   36000    221.21632    123.56037    128400.82   -40417.934    2752.3516   -43170.286    69.434437    0.9726845 
   36100    220.83207    281.49048     128413.4   -40438.728    2747.5708   -43186.299    69.733985   0.97258925 
   36200    217.21297    317.74597    128108.77   -40462.448    2702.5424    -43164.99     69.85231   0.97490194 
   36300    217.20458    277.18433    128391.04   -40506.675    2702.4379   -43209.112    70.382558   0.97275859 
   36400    220.88955    363.91118    128302.28   -40437.785    2748.2859   -43186.071    70.244303   0.97343162 
   36500    223.51737    247.49577    128361.71    -40415.14     2780.981   -43196.121    70.344049   0.97298086 
   36600    214.21931    344.22933    128321.02   -40540.541    2665.2955   -43205.837    70.336735   0.97328939 
   36700    219.00721    365.89048    128272.23   -40470.898    2724.8661   -43195.764     70.74048   0.97365963 
   36800    218.44311    221.03243    128352.52   -40469.005    2717.8475   -43186.852    70.850089   0.97305057 
   36900    215.48821     272.7807    128256.01   -40495.423     2681.083   -43176.506    71.013608   0.97378277 
   37000    218.03767    97.174265    128354.28   -40431.273    2712.8031   -43144.076     71.17984   0.97303721 
   37100    223.09935    324.88906    128418.94   -40410.399    2775.7801   -43186.179    71.294954   0.97254726 
   37200    219.39736   -8.6353432    128482.42   -40466.586    2729.7202   -43196.306    71.532437   0.97206678 
   37300     221.9033    292.19416    128332.41   -40487.996     2760.899   -43248.895     71.47755   0.97320307 
   37400    218.10867    251.34968     128215.4   -40525.252    2713.6865   -43238.939    71.599487   0.97409117 
   37500    215.97086     197.4685    128039.17   -40524.829    2687.0881   -43211.917    71.626637   0.97543189 
   37600    220.39324    407.70329    128239.73   -40480.627    2742.1109   -43222.738    71.669266   0.97390639 
   37700    218.04289     174.3549    128241.36   -40490.899     2712.868   -43203.767     71.67859   0.97389398 
   37800    214.04059    431.47496    128155.74   -40587.274    2663.0719   -43250.346     71.61508   0.97454464 
   37900    215.92611    142.59396    128102.58   -40558.182    2686.5313   -43244.713    71.676654   0.97494908 
   38000    219.30371    64.729272    128212.65   -40529.953     2728.555   -43258.508     71.85937   0.97411209 
   38100    221.88405    302.50223    128204.65   -40488.062    2760.6594   -43248.721    72.266557   0.97417285 
   38200    217.45716    95.130591    128074.37   -40501.106    2705.5804   -43206.687    72.185563   0.97516384 
   38300    223.65892    362.91764       128095   -40445.817    2782.7422   -43228.559    72.448787    0.9750068 
   38400    218.75572    445.36229    128195.67   -40507.264    2721.7371   -43229.001    72.673949   0.97424111 
   38500    217.55107    78.134696    128263.74   -40509.686    2706.7489   -43216.434     72.90195    0.9737241 
   38600    218.08365    378.04332    128404.24    -40472.04    2713.3752   -43185.415    73.189807   0.97265863 
   38700     217.2554    194.96682    128557.65   -40477.599    2703.0703   -43180.669    73.587321   0.97149791 
   38800    214.26168    426.74156    128619.23   -40504.237    2665.8227   -43170.059    73.708602   0.97103277 
   38900    219.51525    257.47464    128619.44   -40459.022     2731.187   -43190.209    73.782588   0.97103123 
   39000    216.38621    215.64294    128607.82   -40507.263    2692.2558   -43199.518    74.081062   0.97111893 
   39100    219.70967    185.88212    128593.11   -40465.373     2733.606   -43198.979    74.296987   0.97123003 
   39200    217.05873    250.78745    128514.54   -40493.449    2700.6233   -43194.073    74.373404    0.9718238 
   39300    219.64864    79.910579    128448.25   -40468.534    2732.8467    -43201.38    74.609517   0.97232533 
   39400    219.12367    250.01788    128479.28   -40430.561     2726.315   -43156.876    74.869014   0.97209049 
   39500    221.43789     526.2916    128576.73   -40415.228    2755.1083   -43170.336    75.114177   0.97135378 
   39600    215.80695    98.014239    128624.15   -40467.206    2685.0488   -43152.255    75.179273   0.97099565 
   39700     219.3134    395.98255    128604.36   -40406.315    2728.6756   -43134.991    75.076068   0.97114508 
   39800    219.28994     289.0583    128614.88   -40481.224    2728.3837   -43209.608    75.271951   0.97106567 
   39900    219.11151    250.68022    128677.22   -40513.656    2726.1637    -43239.82    75.613266   0.97059521 
   40000    214.02698    109.36403    128527.88   -40526.873    2662.9026   -43189.776    75.605812   0.97172294 
   40100    218.34133    174.37842    128184.66   -40421.081    2716.5812   -43137.662     75.52964   0.97432475 
   40200    215.66477    331.57468    128046.27   -40435.798    2683.2797   -43119.078    75.780182   0.97537784 
   40300     220.4013    326.07587    128160.38   -40403.324    2742.2112   -43145.535    75.987706   0.97450934 
   40400    224.09258     332.4384    128324.35   -40311.481    2788.1378   -43099.619    75.998575    0.9732642 
   40500    224.15439    241.74724    128352.98    -40326.82    2788.9068   -43115.727    76.205269    0.9730471 
   40600    221.01609    247.92056    128493.57   -40376.843    2749.8603   -43126.703     76.56127   0.97198239 
   40700    218.44858    355.82254    128444.08   -40431.485    2717.9156   -43149.401    76.897395   0.97235692 
   40800    218.76265    111.37068    128286.55   -40481.747    2721.8233    -43203.57    76.976013   0.97355095 
   40900    219.11794    305.60278    128158.87   -40521.502    2726.2438   -43247.746    76.807152   0.97452083 
   41000    219.90983    240.79567    128061.39   -40433.537    2736.0963   -43169.633    77.041372   0.97526263 
   41100     220.1547    427.69713    128108.89   -40418.335     2739.143   -43157.478    76.942701   0.97490104 
   41200    217.47621    333.71236    128490.88   -40431.107    2705.8175   -43136.924    77.205739    0.9720028 
   41300    214.91745    351.48974    128517.84   -40593.518    2673.9817   -43267.499    77.380236   0.97179888 
   41400    219.62379    250.98922    128528.23   -40545.967    2732.5375   -43278.504    77.502281   0.97172031 
   41500    217.07419    364.38245    128492.48   -40548.111    2700.8156   -43248.927    77.889079   0.97199067 
   41600    216.96903    203.73734    128346.48   -40520.593    2699.5073     -43220.1    78.396929   0.97309634 
   41700     219.8018    263.06307    128539.92   -40493.901    2734.7523   -43228.653    78.563676    0.9716319 
   41800    216.87455    158.44539    128615.74   -40488.826    2698.3317   -43187.158    78.903699   0.97105914 
   41900    219.04463    345.65998    128733.98   -40463.254    2725.3316   -43188.585    79.410299   0.97016721 
   42000    219.28686    110.94914     128538.6    -40458.67    2728.3455   -43187.015    79.367167   0.97164192 
   42100    223.60069    273.91228    128814.44   -40463.928    2782.0177   -43245.945    79.382128   0.96956129 
   42200    224.13729    136.75757    128872.19   -40424.656     2788.694    -43213.35     79.56373   0.96912675 
   42300    219.32785    233.72302    128794.22   -40413.956    2728.8554   -43142.811    79.727965   0.96971349 
   42400    222.81064    244.96487    128880.17   -40444.931    2772.1879   -43217.119    80.204996   0.96906681 
   42500     218.5468    246.08398     128643.7    -40444.69    2719.1377   -43163.828    80.443029    0.9708481 
   42600    221.91719    252.69722    128527.84    -40449.45    2761.0717   -43210.522    80.326132   0.97172329 
   42700    218.01782    187.48349    128515.41   -40453.011    2712.5562   -43165.567    80.194943   0.97181727 
   42800    216.96865    364.13602    128570.76   -40378.631    2699.5025   -43078.134     80.30391   0.97139888 
   42900    218.10029    347.42402    128575.29   -40447.707    2713.5823   -43161.289    80.384871   0.97136462 
   43000    221.32162     291.8589     128546.8   -40468.666    2753.6618   -43222.328    80.550091   0.97157992 
   43100     218.1002     141.1043    128515.86   -40443.566    2713.5811   -43157.147    80.625277   0.97181384 
   43200     216.1533    258.32127    128530.35   -40402.953    2689.3581   -43092.311    80.644212   0.97170425 
   43300    219.75194    194.19147    128570.55   -40432.985    2734.1319   -43167.117     80.66466   0.97140045 
   43400    223.36688    260.95394    128497.77   -40392.531    2779.1086   -43171.639    80.914067   0.97195067 
   43500    220.73472    218.60281    128541.86   -40399.154    2746.3596   -43145.514     81.32771    0.9716173 
   43600    222.71599    113.94397    128522.85   -40314.266    2771.0103   -43085.277    81.399131   0.97176098 
   43700    224.09213    62.496505    128296.66   -40345.204    2788.1321   -43133.336    81.529663   0.97347419 
   43800    223.96986    182.14689    128484.57    -40356.55    2786.6109   -43143.161      81.6912   0.97205053 
   43900    223.07116    259.82351    128437.85    -40395.89    2775.4294   -43171.319    81.776518    0.9724041 
   44000    219.22692    311.06777    128475.12   -40431.273    2727.5996   -43158.873    82.077166   0.97212198 
   44100    218.79488    152.33511    128581.74    -40442.92    2722.2242   -43165.144    82.314085   0.97131589 
   44200    217.94992    265.30037    128691.32   -40471.098    2711.7113   -43182.809     82.36085   0.97048887 
   44300    220.87834    438.97075    128374.78   -40484.406    2748.1465   -43232.553    82.626219   0.97288184 
   44400    219.47916    192.75173    128430.04   -40454.918     2730.738   -43185.656     82.25868    0.9724632 
   44500    221.25002    337.16263    128462.35   -40479.962    2752.7708   -43232.733    82.440145   0.97221867 
   44600    219.19563    189.73375    128497.53   -40552.022    2727.2103   -43279.232    82.289813   0.97195246 
   44700    221.80425    172.79077    128454.44   -40549.262    2759.6666   -43308.928     82.71079    0.9722785 
   44800    221.18048    82.485773       128535   -40520.613    2751.9057   -43272.519    82.955825   0.97166916 
   44900    219.06206     48.09142    128373.93   -40460.032    2725.5485   -43185.581    83.129582   0.97288827 
   45000    218.30836    334.61503    128181.65   -40447.222     2716.171   -43163.393     83.34739   0.97434765 
   45100    221.94286    379.00491    127936.42   -40381.291    2761.3911   -43142.682    83.580633   0.97621532 
   45200    219.13294     384.3712    127876.96   -40430.013    2726.4304   -43156.444    84.008778   0.97666923 
   45300    217.65646    169.92369    128151.16   -40424.914    2708.0602   -43132.974    84.146428   0.97457946 
   45400    221.35405    286.63217    128093.72   -40394.996    2754.0653   -43149.061    84.288972   0.97501653 
   45500    218.77251    286.27868    128098.91   -40401.989    2721.9459   -43123.935    84.327688   0.97497701 
   45600     219.1772    231.87542    127808.83   -40405.639    2726.9811    -43132.62    84.111386   0.97718984 
   45700     215.9373    317.10708    127766.33    -40409.76    2686.6705    -43096.43    84.126647   0.97751491 
   45800    222.47119    238.23814    127855.66   -40356.748    2767.9646   -43124.713    84.268935   0.97683191 
   45900    225.52018    370.84196     127995.9     -40292.9    2805.8998     -43098.8    84.975277   0.97576165 
   46000    225.73075    184.47523    127888.62   -40274.295    2808.5196   -43082.815    84.937125   0.97658017 
   46100    226.51019     251.1556    128039.34   -40237.613    2818.2174    -43055.83    85.103754   0.97543062 
   46200    230.23655    168.11079    128078.27    -40228.37    2864.5804   -43092.951    85.271558   0.97513413 
   46300    225.84264    257.83343     128000.8   -40246.934    2809.9118   -43056.846    85.317901   0.97572432 
   46400    224.11481    162.38467    128013.12   -40269.969    2788.4144   -43058.383    85.653648   0.97563041 
   46500    225.05634    149.82147    128023.25   -40281.181    2800.1288    -43081.31    85.668889   0.97555319 
   46600    221.44626    236.32779    127988.43   -40258.144    2755.2125   -43013.357    85.644871   0.97581864 
   46700    218.71721     181.2368    128164.24   -40343.126    2721.2579   -43064.384    85.954285   0.97448004 
   46800    215.38735    47.589963    128130.14   -40389.361    2679.8282   -43069.189    86.040009   0.97473934 
   46900    220.90436    107.43604    127942.24   -40308.546    2748.4702   -43057.017    86.410341   0.97617089 
   47000    219.04983    216.67747    127689.32   -40294.876    2725.3963   -43020.273    86.502766   0.97810447 
   47100    223.39732    198.33483    127694.36   -40266.121    2779.4874   -43045.609    86.349939   0.97806587 
   47200    217.92059    194.80302    127601.45   -40315.315    2711.3464   -43026.661    86.920354   0.97877799 
   47300     220.8834    287.92683    127588.39   -40329.709    2748.2094   -43077.918    87.025584   0.97887822 
   47400    221.37983    210.60801     127423.6   -40284.403    2754.3859   -43038.788     87.44426   0.98014415 
   47500     222.0079    258.36284    127346.53   -40219.293    2762.2003   -42981.493    87.542581   0.98073733 
   47600    225.72094    264.20574    127296.26   -40159.967    2808.3976   -42968.365     87.76727   0.98112461 
   47700    223.54326    243.50025    127418.51   -40202.015    2781.3032   -42983.318    88.095603   0.98018327 
   47800     222.8115    448.27288    127410.82   -40196.084    2772.1986   -42968.283    88.450602   0.98024239 
   47900    220.29587   -9.4745781    127362.63   -40273.619    2740.8994   -43014.518    88.640372   0.98061328 
   48000    215.83118    348.13325    127261.11   -40284.202    2685.3502   -42969.552    88.771515   0.98139557 
   48100    222.59894    369.67833    127195.75   -40249.185     2769.554   -43018.739    89.209622   0.98189988 
   48200    218.43482    231.28109    127293.06   -40289.515    2717.7444   -43007.259    89.615977   0.98114925 
   48300    218.92002    242.97939    127216.82   -40274.377    2723.7812   -42998.158    89.751225   0.98173729 
   48400    221.73099    571.20157    127431.57   -40182.602    2758.7551   -42941.357    90.189793   0.98008285 
   48500    221.02669    235.14185    127330.81   -40244.994    2749.9922   -42994.987    90.249944   0.98085839 
   48600    218.23062    338.49485    127210.85   -40248.896    2715.2038   -42964.099    90.456301   0.98178333 
   48700    224.03021    89.386392    127131.91   -40212.608    2787.3617    -42999.97    90.770713   0.98239296 
   48800    220.52362    91.217998    127163.84   -40249.788    2743.7331   -42993.522    90.996162   0.98214623 
   48900    218.37952    320.53266    127146.66    -40258.26    2717.0564   -42975.316    91.367408     0.982279 
   49000    220.35418    351.06438    127276.36   -40289.281     2741.625   -43030.906    91.429247   0.98127799 
   49100    220.60314    280.50212    127377.08   -40294.755    2744.7224   -43039.477    91.754346   0.98050208 
   49200    219.75614    138.34292    127468.79   -40325.296    2734.1841    -43059.48     92.00508   0.97979659 
   49300     220.9637    346.45369    127591.81    -40285.28    2749.2085   -43034.489    92.563888   0.97885193 
   49400     219.6445    218.38976    127669.91   -40259.646    2732.7952   -42992.441    92.796135   0.97825317 
   49500    217.37896    58.210716    127489.15   -40265.388    2704.6075   -42969.995    92.993999   0.97964015 
   49600    219.55375     192.3715    127228.59   -40257.045     2731.666   -42988.711    93.326408   0.98164646 
   49700    220.01596    410.54471    127215.37   -40277.984    2737.4168   -43015.401    93.579026   0.98174841 
   49800    222.14148    371.86794    127189.73   -40324.577    2763.8624   -43088.439    93.589588   0.98194633 
   49900    222.64377    406.61544    127519.82   -40208.164    2770.1118   -42978.276    94.288952   0.97940455 
   50000    222.39484    221.12665    127636.09   -40243.944    2767.0146   -43010.959    94.641952   0.97851233 
   50100    224.56215    396.12973     127577.4   -40266.179      2793.98   -43060.159    94.905766   0.97896249 
   50200    220.14424    117.01178    127380.02   -40330.029    2739.0129   -43069.042    94.467288   0.98047945 
   50300    223.99938    111.70736    127593.68   -40308.656    2786.9781   -43095.634    94.923379   0.97883759 
   50400    220.32418    177.42437     127425.1   -40348.464    2741.2517   -43089.715    95.103864   0.98013259 
   50500     219.5688    309.69632    127517.62   -40400.669    2731.8533   -43132.522    95.510007   0.97942148 
   50600     216.8367    631.17347    127382.66   -40434.826    2697.8607   -43132.687    95.689147   0.98045914 
   50700    216.15953    131.52972    127349.98   -40437.995    2689.4355   -43127.431    95.952064   0.98071074 
   50800    215.51693    285.31138    127267.53   -40429.429    2681.4404    -43110.87    96.246411   0.98134606 
   50900    222.56145    272.92855    127534.53   -40353.986    2769.0875   -43123.074    96.428878   0.97929155 
   51000    218.35502     271.2411    127657.54   -40387.517    2716.7516   -43104.268    96.775283   0.97834795 
   51100    218.45614    133.17115    127489.49   -40426.437    2718.0097   -43144.447     96.93193   0.97963757 
   51200    221.65841    161.02929    127689.45   -40414.091     2757.852   -43171.943    97.223127   0.97810346 
   51300    211.80076    108.42689    127619.97   -40461.291    2635.2041   -43096.495    97.430006   0.97863599 
   51400     217.1612    251.19004    127708.12   -40449.391    2701.8982   -43151.289    97.805746   0.97796042 
   51500    218.80105    305.82565    127683.75   -40435.546     2722.301   -43157.847    97.876567   0.97814712 
   51600     218.6992    242.32533     127766.3   -40385.131    2721.0338   -43106.165    98.367368   0.97751515 
   51700    220.86525    194.47854    127727.04   -40388.779    2747.9836   -43136.763    98.507763   0.97781559 
   51800    223.41398    346.85009    127596.41   -40435.677    2779.6947   -43215.371    98.653553   0.97881666 
   51900    220.47775    242.46962     127383.2   -40482.184    2743.1624   -43225.346    98.746346   0.98045494 
   52000    216.73377    117.74755    127378.36   -40493.273    2696.5802   -43189.853    99.001157   0.98049219 
   52100    217.36195    37.249239    127310.15   -40441.105    2704.3959   -43145.501    99.143495   0.98101753 
   52200    213.82076    303.27426    127496.82   -40446.826    2660.3368   -43107.163    99.050485   0.97958123 
   52300    217.08517    306.55737    127446.18   -40412.294    2700.9522   -43113.246    98.945299   0.97997048 
   52400    221.92983    56.484358    126978.96   -40355.962    2761.2291   -43117.191    98.812079    0.9835763 
   52500    216.89658      282.008    127041.68   -40344.221    2698.6058   -43042.827    99.264259   0.98309067 
   52600    217.99794    269.08022    127009.02   -40364.917    2712.3088   -43077.226    99.191411   0.98334348 
   52700    217.32405    302.57501    127225.14   -40383.454    2703.9243   -43087.379     99.54981   0.98167307 
   52800    219.24411    306.77992    127382.95   -40325.147    2727.8136    -43052.96    99.560005   0.98045691 
   52900    219.71207    442.04649    127514.51   -40314.676    2733.6358   -43048.312    99.752505   0.97944537 
   53000    217.87993    361.09812    127520.33   -40295.477    2710.8406   -43006.318    99.828013   0.97940065 
   53100    220.84421    262.46251    127721.51   -40337.546    2747.7219   -43085.268    100.18328    0.9778579 
   53200    220.74808    245.34849     127914.4   -40327.376    2746.5257   -43073.902    100.30273   0.97638333 
   53300    219.02387    265.28853    127822.33   -40323.914    2725.0733   -43048.987    100.42748   0.97708666 
   53400    219.31605    316.73423    127894.46   -40416.341    2728.7086    -43145.05    100.70794    0.9765356 
   53500    219.31658    224.81859    127761.33   -40438.685    2728.7152     -43167.4    100.78111   0.97755314 
   53600    216.18318    313.01756    127781.87    -40442.66    2689.7297   -43132.389    100.95708   0.97739599 
   53700    214.50875    208.52903    127624.18   -40479.783    2668.8967   -43148.679     100.9912   0.97860367 
   53800    217.58157    263.36849    127729.44   -40365.602    2707.1284    -43072.73    101.75049   0.97779721 
   53900    216.64966      247.572    127405.25   -40403.578    2695.5337   -43099.112    101.71802   0.98028525 
   54000    217.46589    285.06673    127572.41   -40362.646    2705.6891   -43068.335    101.86015    0.9790008 
   54100    217.74873    291.12371    127566.52   -40359.132    2709.2082    -43068.34    102.05788   0.97904603 
   54200    216.80353     82.12905    127656.41   -40339.021    2697.4481    -43036.47    101.91466   0.97835663 
   54300    216.94624     269.9936    127600.99   -40322.352    2699.2236   -43021.575    102.17121   0.97878154 
   54400    221.06827    173.70583    127667.28   -40355.581    2750.5095   -43106.091    102.39107   0.97827334 
   54500    220.45825    403.08208    127438.37   -40347.019    2742.9198   -43089.938     102.4399   0.98003054 
   54600    224.14293    335.17819    127531.84   -40256.896    2788.7642    -43045.66    102.65419   0.97931221 
   54700    223.74832    344.02591    127479.63   -40264.578    2783.8545   -43048.432    102.99622   0.97971334 
   54800    225.07728    453.15875    127487.22   -40307.962    2800.3893   -43108.352    103.31481   0.97965501 
   54900    219.24109   -8.2086182     127420.3   -40332.661     2727.776   -43060.437    103.52468   0.98016947 
   55000    214.51469     355.5919    127127.71   -40375.844    2668.9706   -43044.814    103.27716   0.98242537 
   55100     215.6607    146.92876    127238.61   -40336.425    2683.2292   -43019.654    103.61223   0.98156915 
   55200    213.97396    189.95419    127093.88   -40328.478    2662.2429   -42990.721    103.88723   0.98268686 
   55300    219.26344    446.49806    127033.07   -40272.708    2728.0541   -43000.763    104.47118    0.9831573 
   55400    221.82301    218.55362    127272.05    -40249.71       2759.9    -43009.61    104.92518   0.98131122 
   55500    223.32919    239.73021     127246.1   -40193.926    2778.6397   -42972.566    105.16336   0.98151136 
   55600    217.18537    212.30898    127086.19   -40234.367    2702.1989   -42936.565    105.54988    0.9827464 
   55700    218.95726    262.32569    126839.67   -40239.784    2724.2446   -42964.029    105.23836   0.98465639 
   55800    220.82496    260.31498     126787.1   -40232.324    2747.4823   -42979.806    105.04203   0.98506466 
   55900    222.78756    312.63158    126817.55   -40213.592    2771.9008   -42985.492    105.35125   0.98482812 
   56000    221.00518    240.41024    127049.79   -40222.793    2749.7246   -42972.517    105.73871   0.98302791 
   56100    225.14928    426.63866    126922.07   -40198.378    2801.2851   -42999.664    106.12929   0.98401716 
   56200    221.54481    337.51309    126818.91   -40196.607    2756.4386   -42953.046    106.56363   0.98481756 
   56300    222.56062    109.75108     126785.4   -40219.831    2769.0772   -42988.908    106.72558   0.98507783 
   56400    219.97443    182.20269     126823.3   -40207.345    2736.9001   -42944.245    106.98214   0.98478348 
   56500    214.92334      189.586    126777.97    -40303.48    2674.0549   -42977.535     107.3234   0.98513563 
   56600    213.94327    182.26634    126607.02   -40318.527     2661.861   -42980.388    107.50741   0.98646577 
   56700    216.93976    292.53307    126416.65   -40334.815    2699.1431   -43033.959    107.58463    0.9879513 
   56800    218.84623    252.22781     126563.6   -40254.263    2722.8632   -42977.126    108.03227   0.98680422 
   56900    220.55332    285.62902    126558.82   -40233.477    2744.1026   -42977.579    108.11023   0.98684146 
   57000    225.79841    469.44886    126703.19   -40191.967    2809.3615   -43001.329     108.5713   0.98571703 
   57100    219.78705    46.690018    126589.76    -40243.02    2734.5688   -42977.589    108.49992    0.9866003 
   57200    218.49396    231.94164    126611.02   -40289.535    2718.4803   -43008.016    108.87375   0.98643463 
   57300    215.12989    367.35229    126519.43   -40323.225    2676.6248    -42999.85    108.85717   0.98714869 
   57400    216.16238    291.81052    126531.95   -40328.151     2689.471   -43017.622    109.18885   0.98705101 
   57500    213.31209    300.52394    126653.56   -40384.595     2654.008   -43038.603    109.34637   0.98610325 
   57600    214.86407     205.4427     126559.3   -40334.656    2673.3176   -43007.974    109.30622   0.98683771 
   57700    217.11292    133.82939    126708.13   -40382.356    2701.2975   -43083.654    109.64114   0.98567861 
   57800    214.87258    230.04563    126585.23   -40401.809    2673.4234   -43075.232    109.98268   0.98663554 
   57900    219.44385    293.37788    126867.94   -40389.914    2730.2987   -43120.213    110.55688   0.98443694 
   58000    218.44976    276.77096    126985.62   -40394.771    2717.9303   -43112.701    110.66497   0.98352468 
   58100    217.89572    120.12055    126939.97   -40319.746     2711.037   -43030.784    110.97426   0.98387839 
   58200    218.37641    407.10819    126898.51   -40270.614    2717.0178   -42987.632    111.04681   0.98419984 
   58300    220.24379    413.00298    127001.58   -40210.999    2740.2514   -42951.251     111.1819    0.9834011 
   58400    222.25375    203.36363    127010.57   -40209.222    2765.2592   -42974.481    111.25634   0.98333147 
   58500    221.01949    429.68413    126966.06   -40218.634    2749.9027   -42968.537    111.32661    0.9836762 
   58600    222.15376    312.80541    126917.82   -40180.785    2764.0151     -42944.8    111.47388   0.98405005 
   58700    222.61895    187.21507    126956.28   -40168.644    2769.8029   -42938.447    111.79353   0.98375199 
   58800    218.90311    64.853576    126955.41   -40206.462    2723.5708   -42930.033     112.2501   0.98375869 
   58900    219.24155    133.61433    126848.61   -40250.967    2727.7817   -42978.749    112.18357   0.98458696 
   59000    218.94537    148.34556    126785.51   -40228.292    2724.0967   -42952.389    112.06158   0.98507701 
   59100    221.40285    332.33045    126849.25   -40245.215    2754.6723   -42999.887    112.24871     0.984582 
   59200      221.785    260.30167    126814.73   -40265.045     2759.427   -43024.472    112.42397   0.98485002 
   59300    219.82303    160.93989    126831.61   -40252.992    2735.0164   -42988.009    112.93399   0.98471894 
   59400    216.49001    377.73101    126901.71   -40309.551    2693.5474   -43003.098    113.48027     0.984175 
   59500    222.15808     208.6934    126719.21   -40284.136    2764.0688   -43048.204    113.95667   0.98559239 
   59600    218.72025    478.38013    126758.43   -40279.795    2721.2957   -43001.091    114.04306   0.98528743 
   59700    214.78327    474.11134    126841.15   -40306.468    2672.3122    -42978.78    113.93512    0.9846449 
   59800    222.68028    177.11904    126557.44   -40304.904     2770.566    -43075.47    113.80079   0.98685226 
   59900    218.14361    261.78327     126738.8   -40285.169    2714.1213    -42999.29    114.43681    0.9854401 
   60000    216.72223    210.81517    126868.37   -40331.375    2696.4366   -43027.812    114.68549   0.98443367 
   60100    221.76244    210.69987    126901.68   -40293.611    2759.1463   -43052.757    114.88762   0.98417524 
   60200    220.33969    233.99633    126867.96   -40297.609    2741.4446   -43039.053    114.98388   0.98443682 
   60300    220.16311    210.69652    126960.66   -40274.274    2739.2476   -43013.522    115.28043   0.98371804 
   60400    222.33166    348.98088    127123.25   -40234.276    2766.2285   -43000.505    115.45366   0.98245984 
   60500    222.39279    110.72101     127130.9   -40286.669    2766.9891   -43053.658    115.70678   0.98240073 
   60600    220.40378    347.54466    127155.78   -40344.494     2742.242   -43086.736    116.37275   0.98220855 
   60700     223.8363    462.44894    127359.62   -40374.148    2784.9491   -43159.097    116.56511   0.98063648 
   60800    219.91132    154.06227    127395.49   -40335.521     2736.115   -43071.636    116.99526   0.98036037 
   60900    223.06571    281.08705    127344.74   -40323.263    2775.3615   -43098.625    117.17352   0.98075105 
   61000    215.24006    264.19581    127390.45   -40356.819    2677.9956   -43034.814    117.17881   0.98039919 
   61100    219.65016    302.76068    127370.72   -40367.771    2732.8656   -43100.636    117.26828     0.980551 
   61200    223.02269    137.00736    127338.34   -40367.041    2774.8262   -43141.867    117.50084   0.98080034 
   61300    220.09119    400.33257    127384.98    -40359.19    2738.3528   -43097.543    118.23629   0.98044128 
   61400    218.30069    391.52458    127442.26   -40388.214    2716.0755   -43104.289    118.67826    0.9800006 
   61500    216.81925    318.25983     127340.2   -40376.874    2697.6437   -43074.518    118.73844   0.98078601 
   61600    214.64657    230.78429    127397.66   -40334.769    2670.6113   -43005.381    119.04684    0.9803437 
   61700    217.88675    370.44487    127813.65   -40417.381    2710.9254   -43128.306    119.51776   0.97715297 
   61800    214.69058    382.79153    127804.34   -40504.606     2671.159   -43175.765    119.56142    0.9772242 
   61900    216.34528    216.43545    127836.56   -40456.278    2691.7466   -43148.025    119.95618   0.97697791 
   62000    222.90875    145.26043     127874.6   -40419.936    2773.4087   -43193.345    120.20375   0.97668728 
   62100    219.97891    248.65417    128044.01    -40439.48    2736.9559   -43176.436    120.61454   0.97539502 
   62200    221.24318    200.29854    128019.27   -40395.243    2752.6857   -43147.929    120.95782   0.97558351 
   62300    217.24291     332.2646    127939.55    -40431.03    2702.9148   -43133.945    121.28222    0.9761914 
   62400     222.5494     217.8272    128053.39   -40383.675    2768.9377   -43152.613    121.72979   0.97532355 
   62500    223.28731    256.09068    128184.52   -40399.256    2778.1187   -43177.374     121.8658   0.97432588 
   62600    221.44506     289.4152    128126.75   -40410.437    2755.1976   -43165.634    121.92532   0.97476516 
   62700    214.91941    383.43058    127891.42     -40437.2     2674.006   -43111.206    122.11859   0.97655879 
   62800    220.22964    264.74284    128079.95   -40421.082    2740.0754   -43161.158    122.33755   0.97512136 
   62900    220.75498     108.8441    127960.72   -40367.851    2746.6116   -43114.463    122.90247   0.97602994 
   63000    222.56201    160.55133    127793.61   -40325.805    2769.0946   -43094.899    123.02007   0.97730625 
   63100    224.98635    264.17029    127870.81   -40302.161    2799.2579   -43101.419    123.09621   0.97671616 
   63200    222.72781    305.48799    127621.65   -40335.533    2771.1574   -43106.691    122.80291   0.97862306 
   63300    223.51926    49.594268    127582.59   -40371.655    2781.0045    -43152.66    122.95114   0.97892266 
   63400    222.45002    185.17347    127494.08   -40304.497    2767.7011   -43072.198    123.22865   0.97960229 
   63500    224.06836    394.03596    127639.38   -40388.537    2787.8363   -43176.373    123.50953   0.97848713 
   63600    218.45218    48.981096     127656.6    -40403.62    2717.9604    -43121.58    123.53613   0.97835515 
   63700    221.19378    298.02902    127600.14   -40403.707    2752.0711   -43155.778    123.77979   0.97878804 
   63800    216.46114    238.53074    127558.97   -40506.841    2693.1881   -43200.029    123.85189   0.97910395 
   63900    216.07543   -26.924153    127523.39   -40487.699    2688.3892   -43176.088    124.02362   0.97937709 
   64000    215.51636    325.19926    127449.31   -40473.681    2681.4333   -43155.115     124.0369   0.97994643 
   64100    220.94813     151.9631    127401.97   -40401.092    2749.0148   -43150.106    124.02207    0.9803105 
   64200    222.22499    397.95994    127544.75   -40385.793    2764.9013   -43150.694    124.33751   0.97921313 
   64300    225.95607    120.47633    127704.86   -40289.834    2811.3231   -43101.157    124.76788    0.9779854 
   64400    223.09714     177.6802    127567.28   -40318.896    2775.7526   -43094.649     124.7413   0.97904014 
   64500    224.63086    330.93379    127676.88   -40307.066     2794.835   -43101.901    125.43199   0.97819974 
   64600    221.29788    180.76431    127715.23   -40342.367    2753.3664   -43095.733    125.94695   0.97790601 
   64700    220.54128    200.42063    127743.29     -40367.4    2743.9528   -43111.353    126.15267   0.97769119 
   64800    223.05257    138.17009    127614.51   -40397.155    2775.1981   -43172.353    126.07546   0.97867781 
   64900     220.9235    181.62388    127708.53    -40394.11    2748.7083   -43142.818    126.47587   0.97795733 
   65000    220.60824    234.16744    127844.57   -40359.086     2744.786   -43103.872    126.83244   0.97691665 
   65100    222.96993    456.27102    127788.88   -40385.393    2774.1699   -43159.563    127.22438   0.97734237 
   65200    218.08985    360.50068    127881.32   -40368.148    2713.4524   -43081.601    127.95896   0.97663589 
   65300     223.4882    178.04635    127919.58   -40371.514    2780.6181   -43152.133    128.11412   0.97634379 
   65400    221.85581    235.80694    127878.37   -40315.872     2760.308    -43076.18    127.72347   0.97665846 
   65500    219.48641    324.17816    127864.31   -40389.927    2730.8283   -43120.755    127.88294   0.97676588 
   65600    221.76794    232.42965     127798.5    -40431.33    2759.2148   -43190.545    128.05721   0.97726881 
   65700    219.57923     216.8987    127897.97   -40485.716    2731.9831     -43217.7    128.24943   0.97650876 
   65800    214.97719    36.977374    127859.31   -40500.932     2674.725   -43175.657    128.04962   0.97680408 
   65900    220.46665    264.92508    127732.14   -40455.859    2743.0242   -43198.884     128.2255   0.97777658 
   66000    220.56006     471.6091    127827.68   -40353.618    2744.1865   -43097.804    128.10463   0.97704572 
   66100    224.37598    161.12721    127759.74   -40319.427    2791.6637   -43111.091    128.50924   0.97756536 
   66200    224.04605    234.03861    127735.82   -40291.847    2787.5588   -43079.406    128.61398   0.97774835 
   66300    220.71629    296.24558    127684.26   -40309.725    2746.1303   -43055.855    128.54503   0.97814324 
   66400    221.16189    312.36542    127623.57   -40364.744    2751.6743   -43116.419    128.68161   0.97860836 
   66500     220.6277    164.51974    127638.28   -40375.947     2745.028   -43120.975    128.78798   0.97849557 
   66600    220.11853    173.55021    127608.47   -40397.661     2738.693   -43136.354    128.86542   0.97872412 
   66700    215.12952    253.26436    127670.19   -40416.712    2676.6202   -43093.332     129.1015   0.97825101 
   66800    221.77692    265.12366    127794.95   -40368.924    2759.3266    -43128.25    129.61576   0.97729599 
[...]
   84600    216.95478    364.60008    127452.81   -40446.034    2699.3299   -43145.364    166.44709   0.97991951 
   84700    218.37623    130.85775    127506.61   -40453.575    2717.0155   -43170.591    166.62581   0.97950598 
   84800    219.35613    267.48432    127486.38   -40415.212    2729.2072   -43144.419    166.69221   0.97966148 
   84900    217.97526    101.78872    127626.58   -40389.922    2712.0267   -43101.949    167.16126    0.9785853 
   85000     223.2917    344.91575    127790.19   -40328.859    2778.1732   -43107.032    167.17265   0.97733242 
   85100    219.71001    77.687457    127924.24   -40327.606    2733.6103   -43061.216    167.23717   0.97630823 
   85200    223.67783    184.75401    127726.54   -40333.076    2782.9775   -43116.053    167.35935   0.97781944 
   85300    214.35575    229.08372     127885.3   -40379.859    2666.9931   -43046.852    167.83711   0.97660551 
   85400    215.89135    309.19572    127804.68   -40380.025    2686.0988   -43066.123    167.87201   0.97722154 
   85500    220.40716    189.76439    127659.45   -40329.676    2742.2841    -43071.96     167.9587   0.97833332 
   85600    221.16324    183.83964    127711.82   -40309.617    2751.6912   -43061.309    168.20264   0.97793213 
   85700    217.20242    223.39859     127748.6   -40344.139    2702.4111    -43046.55    168.17139   0.97765057 
   85800    222.06167    425.05506    127863.49   -40361.308    2762.8694   -43124.178    168.30014   0.97677208 
   85900    221.38249    251.76585     127905.1   -40257.591    2754.4191    -43012.01    168.84317   0.97645432 
   86000    217.89518    328.54267    128092.83   -40307.479    2711.0303   -43018.509    169.27767   0.97502331 
   86100    222.54467    175.69493    127972.06   -40298.187    2768.8788   -43067.066    169.58996   0.97594345 
   86200    219.10955    271.68649    127931.61   -40270.474    2726.1393   -42996.613      169.712   0.97625203 
   86300    222.13283    240.23055    127833.45   -40297.418    2763.7547   -43061.173    170.08116   0.97700166 
   86400    220.48268    284.36774    127835.34   -40316.895    2743.2237   -43060.119    170.18985   0.97698722 
   86500    221.98142    338.01418    127741.69   -40303.808    2761.8709   -43065.679     170.2769   0.97770348 
   86600    225.24173    268.81692    127729.97   -40252.757    2802.4353   -43055.193    170.69458    0.9777932 
   86700    221.08967    251.63347    127766.16   -40253.619    2750.7758   -43004.395    170.91004   0.97751621 
   86800    220.66612    358.19227    127692.98   -40329.318     2745.506   -43074.824    171.23862   0.97807641 
   86900    221.58075    283.60213    127666.21   -40292.321    2756.8858   -43049.206    171.70913    0.9782815 
   87000    218.15482     405.2828    127831.32   -40285.409    2714.2608    -42999.67    171.58386   0.97701794 
   87100    222.09955    252.61449    128035.89   -40325.988    2763.3407   -43089.329    172.17841   0.97545691 
   87200    223.09927    234.45235    127933.59    -40336.26     2775.779   -43112.039     172.1471   0.97623688 
   87300    222.82852    212.31153    127938.09   -40357.586    2772.4104   -43129.996    172.01469   0.97620253 
   87400    218.43589    383.54596    128088.59   -40368.319    2717.7578   -43086.077    172.52215   0.97505553 
   87500    219.16567    145.48656    128022.55     -40369.2    2726.8376   -43096.037    172.66983   0.97555851 
   87600     218.7907    290.96796    127918.14   -40374.168    2722.1723    -43096.34    172.87193   0.97635479 
   87700    219.38082    232.34124    127953.86   -40380.206    2729.5145    -43109.72     172.6507   0.97608226 
   87800    224.10683    253.77258    127980.08   -40374.226     2788.315   -43162.541    173.23114   0.97588225 
   87900    217.59073    155.23123    127866.09   -40403.503    2707.2423   -43110.745    173.71214   0.97675227 
   88000    220.06635    302.65566    127728.35   -40421.823    2738.0438   -43159.867    173.49556    0.9778056 
   88100    222.98783    210.54084    127825.04   -40339.485    2774.3926   -43113.878    173.81855   0.97706595 
   88200    222.13207    295.90773    127721.04   -40299.848    2763.7453   -43063.593    173.85599   0.97786149 
   88300    218.43651    160.91115    127840.54   -40321.615    2717.7655    -43039.38    174.12137   0.97694749 
   88400     218.0527    341.53805    127763.43   -40429.523    2712.9902   -43142.513    174.31988   0.97753706 
   88500     223.6305    142.68886    127765.69   -40349.278    2782.3886   -43131.667    174.44613   0.97751979 
   88600    222.93939    179.42382    127630.99   -40318.928    2773.7898   -43092.718    174.74676   0.97855146 
   88700      225.902    122.86811    127862.79   -40298.706    2810.6504   -43109.357    174.84705   0.97677749 
   88800     227.2233    321.85001    127774.77   -40253.261    2827.0899   -43080.351    175.27487    0.9774503 
   88900    222.91367    487.99633    127709.43   -40303.416    2773.4699   -43076.886    175.24245   0.97795045 
   89000    223.17414    331.43284     127695.9   -40294.345    2776.7106   -43071.055    175.20219   0.97805403 
   89100    219.64321    246.12946    127743.29   -40384.524     2732.779   -43117.303    175.41437   0.97769119 
   89200    215.40675    289.65323    127661.84   -40407.376    2680.0694   -43087.445     175.5124   0.97831496 
   89300     220.5188    33.942367    127568.19    -40439.05    2743.6731   -43182.723    175.34893   0.97903319 
   89400    216.10748     286.1328    127489.38   -40461.124    2688.7879   -43149.912    175.58302   0.97963837 
   89500     216.7284    503.31076     127585.4   -40490.769    2696.5134   -43187.283    175.48915   0.97890108 
   89600     217.9835      146.621    127835.86   -40536.521    2712.1292    -43248.65    176.09218   0.97698324 
   89700    218.45286    310.26468     128048.3   -40510.726    2717.9689   -43228.695    176.66481   0.97536238 
   89800    219.45032   -68.391238    127911.43   -40482.542    2730.3792   -43212.921     177.1049   0.97640601 
   89900    214.43983    186.01081    127757.39    -40531.34    2668.0392   -43199.379    177.21507   0.97758328 
   90000    219.70918    366.03816    127731.01   -40444.675    2733.5999   -43178.275     177.5827   0.97778523 
   90100    215.83652    237.25126    127769.45   -40455.444    2685.4166   -43140.861    177.87555   0.97749103 
   90200    218.28073    246.66681    127712.37   -40490.767    2715.8272   -43206.594     177.7257    0.9779279 
   90300    217.41653    183.50418    127743.87   -40500.181    2705.0749   -43205.256    177.96181   0.97768674 
   90400    221.27848    159.94257    127521.37   -40491.804     2753.125   -43244.929    178.24302   0.97939263 
   90500    218.36151    315.63101    127655.55   -40462.298    2716.8323    -43179.13    178.51235   0.97836316 
   90600    221.83608    353.04836    127674.78   -40344.843    2760.0626   -43104.906    178.74579   0.97821583 
   90700     225.3051    310.68953    127877.26   -40354.771    2803.2238   -43157.995    179.63836   0.97666693 
   90800    221.97593    281.66235    127781.07   -40382.768    2761.8025   -43144.571    179.51115    0.9774021 
   90900    213.96187    308.38282       127794   -40478.591    2662.0925   -43140.683    179.91856   0.97730326 
   91000    216.47945    353.47287     128209.6   -40495.367     2693.416   -43188.783    180.02033   0.97413527 
   91100    215.22224    398.21894    128050.57   -40490.608    2677.7739   -43168.381    180.06761   0.97534508 
   91200    216.27639    286.74124    128044.79   -40447.133    2690.8894   -43138.023    180.42484   0.97538909 
   91300    225.32612    271.33088    128110.45   -40356.711    2803.4853   -43160.197    181.06206   0.97488918 
   91400    221.24305    212.55508    128066.72   -40349.319    2752.6842   -43102.003    180.76019    0.9752221 
   91500    226.19058    218.34792    128034.99   -40378.712    2814.2409   -43192.953    180.73132   0.97546378 
   91600    217.21828     143.5181    128092.26   -40412.897    2702.6084   -43115.505    180.87255   0.97502759 
   91700    215.91994    282.03858    128218.93   -40472.973    2686.4545   -43159.427    181.01857    0.9740644 
   91800    222.77924    157.47973    128427.04   -40441.073    2771.7973    -43212.87    181.56862   0.97248593 
   91900    219.76823    363.40129    128430.06   -40446.798    2734.3346   -43181.133    181.57675   0.97246305 
   92000    214.74338    205.40681    128429.11   -40465.913    2671.8159   -43137.729     182.0954   0.97247027 
   92100    218.76939    278.15611    128569.92     -40506.7    2721.9071   -43228.607    182.61245   0.97140522 
   92200    218.52528    317.50992    128462.36    -40447.09    2718.8699    -43165.96    183.00432   0.97221854 
   92300    223.56616    394.15078    128620.89   -40378.812     2781.588     -43160.4    183.23167   0.97102024 
   92400    222.56463    276.10071    128565.73   -40389.138    2769.1271   -43158.265    183.04009   0.97143689 
   92500    222.09409    289.85357    128575.37   -40442.595    2763.2727   -43205.868    183.30658   0.97136405 
   92600     220.7712    251.90941    128676.78   -40414.149    2746.8134   -43160.963    183.29383   0.97059848 
   92700    221.55528    193.19111    128723.15   -40413.001    2756.5689   -43169.569     183.2477   0.97024885 
   92800    220.37121    183.04131    128826.86   -40465.411    2741.8368   -43207.247    183.51047    0.9694678 
   92900    217.09516    375.73241    128633.93   -40440.564    2701.0765    -43141.64    183.20874   0.97092181 
   93000    220.78703      216.163    128837.62   -40454.799    2747.0104    -43201.81    183.93379   0.96938683 
   93100    222.79456    288.53051    128842.38   -40377.482    2771.9879    -43149.47    184.04515   0.96935098 
   93200    223.00284    301.04071    128705.68   -40401.861    2774.5792    -43176.44    183.88325   0.97038056 
   93300    216.55926    382.31136    128892.93   -40420.873    2694.4089   -43115.282    184.53754   0.96897084 
   93400    216.41703    278.78465    128955.91   -40454.807    2692.6393   -43147.447    184.61836   0.96849764 
   93500    218.76109    335.45769    128936.18   -40499.355    2721.8038   -43221.159    184.88144   0.96864579 
   93600    216.60827    153.44253    128722.71   -40580.064    2695.0187   -43275.083     184.5438   0.97025221 
   93700    218.12468    182.26754    128625.73   -40548.267    2713.8857   -43262.153    184.92633    0.9709837 
   93800    216.28056    276.30098     128687.7   -40518.246    2690.9414   -43209.187    185.35182   0.97051616 
   93900    215.36486    157.78422    128670.94   -40494.534    2679.5483   -43174.083    185.15199   0.97064255 
   94000    218.82923    202.32506    128602.89   -40494.833    2722.6516   -43217.485    185.53252   0.97115616 
   94100    216.30607    380.67093    128568.52   -40503.886    2691.2587   -43195.145    185.72642   0.97141578 
   94200    218.27159    308.43337    128724.62   -40501.946    2715.7136    -43217.66     186.0164    0.9702378 
   94300    217.40826    39.329183    128655.77   -40443.621    2704.9721   -43148.593     185.8881   0.97075703 
   94400    219.59563    308.61047    128378.09   -40444.737    2732.1871   -43176.924    185.79689   0.97285677 
   94500    222.85311    215.45446     128567.5    -40372.57    2772.7164   -43145.286    185.95282   0.97142352 
   94600    218.55178    170.82784    128347.59   -40413.752    2719.1997   -43132.951    185.68112   0.97308793 
   94700    219.57473    245.73743    128340.35   -40458.973    2731.9271     -43190.9    185.91294   0.97314285 
   94800    216.94719     406.1211     128351.1   -40443.806    2699.2355   -43143.042     186.3223   0.97306129 
   94900    218.07347    159.37628    128426.46   -40394.653    2713.2486   -43107.902    186.43278   0.97249036 
   95000    223.61036    337.94434    128374.22   -40390.718    2782.1379   -43172.856    186.44205    0.9728861 
   95100    224.19757    374.73741    128328.36   -40388.891     2789.444   -43178.335    186.66538   0.97323377 
   95200    222.30905     187.2894    128370.29   -40415.368    2765.9472   -43181.315    186.75799   0.97291584 
   95300    225.21571    303.05842    128339.54   -40335.008    2802.1116    -43137.12    187.12293   0.97314899 
   95400    225.05462    295.46433    128474.08   -40402.734    2800.1073   -43202.842    187.15836   0.97212988 
   95500     226.5868    183.73044    128569.85   -40408.382    2819.1706   -43227.553    187.40043   0.97140574 
   95600    220.48256    292.06613    128435.22   -40405.168    2743.2223    -43148.39    187.41521   0.97242398 
   95700    215.91303    335.80278       128505   -40448.923    2686.3686   -43135.292    187.81557   0.97189598 
   95800    215.89817    264.28813    128309.38   -40504.607    2686.1837    -43190.79    187.89011   0.97337772 
   95900    221.34041    280.17164    128277.49   -40449.512    2753.8955   -43203.407    187.82493   0.97361969 
   96000     219.2408     120.9854    128191.68   -40517.557    2727.7724   -43245.329    187.49397   0.97427146 
   96100    218.41151    201.89855    128212.39   -40458.898    2717.4544   -43176.352      187.501   0.97411403 
   96200    215.50482    187.30512    128331.56   -40497.374    2681.2897   -43178.664    188.00524   0.97320946 
   96300    220.53154    399.73181    128632.76   -40442.109    2743.8317   -43185.941     188.4776   0.97093064 
   96400    223.93018    206.69309    128548.97   -40420.626    2786.1171   -43206.743     188.1862   0.97156357 
   96500    220.46332    269.69437    128450.44   -40475.714    2742.9828   -43218.697    188.08542   0.97230881 
   96600    222.80731    230.59339    128347.04   -40482.776    2772.1466   -43254.922    187.88239   0.97309214 
   96700    215.83377    232.16046    128209.37   -40567.732    2685.3824   -43253.114    187.57021   0.97413699 
   96800      212.435    258.35789    128253.38   -40623.385    2643.0953    -43266.48    187.81546   0.97380273 
   96900    218.50999    219.81751    128370.75   -40547.868    2718.6797   -43266.548      188.121   0.97291235 
   97000    217.03474    212.84168    128246.22   -40547.259    2700.3247   -43247.583    187.79489   0.97385711 
   97100    219.69321    273.54011    128247.78   -40545.732    2733.4011   -43279.134    188.06927   0.97384528 
   97200    215.01111    133.39892    128192.19     -40568.8    2675.1469   -43243.947    188.19544   0.97426757 
   97300    216.84129    429.65545    128436.98   -40555.518    2697.9179   -43253.435    188.35538   0.97241068 
   97400    214.40131    92.276492    128350.16    -40563.63    2667.5599    -43231.19    188.39212   0.97306841 
   97500    219.68876    97.483979    128319.31   -40460.463    2733.3458   -43193.809    188.58765   0.97330236 
   97600    215.40245    202.36345    128080.34   -40526.775    2680.0159   -43206.791    188.40369   0.97511835 
   97700    220.70322     225.7974     127951.3   -40442.983    2745.9676   -43188.951    188.06224   0.97610178 
   97800    220.86996    311.78337    127913.51   -40414.088    2748.0422    -43162.13    188.65505   0.97639012 
   97900    221.32877     234.9174    127969.39   -40372.725    2753.7506   -43126.476    188.54672   0.97596377 
   98000    219.78248    250.77718    128023.49   -40390.542    2734.5119   -43125.054    188.89649   0.97555137 
   98100    219.07793    333.53828    128222.52   -40450.331    2725.7459   -43176.077     189.4847   0.97403713 
   98200    221.54956    143.54492     128188.9   -40431.861    2756.4978   -43188.359     190.2172   0.97429258 
   98300    221.46513    259.28394    128260.41    -40450.49    2755.4473   -43205.937    190.19583   0.97374938 
   98400    215.19991    163.19687    128145.94    -40451.04     2677.496   -43128.536     190.1252   0.97461922 
   98500    219.91882    255.59482    128217.62   -40463.618    2736.2083   -43199.826     190.1721   0.97407429 
   98600    218.22204    304.33172    128266.89   -40502.737     2715.097   -43217.834    190.38167   0.97370018 
   98700    212.37973    235.67602    128299.68   -40545.168    2642.4076   -43187.575     190.5572   0.97345128 
   98800    217.34744     300.1392    128413.61   -40516.259    2704.2153   -43220.475    190.99904   0.97258768 
   98900    218.24496    266.76954    128539.73   -40533.861    2715.3822   -43249.243    191.46006   0.97163334 
   99000    213.24008     137.3972    128214.16   -40569.685     2653.112   -43222.797    190.99242    0.9741006 
   99100    215.92599  -0.42728744    127972.42   -40473.938    2686.5299   -43160.467    190.46651   0.97594071 
   99200    218.01166    367.89756    127823.33   -40440.693    2712.4795   -43153.173    190.33439   0.97707899 
   99300    222.48532    386.59467    127747.36   -40390.646    2768.1404   -43158.787    190.16005   0.97766008 
   99400    221.17288    266.92954    127927.42   -40354.968    2751.8111   -43106.779    190.76028   0.97628402 
   99500    224.11976    334.71618    127958.37    -40230.08    2788.4759   -43018.556    191.89834   0.97604786 
   99600    224.38235    318.91007    127918.57     -40243.5     2791.743   -43035.243    191.82779   0.97635154 
   99700    226.17202    373.03901    128037.08   -40259.815    2814.0099   -43073.825    192.17115   0.97544786 
   99800    223.90035    191.66761    128092.86   -40292.516     2785.746   -43078.262     192.4019   0.97502302 
   99900    219.80577    39.718671    127996.85   -40354.605    2734.8016   -43089.406    192.23543   0.97575439 
  100000    220.50636    303.12601    128026.52   -40374.223    2743.5184   -43117.742    192.17105   0.97552829 
  100100    223.14517    329.16559    127892.66   -40316.358    2776.3502   -43092.708    192.18257   0.97654933 
  100200    222.12704     314.7815    127930.34   -40312.055    2763.6827   -43075.738    192.13017   0.97626169 
  100300    222.37479    272.89826    127812.96   -40297.596    2766.7651   -43064.362    192.11493    0.9771583 
  100400    219.59154    199.81592     127945.2    -40333.74    2732.1363   -43065.876     192.8596   0.97614831 
  100500    225.19791    263.68564    127952.65   -40256.067    2801.8901   -43057.957    193.10351    0.9760915 
  100600    218.10655    176.50603       127695   -40321.884    2713.6601   -43035.544    193.58567   0.97806093 
  100630    221.17577    262.52217     127722.4   -40305.781     2751.847   -43057.628    193.45014   0.97785112 
Loop time of 90.7376 on 6 procs for 100000 steps with 4175 atoms

Performance: 476.098 ns/day, 0.050 hours/ns, 1102.079 timesteps/s
98.6% CPU use with 6 MPI tasks x no OpenMP threads

MPI task timing breakdown:
Section |  min time  |  avg time  |  max time  |%varavg| %total
---------------------------------------------------------------
Pair    | 74.228     | 75.292     | 76.173     |   8.3 | 82.98
Neigh   | 5.1312     | 5.1632     | 5.2036     |   1.1 |  5.69
Comm    | 6.8023     | 7.7135     | 8.8023     |  26.7 |  8.50
Output  | 0.16078    | 0.16151    | 0.16488    |   0.4 |  0.18
Modify  | 1.7684     | 1.7862     | 1.8005     |   0.8 |  1.97
Other   |            | 0.6215     |            |       |  0.68

Nlocal:        695.833 ave         701 max         692 min
Histogram: 1 1 1 1 0 0 0 0 1 1
Nghost:        1497.17 ave        1510 max        1479 min
Histogram: 2 0 0 0 0 0 0 1 1 2
Neighs:        0.00000 ave           0 max           0 min
Histogram: 6 0 0 0 0 0 0 0 0 0
FullNghs:      19770.3 ave       20072 max       19576 min
Histogram: 2 1 1 0 0 0 0 0 1 1

Total # of neighbors = 118622
Ave neighs/atom = 28.412455
Neighbor list builds = 5570
Dangerous builds = 0

undump              1
unfix               2
unfix               3
unfix               4


################################################
#######         Run Simulation         #########
################################################

reset_timestep      0
log                 log.run_${NAME}
log                 log.run_liquid_density_MLmW
