
# Set production fixes - Nose/Hoover
#
fix                 2 all nph iso ${PRES} ${PRES} ${PCOUPL}
fix                 2 all nph iso -500 ${PRES} ${PCOUPL}
fix                 2 all nph iso -500 -500 ${PCOUPL}
fix                 2 all nph iso -500 -500 10000.0
fix                 3 all temp/csvr ${TEMP} ${TEMP} ${TCOUPL} 837492
fix                 3 all temp/csvr 219 ${TEMP} ${TCOUPL} 837492
fix                 3 all temp/csvr 219 219 ${TCOUPL} 837492
fix                 3 all temp/csvr 219 219 5000.0 837492

# Define Order parameter
#
compute             2 all orientorder/atom nnn NULL cutoff 3.5
thermo              200
thermo_style        custom step temp press vol etotal ke pe c_1[4]

# Run 1ns simulation
dump		    1 all custom 400 prod.${NAME}.dump id type x y z vx vy vz c_2[*]
dump		    1 all custom 400 prod.ice_219K_500atm_ML.dump id type x y z vx vy vz c_2[*]
run                 200000
Neighbor list info ...
  update every 1 steps, delay 0 steps, check yes
  max neighbors/atom: 2000, page size: 100000
  master list distance cutoff = 6.0032907
  ghost atom cutoff = 6.0032907
  binsize = 3.0016454, bins = 17 17 17
  2 neighbor lists, perpetual/occasional/extra = 1 1 0
  (1) pair sw, perpetual
      attributes: full, newton on
      pair build: full/bin/atomonly
      stencil: full/bin/3d
      bin: standard
  (2) compute orientorder/atom, occasional, copy from (1)
      attributes: full, newton on
      pair build: copy
      stencil: none
      bin: none
Per MPI rank memory allocation (min/avg/max) = 5.837 | 5.837 | 5.837 Mbytes
Step Temp Press Volume TotEng KinEng PotEng c_1[4] 
       0    218.59627   -501.86952    132101.55   -44189.695    2668.2773   -46857.973   0.10361818 
     200    222.48853    -464.7031    132104.79   -44182.264    2715.7878   -46898.052  0.099264715 
     400    213.59226   -517.38483    132119.01   -44177.497    2607.1962   -46784.694   0.10624081 
     600    218.33975   -521.72882    132119.12   -44204.602     2665.146   -46869.748   0.10482738 
     800    220.32687   -479.02461     132094.5   -44215.048    2689.4017    -46904.45  0.097478279 
    1000    220.91375   -500.07167    132120.85   -44224.144    2696.5654   -46920.709  0.098146031 
    1200    217.42403   -510.80778    132121.06   -44241.809    2653.9684   -46895.777   0.10152334 
    1400    221.60086   -460.43987    132082.45   -44235.174    2704.9525   -46940.126   0.09886533 
    1600     218.1552   -514.59746    132114.55   -44237.293    2662.8933   -46900.186   0.10126286 
    1800     214.5976   -534.78734    132135.37   -44240.936    2619.4678   -46860.404  0.098939829 
    2000    216.20944   -483.28853    132064.53   -44209.371    2639.1426   -46848.513   0.10144587 
    2200    215.81261   -488.28151    132090.34   -44186.666    2634.2987   -46820.964   0.10370814 
    2400    216.92579   -567.35911     132194.4   -44198.538    2647.8867   -46846.425   0.10241588 
    2600    218.89361   -471.81281    132097.44   -44231.763    2671.9067   -46903.669   0.10020946 
    2800    213.88999   -431.55516    132032.45   -44243.617    2610.8304   -46854.447  0.099733294 
    3000    218.18806    -571.6208    132203.07   -44250.887    2663.2944   -46914.182  0.098292105 
    3200     218.8713   -508.88096    132123.04   -44212.978    2671.6344   -46884.612  0.099059091 
    3400    217.17588   -416.13484    132013.29     -44241.1    2650.9394   -46892.039  0.099057095 
    3600    212.48438   -562.16743    132182.43   -44260.688    2593.6729    -46854.36   0.10186444 
    3800    221.19122   -528.62532    132179.09   -44208.813    2699.9524   -46908.765  0.097489032 
    4000    219.94588   -410.21734    132008.55   -44205.953    2684.7512   -46890.704   0.10211182 
    4200    218.66389   -526.87274    132146.07   -44217.417    2669.1027    -46886.52   0.10279178 
    4400    216.72173   -586.59527    132233.08   -44199.868    2645.3958   -46845.264  0.098390258 
    4600    218.03792   -415.29468     132008.7   -44192.198    2661.4619    -46853.66   0.10034714 
    4800    215.79689   -460.66481    132066.46   -44187.618    2634.1069   -46821.725   0.10162038 
    5000    220.74958   -638.18155    132284.08   -44180.359    2694.5615   -46874.921   0.10025734 
    5200    219.91415   -420.09654    132065.84   -44181.117    2684.3639   -46865.481   0.10019995 
    5400    218.51984   -366.76981    131983.71   -44153.109    2667.3443   -46820.453   0.10266026 
    5600    219.20537   -639.31742    132279.67   -44139.303    2675.7122   -46815.015   0.10496045 
    5800    219.53651    -558.1826    132158.66   -44132.127    2679.7543   -46811.881   0.10240056 
    6000    219.57625    -322.1117    131950.45    -44123.14    2680.2393    -46803.38   0.10244571 
    6200    221.44212   -588.52402    132221.55   -44117.242    2703.0148   -46820.257   0.10463923 
    6400    221.34485   -585.87465    132243.92   -44093.076    2701.8276   -46794.904    0.1020083 
    6600    219.53368   -335.77128    131956.02   -44123.578    2679.7197   -46803.297   0.10513176 
    6800    219.08643   -504.77637    132131.26   -44148.883    2674.2604   -46823.144   0.10385339 
    7000    219.59568   -646.82346    132288.78   -44155.913    2680.4765    -46836.39   0.10540746 
    7200    219.41219   -397.83224    131994.35   -44118.247    2678.2368   -46796.484   0.10693737 
    7400    220.89074   -465.06634    132053.35   -44105.538    2696.2846   -46801.822    0.1042529 
    7600     218.9312   -658.64247    132328.24   -44130.304    2672.3655    -46802.67   0.10394402 
    7800    221.15579   -448.24853    132072.06   -44152.518    2699.5198   -46852.038   0.10372341 
    8000    219.51479   -361.83697    131948.71   -44125.883    2679.4891   -46805.373   0.10700066 
    8200    216.10541   -673.31076    132307.38   -44149.104    2637.8728   -46786.976   0.10579133 
    8400    216.07392   -554.15414    132180.47   -44171.782    2637.4884   -46809.271   0.10473809 
    8600    221.57305   -295.56632    131876.44   -44141.603    2704.6131   -46846.216   0.10344538 
    8800    224.81141   -596.33286    132270.47    -44095.34    2744.1418   -46839.482   0.10208788 
    9000    223.68343   -688.80995    132360.21   -44078.781    2730.3732   -46809.155   0.11029365 
    9200    223.00901   -279.37835    131862.79   -44070.854     2722.141   -46792.995   0.11024182 
    9400    224.32781   -484.12172    132136.03   -44105.225    2738.2388   -46843.464   0.10356505 
    9600    220.21476   -780.28902    132462.45   -44093.639    2688.0333   -46781.673   0.10996399 
    9800    221.78372   -302.97908    131913.36   -44109.963    2707.1846   -46817.148   0.10618471 
   10000    220.69211   -359.26443    131952.65   -44106.984      2693.86   -46800.844   0.10853503 
   10200    223.27586   -814.21217    132520.47   -44100.745    2725.3983   -46826.144   0.10533487 
   10400    224.27224   -464.42031    132101.22   -44094.622    2737.5606   -46832.183   0.10716164 
   10600    220.72269   -187.39072    131833.66   -44082.473    2694.2333   -46776.707   0.10639282 
   10800    222.04765   -731.30089    132474.87   -44100.021    2710.4063   -46810.427   0.10375533 
   11000    222.76047   -635.83722    132292.37   -44131.203    2719.1072    -46850.31   0.10496001 
   11200    222.89043    -122.0009    131729.97   -44145.642    2720.6936   -46866.335   0.10097346 
   11400    219.06847    -616.4157    132247.44   -44161.419    2674.0411    -46835.46   0.10591507 
   11600    219.70594   -772.94682    132437.65   -44138.055    2681.8224   -46819.877   0.10830809 
   11800    222.02571   -213.77358    131806.47   -44195.124    2710.1384   -46905.262   0.10368463 
   12000    217.60162   -436.27478    132031.71   -44193.791    2656.1362   -46849.927    0.1082103 
   12200    216.40031   -801.85302    132484.32   -44172.905    2641.4725   -46814.377   0.10370121 
   12400    221.27216   -360.07819    131990.14   -44153.783    2700.9403   -46854.723   0.09969285 
   12600     221.1191   -317.44726    131908.47   -44162.991    2699.0719   -46862.063     0.107178 
   12800    214.77482   -749.20653    132401.81   -44165.227    2621.6311   -46786.858   0.10723707 
   13000    221.49512   -488.82132    132145.12   -44153.412    2703.6619   -46857.074   0.10303033 
   13200    221.33631   -285.72592    131882.62    -44135.41    2701.7233   -46837.133   0.10581064 
   13400    216.79625   -602.55331    132260.09   -44145.615    2646.3055   -46791.921   0.10353421 
   13600    221.72611   -591.04614    132249.48   -44143.993    2706.4814   -46850.475   0.10128538 
   13800    226.15858   -339.47543    131970.94   -44141.581     2760.586   -46902.167   0.10081603 
   14000    223.10731   -521.17323    132163.76   -44151.059    2723.3409     -46874.4   0.10367916 
   14200    222.13564   -605.70989    132275.72   -44163.995    2711.4803   -46875.475   0.10167939 
   14400    217.90156    -419.1618     132025.8   -44187.855    2659.7973   -46847.653   0.10188412 
   14600    217.71273   -470.66089    132087.32   -44183.368    2657.4924   -46840.861   0.10401129 
   14800    219.06201   -610.31455     132263.7    -44165.42    2673.9622   -46839.382   0.10196819 
   15000    219.62212    -477.5653    132094.52   -44204.102    2680.7992   -46884.901  0.097801147 
   15200    216.50414   -436.31288    132009.61   -44246.892    2642.7399   -46889.632   0.10184351 
   15400    218.49481   -577.95658    132197.65    -44249.52    2667.0388   -46916.559   0.10010067 
   15600    218.57636   -530.49017    132137.69   -44281.631    2668.0342   -46949.665   0.10055049 
   15800    215.21712   -373.08568    131999.03   -44241.017    2627.0299   -46868.047  0.097066647 
   16000    214.85822   -526.61377    132183.18   -44230.603    2622.6491   -46853.252  0.097501555 
   16200    221.92586   -561.85015    132193.44   -44194.071    2708.9196   -46902.991   0.10143989 
   16400    221.26478   -408.11128    132010.41   -44193.467    2700.8502   -46894.317   0.10086323 
   16600    218.29607   -496.44569    132136.85   -44205.178    2664.6129   -46869.791   0.10092409 
   16800    217.01487   -578.43446    132222.49    -44171.96     2648.974   -46820.934   0.10351734 
   17000    218.30241    -454.7508    132055.77   -44190.676    2664.6903   -46855.366    0.1011848 
   17200    218.75417   -459.81593    132099.13   -44178.464    2670.2047   -46848.669  0.099225489 
   17400    222.17673   -596.76661    132230.76    -44210.37    2711.9818   -46922.351  0.097731429 
   17600    215.53715   -464.30542    132057.24    -44238.23    2630.9364   -46869.167   0.10175811 
   17800     217.7841   -408.85343    132000.26   -44251.993    2658.3636   -46910.357  0.098607903 
   18000    213.59607   -600.91965    132197.67   -44272.339    2607.2427   -46879.582  0.098900628 
   18200    215.47588   -523.37515     132109.3   -44295.994    2630.1884   -46926.182   0.10133536 
   18400    216.99786   -368.22231    131935.69   -44308.551    2648.7664   -46957.317  0.096360815 
   18600    218.59001   -548.21518     132135.8   -44277.859    2668.2008    -46946.06  0.096212334 
   18800    218.07837   -605.58956     132196.5   -44233.351    2661.9556   -46895.306   0.10015443 
   19000    216.72797   -378.01929    131937.26   -44247.043     2645.472   -46892.515   0.10078682 
   19200     217.0101   -450.32185    132046.59   -44231.013    2648.9158   -46879.929   0.10075087 
   19400     215.7594    -659.5684    132254.63    -44226.76    2633.6493    -46860.41   0.10213183 
   19600    217.65531   -415.31147    131961.01   -44245.015    2656.7916   -46901.807   0.10129377 
   19800    215.40704   -397.22077    131940.61   -44240.535    2629.3482   -46869.883    0.0991146 
   20000    217.59035   -708.10862    132322.35    -44235.88    2655.9985   -46891.878  0.098938726 
   20200    212.87295   -517.20135     132085.1   -44256.409     2598.416   -46854.825   0.10305331 
   20400    218.96871   -240.83167    131798.43   -44241.371    2672.8234   -46914.195   0.10152216 
   20600    216.23157   -663.76347    132269.81    -44240.03    2639.4128   -46879.443  0.099997289 
   20800    216.43181   -614.28337    132237.33   -44230.263     2641.857    -46872.12  0.099907068 
   21000    217.58496   -209.26665    131746.79   -44235.629    2655.9328   -46891.562  0.099687526 
   21200    217.18861   -607.17587    132175.29   -44224.676    2651.0947   -46875.771   0.10517575 
   21400    220.40102   -747.79777     132423.4   -44219.254    2690.3068   -46909.561   0.09883039 
   21600     221.7399   -235.70631    131784.92   -44191.782    2706.6497   -46898.432    0.1025085 
   21800    219.33114   -380.65524    131985.66   -44159.261    2677.2473   -46836.508   0.10461415 
   22000     219.9954   -864.75795    132556.73   -44159.784    2685.3556    -46845.14   0.10376114 
   22200    220.35305   -351.19406    131949.72   -44133.039    2689.7213    -46822.76   0.10208014 
   22400    217.65667   -226.72419    131800.08   -44118.949    2656.8081   -46775.757   0.10374619 
   22600    220.79786   -830.48899    132540.23   -44116.863    2695.1508   -46812.014   0.10226036 
   22800    217.48755   -536.29963     132185.4   -44153.795    2654.7437   -46808.539   0.10278536 
   23000    219.37558   -119.69482    131692.49    -44167.06    2677.7899    -46844.85   0.10270532 
   23200    219.99971   -714.79438    132358.49   -44152.857    2685.4083   -46838.265   0.10605788 
   23400    222.67669   -705.46971    132357.77   -44162.185    2718.0846    -46880.27   0.10198413 
   23600    220.40908    -159.2478    131710.63   -44173.744    2690.4051   -46864.149   0.10088836 
   23800    219.31683   -537.83206    132134.39   -44133.026    2677.0727   -46810.098     0.107027 
   24000    218.81047    -822.9126    132465.52    -44150.75    2670.8918   -46821.642   0.10853995 
   24200    223.65366   -265.50408    131847.22   -44148.297    2730.0098   -46878.307   0.10451163 
   24400    216.45567   -386.71949    131961.15   -44150.799    2642.1482   -46792.947   0.10970575 
   24600    217.37216   -815.82043    132472.32   -44148.446    2653.3353   -46801.782   0.10740491 
   24800    221.07793   -415.72486    132065.04   -44096.297    2698.5694   -46794.867    0.1048521 
   25000    224.95367   -268.43065     131901.5   -44106.723    2745.8783   -46852.601   0.10032409 
   25200    221.80975   -710.34218    132407.15   -44122.666    2707.5024   -46830.168   0.10374639 
   25400    222.04514   -548.73673    132217.67   -44163.562    2710.3756   -46873.938  0.099329237 
   25600    219.78204   -231.87471    131822.85   -44183.737    2682.7512   -46866.488   0.10181582 
   25800    221.27052   -597.46767    132262.56   -44161.072    2700.9203   -46861.993     0.103819 
   26000    217.74112   -716.11348    132373.51   -44146.937     2657.839   -46804.776   0.10606731 
   26200    219.30429   -290.69895    131879.97   -44173.449    2676.9196   -46850.368   0.10525114 
   26400    218.25945    -459.2719    132086.59   -44189.676    2664.1659   -46853.842   0.10312376 
   26600    223.68015   -718.15692     132399.5   -44192.745    2730.3332   -46923.079   0.10209794 
   26800     216.7872   -389.51193    131979.66   -44197.792     2646.195   -46843.987   0.10708966 
   27000    217.36691   -399.13315    131963.02   -44200.236    2653.2712   -46853.507   0.10676789 
   27200    216.85891   -704.72069    132357.39    -44193.76    2647.0703    -46840.83   0.10529596 
   27400    220.50911   -498.19197    132121.32   -44173.299    2691.6262   -46864.926   0.10324211 
   27600    215.54504    -315.7813    131919.16   -44180.968    2631.0327   -46812.001   0.10522788 
   27800    220.78859   -615.23316    132286.88   -44167.999    2695.0377   -46863.037   0.10260239 
   28000    221.11291    -589.6063    132230.32   -44163.596    2698.9964   -46862.592   0.10516654 
   28200    219.93485   -317.21721    131921.29   -44175.309    2684.6165   -46859.926   0.10511926 
   28400    223.69427    -539.1529    132175.52   -44174.109    2730.5056   -46904.614   0.10183757 
   28600    221.70441   -662.87562       132296   -44184.804    2706.2166   -46891.021   0.10311355 
   28800    216.50549   -398.14429    131974.09   -44196.622    2642.7563   -46839.378   0.10641664 
   29000    217.37923   -435.03638    132070.42   -44226.968    2653.4215   -46880.389   0.10008778 
   29200    213.87893   -662.16888    132296.09   -44249.749    2610.6954   -46860.444   0.10431758 
   29400    217.38432   -396.43212    132032.29   -44252.103    2653.4838   -46905.587   0.10197624 
   29600    217.15676   -389.23538    131994.24   -44224.412     2650.706   -46875.118   0.10579108 
   29800    216.87303   -616.60355    132277.56   -44166.764    2647.2426   -46814.007   0.10721058 
   30000    221.26233   -521.43502    132159.33   -44159.205    2700.8204   -46860.026   0.10487481 
   30200    220.22787   -365.92007    131978.33    -44169.44    2688.1932   -46857.634   0.10344554 
   30400    216.61612   -585.86774     132191.5   -44207.509    2644.1067   -46851.616   0.10466681 
   30600    218.09204   -560.09739    132192.93   -44165.799    2662.1225   -46827.921   0.10601988 
   30800    223.14683   -403.36727    132018.15   -44142.205    2723.8232   -46866.028   0.10561622 
   31000    217.65265   -532.08358    132164.23   -44134.621     2656.759    -46791.38   0.10691096 
   31200    225.82066   -572.20707    132238.87   -44136.984    2756.4612   -46893.445   0.10128196 
   31400    224.37443   -403.05615       132032   -44134.928    2738.8079   -46873.736   0.10097298 
   31600    221.35779    -457.4878    132070.86   -44178.637    2701.9855   -46880.622   0.10220556 
   31800    217.65149   -593.50732    132219.82   -44153.161    2656.7449   -46809.906   0.10797328 
   32000    222.31894   -454.11794    132087.34   -44135.677    2713.7177   -46849.395   0.10410585 
   32200    222.29087   -432.65224    132040.36   -44158.243    2713.3751   -46871.618   0.10511624 
   32400    217.56508   -568.70969    132191.34    -44157.07    2655.6901    -46812.76   0.10502147 
   32600    218.60298   -518.03214    132132.91   -44149.533    2668.3592   -46817.892   0.10428033 
   32800    222.29874   -403.31308    132031.94   -44144.013    2713.4711   -46857.484   0.10375064 
   33000     222.1056   -535.23963    132156.91    -44137.22    2711.1136   -46848.334   0.10568568 
   33200    220.78226    -564.4597    132177.81   -44136.285    2694.9603   -46831.246    0.1077558 
   33400    224.01166   -439.65468    132069.22   -44107.816    2734.3798   -46842.195   0.10645567 
   33600    223.50304   -486.59975     132124.8   -44058.602    2728.1714   -46786.774   0.10712633 
   33800     224.3491   -572.25635    132193.76   -44080.674    2738.4987   -46819.173   0.10664741 
   34000     220.3244   -437.34367    132075.73   -44108.485    2689.3715   -46797.856   0.10254641 
   34200     218.5759   -441.59921    132093.09   -44137.506    2668.0286   -46805.534   0.10076233 
   34400    220.55526   -550.28779    132163.17   -44178.053    2692.1895   -46870.242   0.10373349 
   34600    222.32783   -473.40296    132082.04     -44151.8    2713.8263   -46865.626   0.10521823 
   34800    223.10997   -465.52099    132082.85   -44181.079    2723.3734   -46904.452   0.10164764 
   35000    217.46952   -573.59113    132156.27   -44204.856    2654.5237    -46859.38   0.10255255 
   35200    219.43422   -483.82289    132094.46    -44199.86    2678.5056   -46878.366   0.10096841 
   35400    221.15335   -447.24568    132045.08   -44177.732      2699.49   -46877.222   0.10222588 
   35600    224.03044    -505.0549    132154.18   -44171.141     2734.609    -46905.75   0.10345591 
   35800    219.18949   -529.26725    132137.51   -44170.421    2675.5183   -46845.939   0.10798728 
   36000    218.38491   -476.85829    132056.52   -44170.159    2665.6973   -46835.856   0.10651194 
   36200    218.10656   -513.45207    132120.37   -44179.754    2662.2996   -46842.054    0.1043837 
   36400    219.22903   -519.38786    132152.04   -44197.561     2676.001   -46873.562   0.10230963 
   36600    218.20608   -462.25182    132076.32   -44179.353    2663.5144   -46842.867   0.10142237 
   36800    217.55938   -504.98191    132100.69   -44209.098    2655.6205   -46864.719   0.10188718 
   37000    218.58931   -528.42966    132139.88   -44201.041    2668.1923   -46869.233   0.10345872 
   37200    219.04776   -473.24961    132108.97   -44172.822    2673.7883   -46846.611   0.10297391 
   37400    217.52059   -507.24849    132121.41   -44166.092    2655.1471   -46821.239   0.10566867 
   37600    223.98072   -490.24763    132136.85    -44186.08    2734.0021   -46920.082  0.098611041 
   37800    222.33596   -477.31992    132106.14    -44160.22    2713.9254   -46874.145  0.098598422 
   38000    217.54166   -508.29972    132113.98   -44198.136    2655.4042    -46853.54   0.10441036 
   38200    218.37715   -529.84612    132122.06   -44192.948    2665.6025    -46858.55   0.10648085 
   38400    220.93972   -462.03551    132081.72   -44168.555    2696.8824   -46865.437   0.10594674 
   38600    216.34407   -528.12505    132099.83    -44166.86    2640.7859   -46807.646   0.11076566 
   38800    220.15397   -514.95616    132126.74   -44202.044    2687.2912   -46889.336   0.10390522 
   39000    218.88528   -470.02411    132054.63   -44221.589    2671.8051   -46893.394   0.10186063 
   39200    214.10284    -480.0375    132063.71   -44235.017    2613.4286   -46848.446   0.10181679 
   39400    215.43223   -565.41264       132151   -44227.472    2629.6557   -46857.127   0.10743052 
   39600    213.22318   -492.88269    132046.29    -44278.14     2602.691   -46880.831   0.10436788 
   39800    217.60402   -426.23645    131986.39   -44270.238    2656.1654   -46926.403   0.10440745 
   40000    215.58321   -590.39413    132175.42    -44280.98    2631.4986   -46912.479   0.10524687 
   40200    218.62044   -521.33697    132133.19   -44264.737    2668.5723    -46933.31  0.097038224 
   40400    217.05679   -368.42206    131952.15   -44257.353    2649.4858   -46906.839   0.10097054 
   40600    212.17194    -533.3655    132124.75   -44276.786    2589.8593   -46866.645    0.1028804 
   40800    216.43554   -598.62458     132197.1   -44286.267    2641.9025    -46928.17   0.10358405 
   41000    216.96424   -390.78092    131946.29   -44260.427     2648.356   -46908.783   0.10676637 
   41200    213.09039   -465.95437    132048.86   -44277.426    2601.0703   -46878.496   0.10542953 
   41400    211.13497   -666.74549    132258.71   -44254.844    2577.2015   -46832.046   0.10544534 
   41600    218.86489   -432.65866     132016.9   -44251.524    2671.5561    -46923.08   0.10257345 
   41800    217.19886   -395.22729    131959.94     -44249.4    2651.2199    -46900.62   0.10417127 
   42000     217.5336   -650.12196    132248.03   -44231.125    2655.3059   -46886.431     0.106634 
   42200    214.78401   -526.16021    132100.24   -44248.159    2621.7432   -46869.903   0.10856649 
   42400    212.56062   -338.95527    131889.29   -44284.722    2594.6036   -46879.325   0.10626748 
   42600    217.22512   -598.56119    132187.97   -44304.887    2651.5404   -46956.428  0.099771748 
   42800    213.17209   -608.04572    132184.93   -44302.462    2602.0675   -46904.529    0.1024002 
   43000    215.80317   -296.08094    131854.27   -44274.293    2634.1835   -46908.476   0.10337363 
   43200    214.25171   -522.12487    132108.17   -44276.356    2615.2458   -46891.602   0.10202015 
   43400    214.67141   -691.46656    132285.65   -44264.663    2620.3688   -46885.032   0.10617633 
   43600    215.26848   -360.90567    131886.97   -44267.786    2627.6568   -46895.443   0.10671476 
   43800    215.57074   -407.06297    131972.39   -44243.093    2631.3464   -46874.439   0.10595199 
   44000    215.49563   -728.33602    132356.82   -44253.777    2630.4295   -46884.206   0.10231086 
   44200    215.32332   -418.32756    131969.24   -44297.425    2628.3263   -46925.751    0.1013665 
   44400     216.1756   -271.21612     131805.7   -44283.219    2638.7296   -46921.948   0.10318217 
   44600    214.20493   -771.96917    132351.96   -44227.838    2614.6747   -46842.512   0.10835545 
   44800    218.64857   -552.15416    132166.71   -44202.429    2668.9156   -46871.345   0.10748062 
   45000    219.56967   -225.95057    131758.61    -44226.82     2680.159   -46906.979   0.10623873 
   45200    216.58428   -649.95428    132261.08   -44236.804    2643.7181   -46880.522   0.10340216 
   45400    214.21479   -716.28554    132318.69   -44273.475    2614.7951    -46888.27   0.10203196 
   45600    217.54882   -178.99072    131721.63   -44266.446    2655.4917   -46921.938   0.10020615 
   45800    214.56712   -510.13478    132080.38   -44243.216    2619.0957   -46862.312   0.10329413 
   46000    216.90925   -825.38736     132451.2   -44237.367    2647.6848   -46885.052   0.10758362 
   46200    215.41608   -288.99222    131836.96   -44260.442    2629.4585     -46889.9   0.10215276 
   46400    215.27372   -341.80955    131873.83   -44251.167    2627.7208   -46878.888   0.10599383 
   46600    218.75042   -798.11151    132447.26    -44249.84    2670.1589   -46919.999  0.099265044 
   46800    215.70276   -452.72177    132031.95   -44225.257    2632.9579   -46858.215   0.10142876 
   47000     219.7108   -213.37977    131782.62   -44213.658    2681.8817    -46895.54   0.10267062 
   47200    220.00328   -746.18485    132388.28   -44190.101    2685.4518   -46875.553   0.10555696 
   47400    217.83201   -591.38917    132259.48   -44137.879    2658.9483   -46796.827   0.10540758 
   47600    223.15365   -253.71932     131827.7   -44123.382    2723.9065   -46847.288   0.10715224 
   47800    217.66892   -601.56912    132251.52   -44098.788    2656.9577   -46755.746    0.1068272 
   48000    219.35891   -698.30907    132382.79   -44102.657    2677.5863   -46780.244   0.10522479 
   48200    219.73331   -306.49179    131926.42   -44107.209    2682.1565   -46789.365     0.102087 
   48400    223.73431   -448.21424    132082.47   -44093.792    2730.9943   -46824.786   0.10412732 
   48600    219.27654   -695.10422    132360.75    -44134.74    2676.5809   -46811.321   0.10486222 
   48800    221.83293   -395.86418    132042.96   -44096.959    2707.7853   -46804.744   0.10439745 
   49000    222.56545   -397.61891    132010.84   -44079.709    2716.7267   -46796.436   0.10576185 
   49200    217.82967   -637.60146    132256.17   -44104.867    2658.9198   -46763.787   0.10565708 
   49400     223.1145   -482.33882    132125.15   -44114.846    2723.4287   -46838.275   0.10175215 
   49600    221.76683   -410.15363    132005.01   -44132.568    2706.9784   -46839.547   0.10378705 
   49800     221.5737   -550.56442     132188.7   -44115.485    2704.6211   -46820.106   0.10730347 
   50000    223.52029   -529.09157    132174.58   -44114.773    2728.3819   -46843.155   0.10792664 
   50200     222.3761   -395.37207    132007.52   -44143.131    2714.4154   -46857.547   0.10268926 
   50400    219.93204   -504.20806    132117.74   -44141.687    2684.5822   -46826.269    0.1035534 
   50600    220.34725   -591.03974     132189.7   -44156.551    2689.6505   -46846.202    0.1042093 
   50800    217.85724   -442.04295    132028.93   -44163.648    2659.2563   -46822.904   0.10443277 
   51000    217.99828   -459.86031    132056.86     -44124.9    2660.9779   -46785.878   0.10863848 
   51200    220.97068   -595.04692    132193.09   -44141.959    2697.2603    -46839.22   0.10821997 
   51400    218.46492   -464.94686    132068.47   -44115.354     2666.674   -46782.028   0.10876372 
   51600    224.45475    -432.5222    132050.92   -44118.395    2739.7883   -46858.183   0.10361506 
   51800    225.02477   -585.20112    132201.56   -44115.873    2746.7462    -46862.62   0.10321194 
   52000    223.88103   -507.07214    132131.55   -44080.266    2732.7853   -46813.051   0.10610213 
   52200    227.34937   -409.52873    132047.64   -44059.476    2775.1213   -46834.597   0.10667569 
   52400    222.82598   -557.66062    132199.71   -44048.985    2719.9069   -46768.892   0.10986272 
   52600    221.28912   -562.41154    132199.08   -44078.003    2701.1473   -46779.151   0.10972661 
   52800    220.41678   -437.20553    132022.59    -44093.89    2690.4992   -46784.389   0.10998803 
   53000    226.30197   -459.72862    132117.43   -44098.874    2762.3362    -46861.21   0.10260626 
   53200     221.7491   -595.23536    132219.83   -44104.953     2706.762   -46811.715    0.1043997 
   53400    224.44957   -429.39478    132030.14   -44122.952    2739.7251   -46862.677    0.1061477 
   53600    216.59552   -481.73203     132051.5   -44147.418    2643.8552   -46791.273   0.11248617 
   53800    218.45243    -610.3205    132221.49    -44135.33    2666.5215   -46801.852   0.11069332 
   54000    223.26573   -463.62208     132074.7   -44129.828    2725.2746   -46855.102   0.10815871 
   54200    220.23181   -416.37323    132023.32   -44134.834    2688.2413   -46823.075   0.10398409 
   54400    221.08126   -596.51059     132230.9   -44152.042      2698.61   -46850.652   0.10289263 
   54600    223.05134   -501.85331    132128.26   -44148.218    2722.6577   -46870.875   0.10607514 
   54800    220.59937   -356.62383     131974.2   -44108.577    2692.7279   -46801.305    0.1102407 
   55000    220.93836   -589.17246    132216.15   -44108.897    2696.8658   -46805.763   0.11167792 
   55200    222.93104   -579.90489    132202.61   -44132.928    2721.1893   -46854.117   0.10859781 
   55400    220.71295     -321.714    131904.45   -44150.858    2694.1143   -46844.973   0.10655608 
   55600    219.76232   -537.97201    132124.64   -44174.161    2682.5105   -46856.672   0.10477751 
   55800    219.54081   -661.18456    132294.53   -44151.484    2679.8067   -46831.291   0.10654345 
   56000    220.35472   -358.55776    131939.19   -44142.624    2689.7417   -46832.366   0.10616869 
   56200    220.07666   -423.02844    132018.48   -44162.089    2686.3475   -46848.436   0.10933104 
   56400      222.043    -736.4347    132368.47   -44163.144    2710.3494   -46873.493   0.10869267 
   56600    219.20681   -443.75182    132031.98   -44169.246    2675.7297   -46844.976   0.10743965 
   56800    221.50041   -261.88586    131880.97   -44138.335    2703.7264   -46842.061   0.10381346 
   57000      218.384   -707.38722    132362.96   -44130.959    2665.6862   -46796.646   0.10676013 
   57200    221.36374   -585.33648    132186.44   -44159.614    2702.0581   -46861.672   0.10769362 
   57400     216.5816   -267.08552    131799.54   -44177.856    2643.6854   -46821.541   0.11309052 
   57600    219.85395   -634.31742    132260.49   -44149.972     2683.629   -46833.601   0.11140886 
   57800    218.48801    -696.6451    132346.14   -44158.829    2666.9558   -46825.785   0.10812916 
   58000     218.3253   -195.71917    131802.78   -44172.604    2664.9697   -46837.573   0.10144952 
   58200    217.73711   -474.69477    132091.18   -44200.922      2657.79   -46858.712   0.10127361 
   58400    219.10849   -740.75892    132411.03   -44192.616    2674.5297   -46867.146   0.10539265 
   58600    219.84605   -332.23685    131900.96   -44182.811    2683.5325   -46866.343   0.10877613 
   58800    216.67628   -355.31666    131940.46   -44206.453    2644.8411   -46851.294   0.10919303 
   59000    217.17623   -777.48985    132406.77   -44220.367    2650.9437    -46871.31   0.10910733 
   59200    219.40432    -419.7571    132030.36   -44223.463    2678.1407   -46901.604   0.10381364 
   59400    217.12729   -285.95948    131849.49   -44184.368    2650.3462   -46834.714   0.10573597 
   59600    218.90156   -740.72796    132371.43    -44178.39    2672.0037   -46850.393   0.10602614 
   59800     218.2739   -584.34823    132196.55   -44169.525    2664.3423   -46833.867   0.10745032 
   60000    223.29944   -245.45822    131830.52   -44163.816    2725.6861   -46889.502   0.10613027 
   60200    218.41564   -596.21054    132255.48   -44141.929    2666.0724   -46808.001   0.10918607 
   60400    216.51592   -681.18833     132318.7   -44118.447    2642.8836   -46761.331    0.1105745 
   60600    217.16953   -268.96267    131871.71   -44151.011    2650.8619   -46801.873   0.10431072 
   60800    222.68185   -499.86325    132091.17   -44108.205    2718.1475   -46826.353   0.10773685 
   61000    218.90579   -725.14614    132368.97   -44134.189    2672.0554   -46806.244   0.10681875 
   61200      221.874   -370.52385    131970.88   -44141.364    2708.2866    -46849.65   0.10921503 
   61400    222.04333   -354.00557    131971.17   -44139.725    2710.3535   -46850.079   0.10922204 
   61600    220.15132   -689.79942    132336.69   -44130.887    2687.2589   -46818.146   0.10850633 
   61800    221.61181   -487.44235    132095.98   -44133.264    2705.0863    -46838.35   0.10350951 
   62000    218.68623   -333.10628    131915.74   -44146.045    2669.3753    -46815.42   0.10562726 
   62200    222.72561   -601.86644    132250.67   -44147.822    2718.6817   -46866.504   0.10488727 
   62400    217.89804   -587.89568    132201.61   -44123.323    2659.7544   -46783.078   0.10960722 
   62600    220.32071   -335.45316    131931.83   -44142.174    2689.3264     -46831.5   0.10862894 
   62800    218.76803   -545.80528    132160.89   -44119.946    2670.3739    -46790.32   0.10822033 
   63000    224.64851    -631.1532    132292.54   -44099.304    2742.1535   -46841.458   0.10561293 
   63200    222.42032   -374.00629    132014.71   -44104.526    2714.9552   -46819.481   0.10479315 
   63400    225.55755   -461.61864    132083.28   -44074.728    2753.2495   -46827.978   0.10549945 
   63600    223.94002   -632.46309    132297.25   -44058.127    2733.5053   -46791.633     0.108328 
   63800    222.26428   -460.45497    132107.16   -44079.434    2713.0506   -46792.485   0.11086908 
   64000    220.21004   -389.84807    132023.47   -44083.724    2687.9756     -46771.7   0.10950167 
   64200    221.19531   -588.48345    132261.36   -44086.108    2700.0023    -46786.11   0.10771234 
   64400    226.31025   -515.33194    132180.92   -44074.974    2762.4374   -46837.411   0.10547418 
   64600     221.9215   -374.86765    132014.81   -44114.007    2708.8664   -46822.873   0.10145211 
   64800    217.85256   -533.82214     132174.6   -44122.246    2659.1992   -46781.445    0.1060896 
   65000    219.89647   -589.61673    132215.21   -44119.865     2684.148   -46804.013   0.11130842 
   65200    219.93253   -411.96305     132051.7   -44137.291    2684.5882   -46821.879   0.10645515 
   65400    219.86581    -470.8827    132110.76   -44152.051    2683.7738   -46835.825   0.10431291 
   65600    220.90542   -586.77709    132205.35   -44171.551    2696.4637   -46868.015   0.10239692 
   65800    218.92309   -457.32911    132076.71   -44151.608    2672.2665   -46823.875   0.10117973 
   66000    219.30549   -455.46275     132085.4   -44149.192    2676.9343   -46826.126   0.10247869 
   66200    221.53191   -573.11503    132186.87   -44172.765    2704.1109   -46876.876   0.10742456 
   66400    215.83141   -492.71185    132101.91   -44168.473    2634.5282   -46803.001   0.10939165 
   66600    221.96584   -460.78716    132053.68   -44181.028    2709.4076   -46890.435   0.10674341 
   66800    218.26204   -514.10597    132135.23   -44161.341    2664.1976   -46825.539   0.10718849 
   67000    217.12089   -516.90013    132116.93   -44176.183    2650.2681   -46826.451   0.10545644 
   67200    218.83974   -470.28123    132060.02   -44191.223    2671.2491   -46862.472   0.10345233 
   67400    217.43629   -508.13728    132116.67   -44215.215    2654.1181   -46869.333     0.105234 
   67600    218.06259   -501.63662    132142.64   -44183.473    2661.7629   -46845.236   0.10572908 
   67800    221.85515   -462.15335    132108.57   -44147.222    2708.0565   -46855.279   0.10540831 
   68000    221.39321   -502.55716    132137.09   -44144.383    2702.4179   -46846.801    0.1080863 
   68200    220.45472   -523.75984    132144.75   -44196.634    2690.9622   -46887.596  0.099499178 
   68400    217.21652   -479.44725     132103.5   -44156.191    2651.4354   -46807.626   0.10220284 
   68600    222.36765   -471.80732    132136.77   -44145.891    2714.3123   -46860.204   0.10083422 
   68800    219.65476   -490.79954    132188.97   -44122.383    2681.1977    -46803.58   0.10370038 
   69000    220.95963   -485.71619    132153.36   -44155.517    2697.1254   -46852.643   0.10627946 
   69200    219.32155    -493.4803     132105.1   -44160.515    2677.1303   -46837.645    0.1105389 
   69400    214.77382    -516.6094     132152.9   -44187.543    2621.6188   -46809.162    0.1049824 
   69600    218.03738   -516.76488    132146.85     -44197.2    2661.4552   -46858.655   0.10143027 
   69800    216.85211   -488.48117    132101.54   -44173.898    2646.9873   -46820.885   0.10446509 
   70000    219.35778    -503.3034    132156.93   -44143.764    2677.5725   -46821.337   0.10584713 
   70200    218.75102   -536.81078     132181.5   -44142.115    2670.1662   -46812.281   0.10930714 
   70400    223.03406   -482.22838    132103.77    -44147.57    2722.4468   -46870.017   0.11000038 
   70600    223.24057   -471.77481    132118.68   -44127.514    2724.9675   -46852.482   0.10487307 
   70800    223.10604   -534.51368    132180.36   -44143.563    2723.3254   -46866.888   0.10248224 
   71000    219.76543   -509.19425    132111.81   -44175.356    2682.5485   -46857.905   0.10281134 
   71200    221.58308   -475.97525    132086.04   -44180.081    2704.7355   -46884.816   0.10268564 
   71400     217.8828   -541.52748    132177.72    -44157.61    2659.5683   -46817.178   0.10710536 
   71600    217.89591   -508.09142    132145.94   -44142.024    2659.7283   -46801.752   0.11003431 
   71800     219.2262   -456.01583    132062.88   -44152.086    2675.9665   -46828.053   0.10719603 
   72000    218.54064    -523.3748     132145.6   -44175.402    2667.5983       -46843   0.10356497 
   72200    219.27819    -540.2926    132158.08   -44198.927    2676.6011   -46875.529   0.10176879 
   72400    216.63952   -435.30475    132023.13   -44182.729    2644.3923   -46827.122   0.10380381 
   72600    219.10402   -509.32179    132107.64   -44164.746     2674.475   -46839.221   0.10837286 
   72800    222.36179   -597.94476    132197.99    -44214.63    2714.2407   -46928.871   0.10914384 
   73000    219.32137   -432.71214    132008.79   -44218.671    2677.1281   -46895.799   0.10668462 
   73200    218.47383   -449.22331    132025.21   -44233.876    2666.7827   -46900.659   0.10478917 
   73400    215.07425   -636.80875     132241.4   -44216.175     2625.286   -46841.461   0.10642546 
   73600    220.06276   -459.13952    132087.48    -44206.55    2686.1778   -46892.728  0.099916738 
   73800     218.0211   -375.80814     131976.7   -44207.968    2661.2565   -46869.225   0.10170855 
   74000    215.15155   -631.86929    132249.84   -44231.592    2626.2296   -46857.822   0.10738824 
   74200    216.32322   -544.05038    132159.62   -44236.657    2640.5314   -46877.188   0.10450788 
   74400    218.47606   -338.48798    131925.68   -44215.716      2666.81   -46882.526   0.10473392 
   74600     215.5966   -567.63117    132217.99   -44221.147     2631.662   -46852.809   0.10349929 
   74800    216.62109   -648.56105    132280.41   -44230.254    2644.1674   -46874.421   0.10014952 
   75000    219.81541   -298.30945    131895.18   -44209.462    2683.1586   -46892.621   0.10180927 
   75200    218.57287   -502.83298    132107.08   -44191.688    2667.9916    -46859.68   0.10773523 
   75400    216.59596   -731.17517    132375.74   -44186.074    2643.8606   -46829.935   0.11046205 
   75600    216.44899   -372.50107    131955.63   -44169.395    2642.0667   -46811.462   0.11185435 
   75800    221.04948   -378.29664    131972.16   -44150.276    2698.2222   -46848.499   0.10731896 
   76000    222.50532   -725.77639    132416.59   -44143.067    2715.9927   -46859.059    0.1038964 
   76200    219.66848   -476.21642    132081.78   -44162.891    2681.3651   -46844.256   0.10514339 
   76400    223.19477    -262.9721     131855.1   -44144.345    2724.4085   -46868.753   0.10492906 
   76600    221.60411   -698.15781    132388.33   -44131.648    2704.9922    -46836.64   0.10695382 
   76800    221.81592   -598.32453    132252.31    -44128.59    2707.5776   -46836.167   0.10712202 
   77000    222.08332   -195.38546    131776.62   -44138.842    2710.8416   -46849.683   0.10649461 
   77200    217.33262   -618.80663     132230.2   -44170.801    2652.8526   -46823.654   0.10522861 
   77400    218.29705   -746.51916    132402.57   -44151.573    2664.6248   -46816.198   0.10416577 
   77600    220.71126   -234.08577    131827.87   -44175.699    2694.0937   -46869.792    0.1035269 
   77800    218.12965   -458.37203     132062.4   -44181.515    2662.5815   -46844.096   0.10551691 
   78000     218.8708   -798.35694    132485.23   -44179.468    2671.6283   -46851.096   0.10568655 
   78200    219.69815   -356.70616    131958.71    -44175.75    2681.7272   -46857.477    0.1069711 
   78400    218.12845   -315.58848    131892.55    -44197.79    2662.5669   -46860.356   0.10402252 
   78600    214.65886   -786.39743    132425.14   -44198.005    2620.2156   -46818.221   0.10293596 
   78800    221.61221   -507.54356    132125.68     -44185.1    2705.0911   -46890.191   0.10160357 
   79000    221.95892   -215.24242     131806.6   -44183.447    2709.3231    -46892.77   0.10280965 
   79200    217.05583   -690.12511    132322.83   -44182.947     2649.474   -46832.421   0.10891879 
   79400    219.75372   -637.92177    132285.55   -44148.688    2682.4056   -46831.094   0.10757064 
   79600    220.17458   -231.21603    131840.98   -44150.223    2687.5427   -46837.766   0.10311805 
   79800    219.70373   -563.50436     132177.2    -44164.15    2681.7953   -46845.946   0.10198371 
   80000    222.49673   -677.45961    132349.36   -44146.682    2715.8878    -46862.57   0.10155419 
   80200    221.50574   -334.03429    131943.28    -44116.88    2703.7914   -46820.672   0.10327003 
   80400    220.09228   -446.58859    132061.25   -44106.307    2686.5381   -46792.845   0.10602009 
   80600    222.31798   -703.17413    132331.86   -44118.688     2713.706   -46832.394   0.10840205 
   80800    223.94391   -428.24393    132043.83   -44083.867    2733.5527    -46817.42   0.10623647 
   81000    222.64182   -380.49434    131995.21    -44123.95    2717.6589   -46841.609   0.10456495 
   81200    220.45481   -592.50951    132270.08   -44106.718    2690.9634   -46797.681   0.10444219 
   81400    220.71989   -508.30709    132154.54   -44086.009     2694.199   -46780.208   0.10530774 
   81600    222.91056   -409.32142    132008.75   -44099.975    2720.9393   -46820.914   0.10776579 
   81800    219.14303   -569.23526    132189.94   -44103.693    2674.9512   -46778.645   0.10962162 
   82000    219.91367   -556.13592    132201.74   -44082.326     2684.358   -46766.684   0.10929598 
   82200    220.91981   -425.47235    132042.99   -44117.625    2696.6393   -46814.265   0.10714112 
   82400    219.29989   -510.99321    132143.73   -44122.887     2676.866   -46799.753   0.10390774 
   82600    220.99866   -570.80194    132219.29   -44141.889    2697.6018   -46839.491   0.10183833 
   82800    219.73815   -433.63011    132052.28   -44172.411    2682.2155   -46854.627   0.10250087 
   83000    219.10258   -437.24242    132061.31    -44162.11    2674.4575   -46836.568   0.10422757 
   83200    218.18472   -580.30665    132218.05   -44172.394    2663.2537   -46835.647   0.10597127 
   83400     217.0378   -502.60424    132096.67   -44192.535    2649.2539   -46841.789   0.10384652 
   83600    216.04344    -450.4247       132017   -44202.059    2637.1164   -46839.176   0.10345942 
   83800    220.22664   -545.47318    132178.71   -44163.045    2688.1782   -46851.223   0.10024842 
   84000    218.64582   -546.82732    132165.39   -44182.315    2668.8821   -46851.197   0.10222652 
   84200    218.87916   -425.83779     132019.5   -44171.166    2671.7304   -46842.897   0.10580681 
   84400    216.73868   -519.52149    132126.97   -44182.729    2645.6027   -46828.332   0.10432877 
   84600    220.38059   -579.65124    132182.66   -44175.944    2690.0575   -46866.002     0.105395 
   84800    219.89238    -419.4541    132007.09   -44188.779    2684.0981   -46872.877   0.10292403 
   85000    215.51041   -470.59626    132055.26   -44158.106      2630.61   -46788.716   0.10531914 
   85200    220.51842   -613.94349    132228.76    -44134.43    2691.7398    -46826.17   0.10543743 
   85400    221.52553   -472.78909    132093.09   -44123.139     2704.033   -46827.172    0.1073475 
   85600    213.52749   -450.84783    132031.48   -44128.807    2606.4056   -46735.212   0.11025248 
   85800    220.87612   -579.48837    132218.16     -44131.9    2696.1061   -46828.006   0.10639441 
   86000    222.75361    -495.3556    132147.56     -44103.9    2719.0235   -46822.924   0.10359516 
   86200    221.22991   -368.28436    132008.85   -44112.794    2700.4246   -46813.218  0.099853795 
   86400    221.06105   -540.35924    132187.75    -44109.62    2698.3634   -46807.984   0.10318468 
   86600    224.17301   -572.00665    132224.15   -44097.713    2736.3492   -46834.063   0.10417848 
   86800    222.95169   -382.43946    132046.07   -44127.687    2721.4414   -46849.128   0.10184465 
   87000    218.81165     -519.025    132126.88   -44141.027    2670.9063   -46811.934   0.10918433 
   87200    222.58375   -578.19786    132235.82    -44122.91    2716.9501    -46839.86   0.10586252 
   87400    220.44048   -438.01623    132064.12   -44102.011    2690.7885     -46792.8   0.10416164 
   87600    218.89282   -453.10197    132059.22   -44138.526     2671.897   -46810.423    0.1058126 
   87800    218.68435    -620.6536    132247.61   -44148.268    2669.3524    -46817.62    0.1037809 
   88000    219.21729   -471.09368    132110.04   -44119.042    2675.8577     -46794.9   0.10545439 
   88200    223.73153   -381.35999     132009.3   -44138.165    2730.9604   -46869.125   0.10398893 
   88400    221.95261   -596.27676    132260.41    -44127.46    2709.2461   -46836.706   0.10518543 
   88600    218.48982   -567.49709    132194.75   -44142.068    2666.9779   -46809.046   0.10571231 
   88800    214.92501    -343.4225    131929.09   -44141.151    2623.4643   -46764.615   0.10528861 
   89000    222.59946   -604.05132    132217.44   -44150.678    2717.1418    -46867.82   0.10440776 
   89200    220.75038    -670.7617    132315.86   -44129.664    2694.5712   -46824.235   0.10628664 
   89400    223.91507   -296.11672     131892.9   -44109.874    2733.2008   -46843.075   0.10889641 
   89600    216.24758   -456.03002    132100.51   -44129.958    2639.6082   -46769.566   0.10971737 
   89800    219.79798   -736.05454    132417.65   -44141.766    2682.9458   -46824.712   0.10374738 
   90000    218.61432   -337.07778    131948.64   -44154.858    2668.4976   -46823.356   0.10352548 
   90200    221.29561   -337.61478    131925.03    -44188.14    2701.2265   -46889.366   0.10142269 
   90400    214.14092   -760.69398     132393.9   -44202.416    2613.8934   -46816.309   0.10720796 
   90600    217.29223   -490.75039    132076.77   -44194.039    2652.3596   -46846.399   0.10768742 
   90800    217.28452   -282.68401    131809.04   -44206.996    2652.2655   -46859.261   0.10790225 
   91000     221.8364    -641.9623    132289.93   -44203.192    2707.8277    -46911.02   0.10315868 
   91200    216.68805    -657.5337    132227.92   -44212.503    2644.9848   -46857.487   0.10848493 
   91400    219.52155   -236.66685    131797.12   -44209.879    2679.5716    -46889.45   0.10418392 
   91600    216.04537   -574.86954    132148.93   -44212.583    2637.1399   -46849.723   0.10755897 
   91800    212.32293   -710.88147    132320.27   -44190.238    2591.7023   -46781.941   0.10935792 
   92000    214.17088   -312.39986    131856.56   -44204.078    2614.2592   -46818.337    0.1101721 
   92200    216.82507   -416.76286    132007.37   -44218.171    2646.6572   -46864.828    0.1075771 
   92400    215.54881   -750.01544    132379.23   -44182.542    2631.0787    -46813.62   0.11260005 
   92600    221.13455   -394.68271    131978.36   -44225.883    2699.2605   -46925.144   0.10245471 
   92800    218.15175   -322.36513    131875.02   -44208.021    2662.8513   -46870.872   0.10449221 
   93000    220.85205   -703.96088    132374.09   -44153.942    2695.8123   -46849.755   0.10512368 
   93200    217.25042   -563.92769    132170.79   -44156.821    2651.8492   -46808.671   0.11191768 
   93400    219.52252   -251.01611    131813.56   -44159.455    2679.5835   -46839.038   0.10982195 
   93600     223.5005    -579.2244    132249.76   -44143.376    2728.1404   -46871.516   0.10693413 
   93800    223.68921   -660.80155    132321.71   -44142.643    2730.4439   -46873.087   0.10535187 
   94000    227.69394   -273.09102    131851.26   -44149.154    2779.3272   -46928.481   0.10411798 
   94200    216.23409   -478.05227     132060.2   -44203.491    2639.4435   -46842.934   0.10921221 
   94400    217.69347   -751.53542     132359.8   -44189.385    2657.2573   -46846.642   0.11240167 
   94600    218.98384   -406.53398    131956.48   -44188.356    2673.0081   -46861.365   0.11100287 
   94800    215.39616   -374.22052    131927.98   -44229.599    2629.2153   -46858.815   0.10824916 
   95000     218.5821   -687.70315    132314.03    -44231.92    2668.1043   -46900.024   0.10417123 
   95200    218.52082   -477.23907     132068.3   -44233.694    2667.3562   -46901.051   0.10525656 
   95400    219.21155   -310.97699    131833.49    -44248.25    2675.7876   -46924.037   0.10619574 
   95600    217.77876   -622.12443    132214.05    -44214.41    2658.2984   -46872.708   0.10526733 
   95800    216.74983   -626.83569    132209.91   -44189.213    2645.7389   -46834.952   0.11109548 
   96000    221.58037   -306.23968    131876.23   -44189.406    2704.7025   -46894.108   0.10690266 
   96200    219.92875   -503.37177    132108.25   -44209.061    2684.5421   -46893.604   0.10430653 
   96400    217.20243   -642.13664     132242.6   -44203.624    2651.2635   -46854.888   0.10691553 
   96600    221.77162   -366.84572    131930.24   -44216.027    2707.0369   -46923.064   0.10103096 
   96800    216.62898   -446.01339    132005.92   -44253.127    2644.2636   -46897.391   0.10241225 
   97000    218.72786   -628.97044    132235.52    -44240.82    2669.8835   -46910.704   0.10753777 
   97200    216.03465   -460.69112    132042.49   -44234.763    2637.0091   -46871.772   0.10984696 
   97400    216.73656   -404.93339    131966.49   -44203.564    2645.5769   -46849.141   0.10827024 
   97600     221.2365   -609.06373    132198.47   -44183.508    2700.5051   -46884.013   0.10711903 
   97800    220.58409   -523.51366    132127.56   -44180.337    2692.5415   -46872.878   0.10535749 
   98000     220.6636   -364.74192    131957.67   -44161.064     2693.512   -46854.576   0.10353108 
   98200    221.68539   -549.24937    132149.15   -44168.432    2705.9843   -46874.417   0.10699575 
   98400    219.58113   -549.53196     132182.3   -44117.527    2680.2988   -46797.826   0.10908134 
   98600    219.98943   -396.53053    131982.16   -44153.892    2685.2827   -46839.174   0.10356322 
   98800    221.95669   -475.83088    132079.02   -44127.674     2709.296    -46836.97   0.10717913 
   99000     223.4798   -576.63401    132223.55   -44129.112    2727.8876   -46856.999   0.10290457 
   99200    219.68852   -441.93899    132040.09    -44179.36    2681.6097    -46860.97   0.10066365 
   99400      218.527   -437.63655    132006.31   -44243.826    2667.4317   -46911.258   0.10185052 
   99600    215.22499   -573.72648    132177.86   -44257.576     2627.126   -46884.702   0.10470399 
   99800    220.17866    -509.9891    132084.02   -44234.621    2687.5926   -46922.214   0.10409248 
  100000    215.60033   -428.10875    131998.84   -44239.932    2631.7075   -46871.639   0.11024547 
  100200    215.11154   -568.81283    132162.23   -44210.624    2625.7411   -46836.366   0.10551277 
  100400     217.5865   -547.46559    132139.94    -44196.29    2655.9515   -46852.241   0.10102776 
  100600    218.87276   -416.63282    131997.68   -44165.538    2671.6522   -46837.191   0.10496137 
  100800    218.10486   -552.11376    132139.68   -44187.157    2662.2789   -46849.436   0.10755669 
  101000    221.06116    -579.8721    132188.77   -44180.674    2698.3648   -46879.038   0.10409382 
  101200    218.74085    -430.4671    132005.56   -44157.468    2670.0421    -46827.51   0.10812449 
  101400    217.06038   -461.63255    132084.83   -44172.185    2649.5295   -46821.715   0.10488346 
  101600    221.29451   -603.86435    132235.46   -44177.457    2701.2131    -46878.67   0.09825035 
  101800    220.21835   -441.00658    132038.78   -44156.633    2688.0771    -46844.71   0.10290478 
  102000    223.52355   -400.37646    132013.72    -44165.44    2728.4217   -46893.862   0.10122439 
  102200    218.91394   -648.04968    132275.18   -44150.305    2672.1548    -46822.46   0.10491631 
  102400    221.66733   -500.13644    132121.65   -44114.633    2705.7639   -46820.396   0.10831401 
  102600    221.38293   -346.27391    131940.59   -44118.533    2702.2923   -46820.825   0.10509507 
  102800    220.51572   -621.69239    132253.29   -44129.837    2691.7068   -46821.544   0.10350846 
  103000    221.66554   -584.87165    132231.39   -44125.212    2705.7421   -46830.954   0.10217388 
  103200    221.81701   -285.09346    131889.72   -44114.775     2707.591   -46822.366   0.10218271 
  103400    219.61177   -518.80965    132163.05   -44134.193    2680.6729   -46814.865   0.10428963 
  103600    220.80946   -690.31095     132348.3   -44137.267    2695.2923   -46832.559   0.10849235 
  103800     223.4085   -327.16106    131895.75   -44138.652    2727.0173   -46865.669   0.10526782 
  104000    223.06738   -373.69754    131994.66   -44147.322    2722.8535   -46870.176  0.099307335 
  104200    218.07984   -743.61141    132409.09   -44149.909    2661.9735   -46811.882   0.10426315 
  104400    216.72662   -431.31894    131995.55   -44167.982    2645.4555   -46813.437   0.10347453 
  104600    223.53691   -249.83235    131825.27   -44161.957    2728.5848   -46890.542   0.10025496 
  104800    220.96966   -744.78069    132359.68   -44154.305    2697.2479   -46851.553   0.10865387 
  105000    221.10115     -572.799    132164.98    -44177.81    2698.8529   -46876.663   0.10640439 
  105200    220.10972   -234.55893    131754.68   -44179.054    2686.7511   -46865.805    0.1051565 
  105400    220.16779    -653.3723    132246.44   -44171.295    2687.4599   -46858.755   0.10779823 
  105600    218.84959   -694.52399    132341.59   -44165.323    2671.3694   -46836.693   0.10416818 
  105800    219.14788   -219.20939    131779.85   -44184.741    2675.0105   -46859.751   0.10265218 
  106000    220.27577   -437.42336     132063.5   -44153.144    2688.7779   -46841.922   0.10480391 
  106200    221.47959   -760.15731    132448.37   -44136.507    2703.4722   -46839.979   0.10558054 
  106400     219.2374   -367.62435    131912.99   -44163.373    2676.1031   -46839.477   0.11018614 
  106600    216.54015    -323.7245    131878.71   -44164.847    2643.1794   -46808.026   0.10860132 
  106800    218.72551   -751.93536    132411.77   -44155.453    2669.8548   -46825.308   0.10289485 
  107000    223.26578   -481.44986    132088.78   -44127.673    2725.2752   -46852.949   0.10593914 
  107200    221.80835   -255.67278       131828   -44120.902    2707.4852   -46828.387   0.10976011 
  107400    218.80599   -685.88167    132311.53   -44122.157    2670.8372   -46792.995   0.11122267 
  107600    220.40068    -619.5531    132235.84   -44106.538    2690.3027   -46796.841   0.10891537 
  107800    218.83259   -283.48494    131834.28   -44125.454    2671.1618   -46796.616   0.11212794 
  108000    222.25421   -547.63071    132174.34   -44106.665    2712.9276   -46819.593   0.10336594 
  108200    219.39059   -712.70397    132359.62   -44128.793     2677.973   -46806.766   0.10581341 
  108400    222.54697   -331.75297    131926.43    -44131.12    2716.5012   -46847.622   0.10835976 
  108600    222.75016   -445.35337    132051.34   -44114.235    2718.9814   -46833.216   0.10778665 
  108800    220.78485    -672.9634    132357.79   -44123.239     2694.992   -46818.231   0.10591399 
  109000    220.00825   -441.18966    132042.63   -44151.591    2685.5125   -46837.104   0.10851881 
  109200    220.23829   -366.76848    131961.66   -44158.989    2688.3205    -46847.31   0.10597993 
  109400    221.98626   -632.83366    132288.46   -44140.585    2709.6569   -46850.242   0.10572308 
  109600    222.83254   -525.94698    132161.32    -44116.26     2719.987   -46836.247   0.10700071 
  109800    224.78315   -358.15566    131965.12   -44157.017    2743.7969   -46900.814   0.10300202 
  110000    220.29952   -525.05833    132163.99   -44106.477    2689.0678   -46795.545   0.10923124 
  110200    223.05571   -610.41631    132218.63   -44098.011    2722.7111   -46820.722   0.11002184 
  110400    224.04563   -414.45135    132037.08   -44137.386    2734.7944    -46872.18   0.10283225 
  110600    218.72013   -470.94999    132093.39   -44190.801    2669.7892    -46860.59    0.1043959 
  110800    219.92428   -558.36279    132170.04   -44186.365    2684.4874   -46870.853   0.10316857 
  111000     219.9003   -443.94056    132065.41    -44188.01    2684.1948   -46872.204   0.10151036 
  111200    216.00575   -498.04749    132074.88   -44174.954    2636.6562    -46811.61   0.10939592 
  111400    214.71723   -563.20404    132158.85   -44211.121    2620.9281   -46832.049   0.10773833 
  111600    216.57101   -473.46447    132056.33   -44245.105    2643.5561   -46888.661   0.10078757 
  111800    215.34703   -438.79925    132023.57   -44268.177    2628.6157   -46896.792   0.10168696 
  112000    217.94217   -569.68413    132130.36   -44266.852     2660.293   -46927.145   0.10402562 
  112200    215.42982   -497.96085    132079.33   -44231.544    2629.6262    -46861.17   0.10330718 
  112400    219.50981   -455.90038    132034.75    -44216.11    2679.4283   -46895.538   0.10192428 
  112600    218.54828   -526.48491    132130.83   -44196.475    2667.6914   -46864.166   0.10317145 
  112800    217.59518   -518.47207    132097.18   -44210.071    2656.0576   -46866.129   0.10240466 
  113000     218.8443   -446.58554    132032.73   -44195.261    2671.3048   -46866.566   0.10282992 
  113200    218.61881   -517.33404    132140.24   -44218.776    2668.5524   -46887.329   0.10041391 
  113400    219.22495   -541.68226    132153.04   -44204.664    2675.9512   -46880.616   0.10002387 
  113600    219.85994   -427.48511    132051.59   -44208.341    2683.7021   -46892.043  0.099140616 
  113800    218.54722   -510.59992    132118.84   -44195.938    2667.6785   -46863.617    0.1015314 
  114000    220.09178   -548.66771    132174.26   -44184.723    2686.5321   -46871.255   0.10131436 
  114200    217.82813   -449.36799    132057.12   -44194.683     2658.901   -46853.584   0.10362479 
  114400    216.01482   -498.08167    132090.49   -44152.683     2636.767    -46789.45   0.10422389 
  114600    219.28613   -572.90373    132220.59   -44134.338    2676.6979   -46811.036   0.10075951 
  114800    225.54394   -484.92805    132133.23   -44114.959    2753.0834   -46868.042   0.10127797 
  115000    221.67707    -400.8395    132046.83   -44133.146    2705.8828   -46839.029  0.098920938 
  115200    222.15004   -554.17509    132180.55   -44152.965     2711.656   -46864.621   0.10057615 
  115400    218.13494   -527.61239    132153.34   -44164.975    2662.6461   -46827.622   0.10252542 
  115600    218.80139    -423.3738    132014.49    -44149.36    2670.7811   -46820.141   0.10351116 
  115800    222.55979   -551.42606    132138.96   -44162.831    2716.6577   -46879.488    0.1009515 
  116000    218.86057   -580.74572    132180.87   -44154.903    2671.5034   -46826.406   0.10277916 
  116200    219.89343   -407.61398    132032.22   -44167.207    2684.1109   -46851.318  0.099783699 
  116400    219.17772   -504.27466    132105.88   -44203.475    2675.3747    -46878.85  0.098997892 
  116600    216.49009   -575.07141     132192.4   -44214.323    2642.5684   -46856.892    0.1022838 
  116800    219.88143    -423.6896    132031.34   -44176.848    2683.9645   -46860.812   0.10215402 
  117000    219.64625   -473.36977    132080.87   -44192.769    2681.0938   -46873.863   0.10066828 
  117200    218.53621   -592.49733    132222.73   -44189.011    2667.5442   -46856.555   0.10034888 
  117400    219.64846   -440.88762    132068.35   -44199.864    2681.1207   -46880.985  0.096580721 
  117600    221.48268   -430.48894    132015.14   -44180.639      2703.51   -46884.149  0.099971576 
  117800    220.77704   -588.84141    132224.61   -44151.661    2694.8967   -46846.558   0.10228662 
  118000    218.20703   -539.94654    132150.11   -44143.752    2663.5261   -46807.278   0.10261254 
  118200    221.79695    -348.1147    131956.53   -44176.527    2707.3461   -46883.873  0.098548664 
  118400    217.63876   -548.83679    132144.85   -44199.997    2656.5895   -46856.586   0.10119756 
  118600    220.12795    -562.6937    132181.75   -44219.483    2686.9736   -46906.457  0.098050456 
  118800    219.26358   -360.60478    131929.12   -44249.585    2676.4227   -46926.008  0.097869958 
  119000     218.4569   -452.90132    132039.67   -44254.711    2666.5761   -46921.287  0.099488503 
  119200    216.44899    -607.5155    132218.59   -44254.913    2642.0666   -46896.979  0.099757597 
  119400    214.35153   -456.73977     131993.9    -44279.31    2616.4642   -46895.774   0.10158794 
  119600    218.57864   -404.22038    131965.61   -44235.495    2668.0621   -46903.557   0.10172588 
  119800    214.20719   -650.92345    132256.14   -44227.064    2614.7023   -46841.767   0.10091117 
  120000    216.15944   -504.07391    132108.85   -44247.751    2638.5323   -46886.283  0.098269292 
  120200     217.9028   -330.66501    131897.59   -44229.492    2659.8125   -46889.304   0.09906236 
  120400    215.15539   -602.97659    132201.33   -44254.623    2626.2765   -46880.899   0.10152784 
  120600    217.45339   -592.65523    132207.65   -44243.426    2654.3268   -46897.753   0.10310064 
  120800    214.49313   -326.77811    131882.96   -44245.489    2618.1926   -46863.682   0.10206866 
  121000    216.45207   -503.38851    132105.02   -44234.968    2642.1043   -46877.072  0.098543463 
  121200    216.05697   -678.14472    132305.51   -44238.255    2637.2815   -46875.536  0.099495279 
  121400    215.32444   -332.17936    131902.03   -44234.466    2628.3399   -46862.806   0.10215988 
  121600    220.46096   -393.99749    131974.65   -44228.567    2691.0384   -46919.605   0.10132511 
  121800    218.71151   -720.18336    132360.98   -44222.597     2669.684   -46892.281   0.10191783 
  122000    215.11452   -435.93682     132009.2   -44210.624    2625.7775   -46836.402   0.10431427 
  122200    219.66312   -323.14788    131855.78    -44193.03    2681.2996    -46874.33   0.10194776 
  122400     219.3196   -691.60227    132337.52   -44158.935    2677.1065   -46836.042   0.10448722 
  122600    221.93965   -557.58175    132183.18   -44100.098     2709.088   -46809.186   0.10677709 
  122800    222.91027   -233.12792     131811.2   -44100.353    2720.9358   -46821.288   0.10554673 
  123000    220.47004   -611.81066    132247.15   -44125.563    2691.1493   -46816.712   0.10522132 
  123200    221.32217   -685.70047    132330.14   -44142.709    2701.5507    -46844.26   0.10551198 
  123400     217.8857   -254.90473    131791.58   -44207.388    2659.6037   -46866.992   0.10483975 
  123600    220.66238    -479.1709    132054.63   -44175.435    2693.4971   -46868.932   0.10337825 
  123800    219.48176   -804.76127    132425.39   -44180.438    2679.0859   -46859.524   0.10490871 
  124000    219.75294   -312.89337    131898.65   -44168.674     2682.396    -46851.07   0.10378608 
  124200    221.22121   -312.75658    131910.13   -44161.739    2700.3184   -46862.057   0.10610836 
  124400    218.23012   -803.81042    132445.38   -44172.807    2663.8079   -46836.615   0.11061631 
  124600    216.35254   -494.78526    132049.89   -44186.885    2640.8894   -46827.774    0.1085395 
  124800    218.64171   -224.72856     131771.4   -44193.471    2668.8319   -46862.303   0.10466535 
  125000    220.94907   -735.48013    132333.66   -44198.721    2696.9966   -46895.717   0.10277343 
  125200    218.73011   -610.66693    132204.84   -44190.019     2669.911    -46859.93   0.10427483 
  125400    220.20785    -201.4533    131728.56    -44232.55    2687.9489   -46920.499   0.10703851 
  125600    214.29859   -607.17892    132177.97   -44237.659    2615.8179   -46853.477   0.10668422 
  125800    213.39971   -746.36889    132346.67   -44215.732    2604.8458   -46820.578   0.10760206 
  126000    221.63085   -264.76352    131805.25   -44210.573    2705.3186   -46915.892   0.10474184 
  126200    219.82094   -457.07759     132009.7   -44189.017    2683.2261   -46872.243   0.10619759 
  126400    217.57919    -765.6886    132376.11   -44208.068    2655.8623    -46863.93   0.10743871 
  126600    218.79081   -389.72474    131930.46   -44218.122    2670.6519   -46888.774   0.10690949 
  126800    216.84918    -361.7538    131895.58   -44204.145    2646.9516   -46851.096   0.10904658 
  127000    217.46849   -725.94664     132351.7   -44216.239    2654.5111    -46870.75   0.10734546 
  127200    213.87205    -491.2294    132074.89   -44242.482    2610.6114   -46853.094    0.1046255 
  127400    219.54647   -282.46809    131844.01    -44238.81    2679.8758   -46918.686   0.10200835 
  127600    218.79572   -634.95304    132257.05    -44233.16    2670.7118   -46903.871   0.10395025 
  127800    216.77243   -597.81814    132191.95   -44234.332    2646.0147   -46880.346   0.10468874 
  128000    215.61439   -336.27274    131882.27   -44220.249    2631.8791   -46852.128   0.10720171 
  128200    218.15602   -557.14111    132171.11   -44194.946    2662.9034   -46857.849   0.10716242 
  128400     218.8571   -633.57605    132267.73   -44218.815    2671.4611   -46890.276   0.10412107 
  128600    219.28351   -315.92524    131909.48    -44234.53     2676.666   -46911.196  0.099033239 
  128800    213.83475   -444.41425    132034.45    -44276.35    2610.1561   -46886.507   0.10194868 
  129000    215.40563   -664.62983    132272.59   -44287.762     2629.331   -46917.093    0.1038285 
  129200    214.66148   -439.23642    131988.11   -44273.631    2620.2476   -46893.878   0.10533979 
  129400    210.82198   -455.33895    131967.62   -44267.365    2573.3811   -46840.746   0.10956272 
  129600    214.94716   -633.70705    132256.08   -44252.857    2623.7348   -46876.592   0.10573442 
  129800    214.75825    -489.0985    132091.91   -44261.782    2621.4287   -46883.211   0.10238425 
  130000    215.18054   -379.71642     131928.7    -44279.83    2626.5834   -46906.414   0.10237798 
  130200    218.54436   -576.73048    132182.63   -44280.202    2667.6436   -46947.845  0.099754307 
  130400    216.94106   -568.85938    132169.02   -44276.413    2648.0731   -46924.486   0.10065242 
  130600    214.07467   -374.88049    131941.32    -44245.32    2613.0847   -46858.405   0.10424367 
  130800    216.34287   -531.62971    132102.35   -44260.004    2640.7714   -46900.775   0.10403602 
  131000    216.32492   -584.92339    132166.37   -44277.018    2640.5523    -46917.57   0.10291598 
  131200    218.29103   -399.93252    131966.15   -44254.745    2664.5514   -46919.296   0.10308941 
  131400    216.44649   -480.61012    132059.11   -44261.241    2642.0361   -46903.277   0.10036596 
  131600     214.5085    -626.5458    132223.88   -44249.497    2618.3803   -46867.877    0.1044941 
  131800    216.17636   -447.42468    132011.75   -44234.061    2638.7388     -46872.8   0.10919958 
  132000    221.33243   -410.67219    132005.91   -44198.946     2701.676   -46900.622   0.10505999 
  132200    216.38569   -628.65694    132241.98   -44210.699    2641.2939   -46851.993   0.10437085 
  132400    214.48627   -482.92536    132076.67   -44217.777    2618.1088   -46835.886   0.10373541 
  132600    217.96473   -374.46414    131960.74     -44189.6    2660.5684   -46850.169   0.10343309 
  132800    219.03755    -602.5789    132232.15   -44171.723    2673.6637   -46845.387    0.1024316 
  133000    220.49312   -552.63837    132188.02   -44162.536     2691.431   -46853.967   0.10481689 
  133200    222.12939    -357.0549    131966.49   -44144.549    2711.4041   -46855.953   0.10510065 
  133400    219.40984   -532.14019    132199.89   -44125.423    2678.2081   -46803.632   0.10263403 
  133600    219.82689   -650.15867    132303.52   -44128.049    2683.2987   -46811.347   0.10522475 
  133800    219.60643   -369.88434    131986.74   -44150.741    2680.6077   -46831.349   0.10287601 
  134000      222.062   -445.49431    132082.58   -44116.789    2710.5814   -46827.371    0.1022823 
  134200    218.46611   -688.54975    132368.92   -44122.006    2666.6885   -46788.694   0.10269751 
  134400    220.79127   -438.78036     132059.9   -44117.992    2695.0703   -46813.062   0.10246857 
  134600    220.83187   -361.35232    131950.44    -44136.22     2695.566   -46831.786   0.10339881 
  134800    219.12672   -696.12912    132357.16    -44156.79    2674.7521   -46831.542   0.10706102 
  135000    218.08145   -529.76184    132167.35   -44210.867    2661.9931    -46872.86  0.098415886 
  135200    217.92605   -251.73123    131823.08   -44200.952    2660.0963   -46861.048   0.10012731 
  135400    215.89337   -674.11868    132287.74    -44210.85    2635.2845   -46846.134   0.10411131 
  135600    218.13492   -685.23286    132340.84   -44189.503    2662.6459   -46852.149    0.1024699 
  135800    220.15763   -181.70913    131744.65   -44249.335    2687.3359   -46936.671  0.098932095 
  136000    214.07265   -495.79958    132085.13   -44264.759      2613.06   -46877.819   0.10460085 
  136200    220.24366   -852.66159     132500.4   -44257.367     2688.386   -46945.753  0.098602778 
  136400    217.21099   -213.53132     131821.7   -44238.202    2651.3679    -46889.57  0.096213693 
  136600     218.3746   -309.73538    131902.37   -44196.819    2665.5715   -46862.391   0.10325654 
  136800    218.83997   -904.63664    132597.33   -44199.504     2671.252   -46870.756   0.10382812 
  137000    214.64892   -415.51003    132001.14   -44209.389    2620.0942   -46829.483   0.10251615 
  137200    217.83011   -163.35666    131686.67   -44231.108    2658.9252   -46890.033   0.10330421 
  137400     217.3827   -818.00948    132501.09   -44198.569     2653.464   -46852.033   0.10162173 
  137600    220.09385   -603.85246    132268.72    -44193.89    2686.5573   -46880.447  0.099808725 
  137800    222.84625   -90.626463    131646.69   -44171.678    2720.1543   -46891.832   0.10110212 
  138000    216.71239   -634.62808    132286.72   -44184.609    2645.2819   -46829.891   0.10115317 
  138200    216.76885   -791.52792    132424.35   -44213.303     2645.971   -46859.274   0.10312591 
  138400    214.32048   -188.88943    131738.12   -44200.401    2616.0851   -46816.486   0.10677044 
  138600    214.97833   -448.32919    132063.57   -44212.573    2624.1152   -46836.688   0.10279635 
  138800    218.79754    -798.5936    132456.64   -44158.223     2670.734   -46828.957   0.10639792 
  139000    221.63402   -367.58374    131938.25   -44170.224    2705.3573   -46875.581   0.10458817 
  139200    222.33015   -336.91759       131944   -44169.135    2713.8546    -46882.99   0.10101826 
  139400    218.10655   -687.56086    132386.87   -44185.438    2662.2995   -46847.737   0.10027644 
  139600    219.30717   -513.18479    132131.46   -44176.012    2676.9547   -46852.967   0.10460799 
  139800    219.13408   -298.79497     131935.3   -44144.136     2674.842   -46818.978  0.099542186 
  140000    220.52291   -615.06822     132293.5   -44127.666    2691.7946   -46819.461   0.10022415 
  140200    220.45369   -599.00745    132249.41   -44153.625    2690.9497   -46844.575   0.10244344 
  140400    221.34341   -330.79709    131938.88   -44175.842      2701.81   -46877.652   0.10039841 
  140600    216.86087    -513.9254    132149.21   -44175.443    2647.0943   -46822.538     0.102776 
  140800    220.86656    -621.3719     132280.1   -44168.739    2695.9893   -46864.728   0.10416244 
  141000    219.30839   -400.84639    131997.56   -44200.799    2676.9697   -46877.769   0.10261373 
  141200    218.26251   -441.42714    132058.27   -44167.764    2664.2033   -46831.967   0.10367059 
  141400     220.9675   -644.74673    132293.75   -44160.471    2697.2215   -46857.692   0.10370487 
  141600    224.72312   -483.92842    132063.88   -44148.601    2743.0641   -46891.665   0.10621573 
  141800    218.73556   -390.19118    131973.21   -44194.546    2669.9775   -46864.524   0.10287706 
  142000    216.72945   -664.07669    132233.11   -44193.264    2645.4901   -46838.754   0.10952766 
  142200    217.38898    -545.7492       132143   -44206.003    2653.5406   -46859.543   0.10485907 
  142400    219.90885   -348.37962    131935.86   -44204.969    2684.2992   -46889.268   0.10305209 
  142600    219.58099   -535.58817    132158.46   -44181.645    2680.2972   -46861.943   0.10432939 
  142800    217.60205   -599.28555    132232.78   -44198.386    2656.1414   -46854.527   0.10184283 
  143000    218.47037   -388.04585     131966.1   -44223.218    2666.7405   -46889.959   0.10143269 
  143200    219.70199   -467.27407    132060.75   -44214.618    2681.7741   -46896.393   0.10426902 
  143400    218.00819   -644.58885    132270.38   -44196.143    2661.0989   -46857.242   0.10454883 
  143600    215.76984   -461.27824     132043.2   -44181.916    2633.7767   -46815.693   0.10622072 
  143800    220.72539   -382.25087    131979.13    -44187.92    2694.2662   -46882.187   0.10388289 
  144000    220.01225   -619.99265    132242.82   -44172.831    2685.5613   -46858.392   0.10454176 
  144200    221.19099   -515.69074     132116.2   -44156.874    2699.9495   -46856.823   0.10617272 
  144400    220.19498   -371.66634    131949.61   -44155.619    2687.7917    -46843.41    0.1068442 
  144600    220.37051   -572.21025    132220.35   -44138.538    2689.9343   -46828.473   0.10621769 
  144800    217.24377   -602.40717    132236.63   -44125.864    2651.7681   -46777.632   0.10828997 
  145000    222.75568    -358.1586    131958.88   -44160.412    2719.0487   -46879.461    0.1042381 
  145200    216.89603   -508.72508    132133.31   -44180.481    2647.5235   -46828.005   0.10355154 
  145400    219.40565   -662.67819    132322.95   -44176.151    2678.1569   -46854.308   0.10521334 
  145600    218.33873   -394.69638    131999.78   -44195.084    2665.1336   -46860.217   0.10602106 
  145800    217.85603   -390.80974     131998.4   -44210.644    2659.2415   -46869.886   0.10417897 
  146000    215.87294   -694.59851    132337.99    -44192.65    2635.0352   -46827.686   0.10752485 
  146200    217.50827   -475.86749    132096.11   -44218.478    2654.9967   -46873.474   0.10351773 
  146400    222.26703   -286.56167    131885.76     -44185.5    2713.0841   -46898.584   0.10123532 
  146600    219.37887   -659.82995    132322.69   -44146.133      2677.83   -46823.963   0.10417341 
  146800    218.65102   -599.43335    132255.56    -44119.25    2668.9456   -46788.196   0.10611486 
  147000    219.62875   -234.20003    131809.49   -44122.342    2680.8801   -46803.222   0.10865872 
  147200    222.57642    -550.4254    132211.23    -44103.44    2716.8607   -46820.301   0.10726367 
  147400    216.16827   -772.81454     132437.6   -44140.089    2638.6401   -46778.729   0.10883568 
  147600    220.31547   -224.89867    131804.83   -44166.175    2689.2625   -46855.437    0.1028315 
  147800    216.62387   -399.78656    131987.11   -44196.926    2644.2013   -46841.128   0.10490185 
  148000    219.12612   -862.11832     132523.5   -44166.776    2674.7448   -46841.521   0.10728625 
  148200    216.14553   -365.74442    131960.75   -44210.439    2638.3625   -46848.802   0.10597417 
  148400    216.24856   -227.52356    131802.11   -44227.568    2639.6202   -46867.188    0.1054268 
  148600    218.43748   -779.49236    132466.11   -44200.709     2666.339   -46867.048    0.1023884 
  148800    219.13359    -550.2016    132151.67   -44213.543     2674.836   -46888.379   0.10295441 
  149000     218.5806   -132.81695    131688.54   -44221.277     2668.086   -46889.363   0.10220528 
  149200    215.84034   -713.13917    132317.31   -44232.233    2634.6373    -46866.87   0.10443553 
  149400    213.83004   -742.14833    132308.59   -44246.064    2610.0986   -46856.162   0.10861439 
  149600    219.72148   -167.40526    131707.87    -44235.91     2682.012   -46917.922   0.10464315 
  149800    216.42824   -556.83014    132132.47   -44243.895    2641.8134   -46885.708   0.10499294 
  150000    220.34412   -743.64364    132404.42   -44197.202    2689.6123   -46886.814    0.1033614 
  150200    219.75984   -274.48972    131841.99   -44160.237    2682.4803   -46842.717   0.10399545 
  150400    215.92436    -416.7265    132005.84   -44161.364    2635.6628   -46797.026   0.10524303 
  150600     223.4488    -794.3239    132437.85   -44166.598    2727.5093   -46894.107   0.10481528 
  150800    222.06463     -403.317    131966.69   -44163.703    2710.6135   -46874.316   0.10696249 
  151000    217.00189   -315.84834    131858.42   -44184.545    2648.8156   -46833.361   0.10698656 
  151200    219.52119   -737.45918    132364.54   -44169.761    2679.5673   -46849.328   0.10395142 
  151400    221.27362   -528.62451    132133.22   -44116.319    2700.9581   -46817.277   0.10406957 
  151600    222.85715   -260.90353    131818.02   -44107.476    2720.2873   -46827.763   0.10505306 
  151800    220.35919   -626.57124    132274.25   -44080.177    2689.7962   -46769.974   0.10758064 
  152000    226.18871   -648.12202    132294.44    -44099.28    2760.9537   -46860.234   0.10874767 
  152200    220.42972   -285.40122    131836.87   -44117.416    2690.6572   -46808.074   0.10857319 
  152400    221.50031   -497.69173    132128.77   -44145.226    2703.7252   -46848.951   0.10091833 
  152600    217.10658   -718.89386    132346.16   -44135.356    2650.0934    -46785.45   0.10565614 
  152800    220.99871   -334.79339    131933.41    -44093.81    2697.6024   -46791.412    0.1046924 
  153000     223.5565   -429.05844    132032.63   -44132.254    2728.8239   -46861.078   0.10501705 
  153200    222.70038   -706.23863    132331.42   -44087.149    2718.3737   -46805.522    0.1097409 
  153400    220.44318   -421.47687     132049.8    -44124.78    2690.8214   -46815.601   0.10403417 
  153600    218.38806   -359.98471    131939.97   -44155.864    2665.7357   -46821.599   0.10430356 
  153800    220.03959   -628.57419     132266.6   -44157.753     2685.895   -46843.648   0.10285009 
  154000    226.07648   -508.85197    132125.64   -44184.093    2759.5838   -46943.676      0.10199 
  154200     217.6124   -317.23631    131896.27    -44149.55    2656.2677   -46805.818   0.10510292 
  154400    224.21771   -594.53548    132225.97   -44134.414    2736.8949   -46871.309   0.10315641 
  154600     218.9056    -635.9865     132242.2   -44148.156     2672.053   -46820.209   0.10623743 
  154800    218.29699   -302.09315    131871.04   -44173.752    2664.6242   -46838.376   0.10499478 
  155000    217.50032   -504.31205    132103.25   -44152.754    2654.8996   -46807.653   0.10601766 
[...]
  163000    219.19151   -638.84519    132245.08   -44205.408    2675.5431   -46880.951   0.10342824 
  163200    221.86049   -430.20517    132031.91   -44200.191    2708.1216   -46908.313   0.10330458 
  163400    217.26776   -425.54739    132004.55   -44221.207    2652.0609   -46873.268   0.10809724 
  163600    216.91968   -592.09864    132207.46   -44194.572    2647.8121   -46842.384   0.10752261 
  163800    216.01015   -523.78641    132094.85   -44241.535      2636.71   -46878.245   0.10520028 
  164000    218.78726   -385.28277    131985.19   -44237.875    2670.6086   -46908.484   0.10245837 
  164200    217.66755   -573.52295    132169.19   -44244.962    2656.9409   -46901.903   0.10106656 
  164400    216.39109   -528.30905    132150.42   -44210.895    2641.3599   -46852.255   0.10166006 
  164600     218.0069   -417.70193    132012.63   -44186.449    2661.0832   -46847.532   0.10521568 
  164800    218.40399   -521.34763     132138.7   -44220.105    2665.9302   -46886.036   0.10233825 
  165000    218.62977    -565.9763    132177.05   -44210.748    2668.6862   -46879.434   0.10322254 
  165200    218.73153   -419.73465    132039.38   -44201.416    2669.9284   -46871.344   0.10392793 
  165400    220.92755    -499.7506    132102.57   -44212.959    2696.7339   -46909.693   0.10301185 
  165600    222.65529   -557.12833    132184.02    -44178.39    2717.8233   -46896.214   0.10087689 
  165800    217.02835   -473.70124    132063.63   -44181.733    2649.1386   -46830.872   0.10467356 
  166000    219.95335   -482.85544    132060.73   -44156.197    2684.8423   -46841.039   0.10592966 
  166200    222.43143   -538.13765    132183.93   -44187.765    2715.0908   -46902.856   0.10191403 
  166400    219.68833   -509.66268    132117.76   -44183.601    2681.6074   -46865.208   0.10257221 
  166600    217.87863   -469.53628    132053.47   -44183.212    2659.5175    -46842.73   0.10233604 
  166800    219.95616   -535.52592    132150.64   -44230.767    2684.8767   -46915.644  0.098606836 
  167000    216.72083   -509.55996    132115.95   -44222.774    2645.3848   -46868.158   0.10304199 
  167200    218.11274   -437.88903     132039.2   -44196.663    2662.3751   -46859.038   0.10248959 
  167400    218.82455   -556.18243    132180.57   -44215.538    2671.0638   -46886.602   0.10150657 
  167600     219.4213   -542.27911    132167.01   -44213.133    2678.3479   -46891.481   0.10132348 
  167800    217.25583   -397.84281    131994.88   -44247.132    2651.9153   -46899.048  0.097561167 
  168000    215.32965    -502.3269    132104.82   -44257.545    2628.4035   -46885.949  0.097393351 
  168200    217.48745   -629.86709    132225.28   -44246.968    2654.7426    -46901.71    0.1019251 
  168400    217.39376   -415.06574    132012.36   -44231.671    2653.5989    -46885.27  0.099295047 
  168600    220.10686   -426.17922    132046.65   -44200.005    2686.7162   -46886.721  0.098407829 
  168800    215.75736   -640.93093     132277.5   -44247.212    2633.6244   -46880.836   0.10069225 
  169000    218.33922   -427.67862    132020.13     -44242.7    2665.1396   -46907.839   0.10099513 
  169200    214.86587   -390.37789    131949.14   -44228.902    2622.7425   -46851.645    0.1014043 
  169400    215.99662   -659.90848    132287.82   -44237.903    2636.5448   -46874.448   0.10016829 
  169600    214.98116   -539.06287    132137.67   -44248.725    2624.1497   -46872.875   0.10029896 
  169800    213.25878   -309.13178    131878.16   -44248.246    2603.1256   -46851.372  0.099841317 
  170000    216.57762   -622.93272    132219.04   -44276.057    2643.6368   -46919.694    0.1002745 
  170200    215.35034   -634.06484     132245.7    -44278.35    2628.6561   -46907.006  0.099875693 
  170400    219.34456   -266.88717    131861.23   -44272.083    2677.4112   -46949.494  0.094953456 
  170600    215.95295   -499.64056    132107.35   -44250.303    2636.0118   -46886.314  0.097573785 
  170800    214.46075    -715.1511    132353.74   -44271.789    2617.7973   -46889.587  0.098167853 
  171000    217.11223   -356.67924    131918.15   -44262.465    2650.1625   -46912.627   0.10004418 
  171200    215.89958   -394.16357    131955.27   -44277.568    2635.3604   -46912.928   0.10009653 
  171400     214.6038   -731.93173    132356.55    -44276.66    2619.5435   -46896.203  0.099590164 
  171600    216.57793   -432.98891    132019.07    -44257.75    2643.6405   -46901.391   0.09713592 
  171800    218.65764   -326.91088    131848.36    -44236.75    2669.0263   -46905.776   0.10463279 
  172000    220.08317   -687.41992    132326.86   -44235.068     2686.427   -46921.495   0.09823079 
  172200    215.52246   -550.00812    132153.73   -44259.903    2630.7571    -46890.66  0.099576824 
  172400     217.4833   -219.30318    131785.52   -44242.498    2654.6918    -46897.19  0.099152964 
  172600    217.62905   -625.52784       132256   -44214.443     2656.471   -46870.914   0.10014049 
  172800    218.81231   -696.76224    132325.86     -44218.7    2670.9144   -46889.615    0.1012441 
  173000    218.35205   -224.41463    131778.54    -44230.67    2665.2962   -46895.966   0.10097896 
  173200    216.78189   -492.57747    132066.98       -44255    2646.1302   -46901.131  0.099776296 
  173400    216.38567   -775.67784     132428.7   -44251.346    2641.2937    -46892.64   0.09865339 
  173600    218.86389   -309.62883    131917.41   -44221.364    2671.5439   -46892.908  0.097162278 
  173800    215.54092   -340.30537    131934.25   -44215.007    2630.9824   -46845.989   0.10112829 
  174000    214.52552   -789.29794    132431.27   -44186.077     2618.588   -46804.665   0.10503182 
  174200    219.72073   -471.10086    132093.62   -44180.201    2682.0029   -46862.204    0.1012629 
  174400    219.98707   -259.87013    131848.01   -44174.011     2685.254   -46859.265  0.098771336 
  174600    222.37457   -682.16852    132353.64   -44174.455    2714.3968   -46888.852   0.10021962 
  174800    215.27135   -617.46259    132270.09   -44161.203    2627.6919   -46788.895   0.10261855 
  175000    219.01391   -269.64394    131829.73   -44188.503    2673.3751   -46861.879   0.10362437 
  175200    215.87166   -560.02416    132191.06   -44188.478    2635.0195   -46823.497   0.10538196 
  175400    217.61248   -714.30183    132354.49   -44199.005    2656.2687   -46855.273   0.10558656 
  175600    216.00876   -295.57407    131866.43   -44208.212    2636.6931   -46844.905   0.10332515 
  175800    220.76866   -432.36314    132041.53   -44187.842    2694.7944   -46882.637    0.1014479 
  176000    216.01891   -723.04251    132397.28   -44189.746    2636.8169   -46826.563   0.10156738 
  176200    220.70174   -416.22679    132034.41   -44154.071    2693.9775   -46848.048    0.1009625 
  176400    221.46261   -375.81435    131971.15   -44166.302     2703.265   -46869.567   0.10245861 
  176600    218.86283   -665.08887    132333.48   -44155.185     2671.531   -46826.716   0.10521228 
  176800     224.4036   -521.82282     132156.1   -44172.876    2739.1639    -46912.04  0.098543435 
  177000    220.95713   -365.30618     131948.1   -44167.928    2697.0949   -46865.023   0.10132779 
  177200    219.04536   -578.63339    132218.26   -44191.962    2673.7591   -46865.721   0.10033514 
  177400    219.73215   -557.91519    132205.97   -44237.162    2682.1423   -46919.305  0.098908157 
  177600    216.57421   -384.30298    131955.18   -44233.831    2643.5952   -46877.426   0.10613077 
  177800    217.82131   -494.33536     132117.4   -44205.082    2658.8178     -46863.9   0.10223786 
  178000     220.9378   -597.41085    132242.76   -44187.062    2696.8589   -46883.921    0.1012592 
  178200    218.31698   -453.20255    132044.26   -44193.637    2664.8682   -46858.505   0.10496641 
  178400    216.30662   -452.00129    132057.73   -44200.634    2640.3289   -46840.963     0.101877 
  178600    216.81657   -608.40247    132216.57   -44188.447    2646.5535       -46835   0.10346731 
  178800    219.54861   -480.57257    132101.85   -44179.383    2679.9019   -46859.285   0.10349946 
  179000    221.75637   -422.21094    132041.19   -44154.098    2706.8508   -46860.949   0.10313742 
  179200     219.5695   -564.60849    132188.52   -44175.072    2680.1569   -46855.229   0.10191219 
  179400    218.82831   -521.22703    132149.29   -44166.157    2671.1096   -46837.267   0.10424568 
  179600    222.32084   -401.84657     132044.7   -44169.985    2713.7409   -46883.726  0.099998233 
  179800    219.32781   -484.22415    132143.05   -44180.737    2677.2068   -46857.944  0.098109501 
  180000    217.55848   -551.23931    132191.53   -44169.533    2655.6096   -46825.142   0.10338606 
  180200    214.78194    -466.5168    132092.35   -44132.455    2621.7179   -46754.173   0.10744641 
  180400    221.32776    -506.8983    132130.79   -44115.413    2701.6189   -46817.032   0.10740119 
  180600    216.87676   -580.42886    132225.22   -44149.733    2647.2882   -46797.021   0.10629608 
  180800    220.05206   -452.45668    132102.98    -44146.07    2686.0472   -46832.117  0.099811417 
  181000    220.53882    -456.1104    132091.52   -44174.247    2691.9889   -46866.236   0.10009959 
  181200    222.27744   -554.92143       132236   -44161.064    2713.2112   -46874.276   0.10114647 
  181400    215.31599   -517.01067    132124.28   -44190.122    2628.2367   -46818.359   0.10594489 
  181600    218.54781   -392.76297    132004.06   -44204.394    2667.6858    -46872.08   0.10330729 
  181800    216.67227   -575.71292    132198.12   -44197.759    2644.7922   -46842.551   0.10165635 
  182000    215.62632   -567.91432    132189.61   -44179.927    2632.0248   -46811.952   0.10246987 
  182200    216.59291   -409.32388     132007.9   -44190.499    2643.8234   -46834.323   0.10267754 
  182400    219.00123   -506.27218    132146.67   -44195.295    2673.2204   -46868.515   0.10098543 
  182600    218.30584   -623.51375     132249.1   -44177.902    2664.7322   -46842.635   0.10459851 
  182800     222.0788   -384.54388    132029.87   -44159.146    2710.7865   -46869.932   0.10096884 
  183000    218.67154    -465.3208    132088.77    -44139.01    2669.1961   -46808.206   0.10527278 
  183200    222.81706   -599.54139    132301.59   -44130.751     2719.798   -46850.549   0.10113917 
  183400    221.58205   -449.42185    132099.22   -44137.555     2704.723   -46842.278   0.10043261 
  183600    220.24674   -389.30726       131998   -44166.764    2688.4236   -46855.188  0.099357723 
  183800    220.77984   -630.92817    132279.19   -44171.476    2694.9308   -46866.407   0.10181251 
  184000     215.3389   -539.66216    132165.45    -44194.28    2628.5164   -46822.796   0.10467789 
  184200    215.52282   -341.02761     131894.9   -44226.976    2630.7615   -46857.738   0.10713691 
  184400    214.01311   -579.92995    132207.58   -44213.606    2612.3333   -46825.939   0.10387736 
  184600    217.91882   -655.95175    132293.91   -44233.236     2660.008   -46893.244   0.09871972 
  184800    219.04261   -259.57053    131842.18   -44222.286    2673.7255   -46896.012  0.099903388 
  185000    215.70767    -472.6206    132082.31    -44219.95    2633.0178   -46852.967  0.099892266 
  185200    216.32273   -800.60264     132445.3   -44249.056    2640.5255   -46889.582   0.10361943 
  185400    214.75024   -325.11279    131894.01   -44237.579     2621.331    -46858.91   0.10482822 
  185600     221.0804   -317.32503    131886.27   -44244.753    2698.5996   -46943.353  0.099560303 
  185800    220.41778   -840.54666    132507.07   -44205.549    2690.5114   -46896.061   0.10117374 
  186000    220.32054   -467.67655    132070.94    -44205.59    2689.3244   -46894.915   0.10039636 
  186200    219.63562   -154.14901       131735   -44192.952     2680.964   -46873.916  0.098549819 
  186400     216.7419   -789.69334    132457.21   -44161.708     2645.642    -46807.35   0.10797566 
  186600    219.50142   -651.39262    132320.24   -44172.161    2679.3259   -46851.487   0.10462653 
  186800    220.35563   -108.72156    131685.73   -44196.348    2689.7527     -46886.1   0.10352092 
  187000    221.90732   -592.28108    132242.15   -44165.203    2708.6933   -46873.897   0.10424582 
  187200    218.13563   -799.81627     132493.2   -44185.683    2662.6545   -46848.338   0.10316367 
  187400    220.67133   -184.24865    131788.42   -44178.145    2693.6063   -46871.751  0.098078694 
  187600    218.26601   -416.33903    132034.87   -44209.167     2664.246   -46873.413  0.099850345 
  187800    218.11511   -822.91405    132535.92   -44204.769    2662.4041   -46867.173   0.10344912 
  188000    215.27219   -383.59956    131988.53   -44187.409    2627.7021   -46815.111   0.10579915 
  188200    218.75772   -291.73773    131893.05   -44168.718    2670.2479   -46838.966   0.10430079 
  188400     220.2609   -735.92856    132433.85   -44156.332    2688.5964   -46844.929   0.10214199 
  188600      215.736   -545.35533    132171.85   -44164.564    2633.3636   -46797.927   0.10053321 
  188800    221.47986   -249.62866    131849.97   -44173.993    2703.4756   -46877.468   0.09993833 
  189000    222.36701   -610.59966    132262.62   -44171.454    2714.3044   -46885.759   0.10178932 
  189200    217.32435   -617.99066    132272.06   -44172.149    2652.7517   -46824.901   0.10500497 
  189400    220.11648   -309.13237    131900.98   -44167.386    2686.8335    -46854.22   0.10730973 
  189600    223.70073   -492.08766    132138.36   -44161.585    2730.5844   -46892.169   0.10151904 
  189800    218.35991   -683.96158    132326.44   -44190.762    2665.3921   -46856.154  0.099539944 
  190000    219.86726   -377.23901    131989.38    -44210.08    2683.7915   -46893.872   0.10011206 
  190200    218.04239   -410.96914    132029.62   -44194.985    2661.5163   -46856.502   0.10321818 
  190400    217.31468    -656.0545     132309.4   -44195.466    2652.6336     -46848.1    0.1054917 
  190600    219.51337   -489.67826    132085.26   -44161.233    2679.4718   -46840.704    0.1062195 
  190800    222.55869   -380.54967    131988.67   -44158.287    2716.6442   -46874.932   0.10288254 
  191000    221.43669   -601.82302    132247.65   -44187.291    2702.9486    -46890.24  0.097493925 
  191200    218.21099   -554.77246    132147.65    -44193.62    2663.5743   -46857.194   0.10284031 
  191400     218.3796   -381.80787    131963.36   -44202.496    2665.6325   -46868.128   0.10369105 
  191600    219.21642   -581.10033    132187.25   -44160.248    2675.8471   -46836.095   0.10497376 
  191800    220.01391   -564.70102    132205.98   -44186.568    2685.5816    -46872.15   0.10568262 
  192000    216.73795   -386.14625    131971.77   -44198.363    2645.5938   -46843.957    0.1056169 
  192200    218.79376   -472.65514    132118.23   -44170.909    2670.6879   -46841.597   0.10159635 
  192400    214.44543   -626.50158     132263.9   -44171.093    2617.6104   -46788.704   0.10612394 
  192600    219.55187   -388.28479    132012.47   -44203.399    2679.9417    -46883.34  0.098278836 
  192800    220.65299   -417.13424    132022.45   -44185.291    2693.3824   -46878.673   0.10420761 
  193000    220.31758   -638.76805    132276.94   -44176.191    2689.2883   -46865.479   0.10631729 
  193200     218.9587   -474.37501    132102.63   -44155.645    2672.7013   -46828.346   0.10528738 
  193400    221.01818   -367.92888    131997.17   -44145.922    2697.8401   -46843.763   0.10137692 
  193600    223.85552   -597.42687     132272.1   -44162.904    2732.4739   -46895.377  0.099321817 
  193800    220.24849    -542.1057    132189.96   -44181.196     2688.445   -46869.641   0.09977384 
  194000    217.47294   -362.43347    131940.94   -44211.553    2654.5654   -46866.118   0.10320759 
  194200    217.32513   -549.30319    132167.94   -44190.487    2652.7612   -46843.248    0.1069125 
  194400    214.98751   -638.81532    132251.32    -44184.69    2624.2273   -46808.917   0.10918025 
  194600    216.34578   -363.61665    131964.89   -44187.987    2640.8069   -46828.794   0.10436418 
  194800    216.21706   -481.18488     132104.4   -44191.638    2639.2356   -46830.873    0.1030344 
  195000    221.69747   -654.17217    132317.52   -44174.672    2706.1318   -46880.804  0.099916653 
  195200    218.43244   -406.64916    132025.08   -44154.094    2666.2775   -46820.371   0.10361752 
  195400    218.52067   -397.55538    132011.82    -44170.88    2667.3545   -46838.234   0.10421619 
  195600    218.68348   -704.32544    132336.46   -44173.815    2669.3418   -46843.157   0.10601071 
  195800    215.13957   -509.93581    132117.62   -44203.232    2626.0833   -46829.315   0.10486721 
  196000    218.18607   -314.44978    131909.21   -44192.884    2663.2701   -46856.154   0.10400097 
  196200    222.51718    -633.1224    132271.37   -44163.492    2716.1375    -46879.63   0.10084943 
  196400    221.17586   -577.77306    132235.39   -44180.364    2699.7648   -46880.128   0.10111037 
  196600    216.53819   -314.56486    131890.28   -44218.015    2643.1555    -46861.17   0.10556743 
  196800    217.45596   -544.13537    132127.08   -44207.181    2654.3582    -46861.54   0.10657857 
  197000     215.9084   -659.08856    132285.93   -44210.975     2635.468   -46846.443   0.10673616 
  197200    219.21968   -378.33261    131944.53   -44241.527    2675.8869   -46917.414   0.10551455 
  197400    215.60472   -415.02667    131991.32   -44236.737    2631.7611   -46868.498   0.09980762 
  197600    217.36094   -659.93032    132312.24   -44182.922    2653.1982    -46836.12  0.099982166 
  197800    219.12566   -477.67226     132082.4   -44160.014    2674.7392   -46834.753   0.10574824 
  198000    216.59695   -358.53278    131932.11   -44179.903    2643.8727   -46823.776   0.10617013 
  198200    215.10881    -626.3632    132260.59   -44195.568    2625.7078   -46821.275   0.10596111 
  198400    225.19992    -564.0013    132193.44   -44151.802    2748.8842   -46900.686   0.10528698 
  198600    215.95654   -313.01518    131912.41   -44135.032    2636.0556   -46771.088   0.10298767 
  198800    220.89208   -579.36672    132186.37   -44161.791    2696.3009   -46858.092   0.10178576 
  199000    220.52935   -642.36645     132274.3   -44153.109    2691.8732   -46844.982   0.10408831 
  199200    219.82642   -347.86642     131925.3   -44162.217     2683.293    -46845.51   0.10534987 
  199400    221.42243   -448.74263    132058.96   -44166.825    2702.7746   -46869.599    0.1037613 
  199600    217.35113   -675.80569    132316.52   -44183.168    2653.0785   -46836.247   0.10651879 
  199800    219.00415   -407.25312    131988.53   -44169.877     2673.256   -46843.133   0.10471343 
  200000    224.35566   -346.01663    131970.65   -44173.179    2738.5788   -46911.758   0.10003279 
Loop time of 102.718 on 6 procs for 200000 steps with 4096 atoms

Performance: 841.137 ns/day, 0.029 hours/ns, 1947.077 timesteps/s
97.5% CPU use with 6 MPI tasks x no OpenMP threads

MPI task timing breakdown:
Section |  min time  |  avg time  |  max time  |%varavg| %total
---------------------------------------------------------------
Pair    | 65.765     | 67.512     | 69.6       |  17.3 | 65.73
Neigh   | 8.2288     | 8.3582     | 8.5915     |   5.5 |  8.14
Comm    | 14.101     | 16.369     | 18.123     |  37.5 | 15.94
Output  | 2.9502     | 2.9517     | 2.9584     |   0.2 |  2.87
Modify  | 5.9106     | 5.9293     | 5.9719     |   0.9 |  5.77
Other   |            | 1.598      |            |       |  1.56

Nlocal:        682.667 ave         714 max         666 min
Histogram: 1 2 1 0 0 1 0 0 0 1
Nghost:        1373.00 ave        1415 max        1352 min
Histogram: 3 0 1 0 0 0 0 1 0 1
Neighs:        0.00000 ave           0 max           0 min
Histogram: 6 0 0 0 0 0 0 0 0 0
FullNghs:      19370.3 ave       20289 max       18914 min
Histogram: 2 1 1 0 0 1 0 0 0 1

Total # of neighbors = 116222
Ave neighs/atom = 28.374512
Neighbor list builds = 8962
Dangerous builds = 0

Total wall time: 0:02:33
