LAMMPS data file via write_data, version 29 Oct 2020, timestep = 800000

4175 atoms
1 atom types

-0.09714468284540345 50.09714468284146 xlo xhi
-0.09714468284540345 50.09714468284146 ylo yhi
-0.09714468284540345 50.09714468284146 zlo zhi

Masses

1 18.015

Atoms # atomic

543 1 49.120758758495356 3.8408221045013757 1.3706433790421186 -1 0 0
3503 1 4.766448174264467 2.395215439201575 2.033899563032692 1 0 -1
634 1 36.742205176857006 24.456878866337842 2.962263925159459 -1 -1 0
3489 1 14.49838190221759 1.8431935417063472 1.053166499488023 0 1 1
3287 1 17.20566939931536 1.1874201399034152 2.14544834411886 1 1 1
1134 1 0.7701330947673362 21.161308218492355 13.07004572388168 1 -1 0
3328 1 21.465221069181172 3.038877216172352 0.18396645940531475 1 0 1
661 1 22.89233230493329 2.795278312442262 2.6568758069845995 0 1 0
1058 1 11.04944931546741 2.7543818357452814 0.236321598012238 -1 0 1
1292 1 12.660056359828985 24.32115221789017 6.26770152795696 0 -1 -1
55 1 28.136813648041755 2.1217199855541513 3.703894292606476 0 1 1
2114 1 2.7141771637364824 8.395700248451329 2.451841301252829 1 1 1
3554 1 41.98324311214407 18.46009655854695 0.0833806103306958 0 1 1
2206 1 29.31993490663369 24.984497398996282 9.863169376006947 -1 0 0
623 1 20.740071115386424 24.360300736697777 0.25993979097287373 0 0 -1
3255 1 42.133966752343696 24.661514991434924 13.458383206068865 -2 0 1
3876 1 7.6230322118788205 6.805952114504522 -0.0785019406977781 0 0 2
1192 1 48.49683674797493 17.723478892220292 0.5436824787191336 -1 0 1
845 1 7.8061199259037535 2.625127723178638 3.2678783429688734 0 0 0
1638 1 10.47517946251898 3.130178016060087 2.795844748616819 0 0 0
1471 1 1.9155070585389398 11.474559293581759 0.3399872422000719 1 -1 0
3571 1 16.229690894711737 5.136065503506179 1.9209978095850966 0 1 1
1544 1 20.359461694221515 5.482024592120992 0.6768750585247566 0 0 1
2233 1 25.080909515105503 4.906862715524424 2.719205310886844 0 1 1
1748 1 28.078133516423218 4.647239839577352 2.3884377947561632 0 0 1
3985 1 12.352449546487012 14.548688744598214 16.293593286928083 0 1 1
2593 1 24.597856178775032 0.7221571471409534 1.94957469144415 1 1 1
9 1 32.22839370022199 2.922885462385492 2.209521720631602 0 0 0
3232 1 35.851732076373565 4.449164191303035 0.9166181416288297 0 1 0
3485 1 34.88078485222659 3.3525622927132654 3.1941813545812163 -1 0 1
2148 1 41.907534368735064 3.9985330482596773 4.140241572454155 0 1 0
2220 1 37.34089745951725 24.023223027869378 5.803438906480517 0 1 1
1164 1 43.055361405027156 0.9050299124554233 3.506632959236291 0 0 2
2119 1 19.980326244841137 23.978389268055874 2.7298527551649436 0 0 0
6 1 18.760977716393796 0.6623064649115165 11.087246130620263 0 1 0
2016 1 3.0414231349264185 5.946875673983053 0.09877736512602639 0 1 1
2525 1 23.379064407222018 0.8853343489291462 7.976226443160423 0 1 1
3467 1 22.832417280706846 2.6165465328304647 15.495934090773357 0 1 0
1110 1 5.3935616134851285 5.272027613590875 1.2846060814907918 0 1 0
2889 1 13.586999138738378 4.351933091180028 0.8224497630572961 -1 1 0
2044 1 15.322555577569227 7.392055608518921 2.7626600225790012 0 0 1
1751 1 17.616529957064394 8.558115691653235 3.7989418086430025 0 1 1
2777 1 24.142271884489258 7.464135466306392 2.523925060051698 0 1 0
832 1 28.64320593485669 9.476692160637597 0.47192197606929165 0 1 1
622 1 26.69862693018077 8.713699759978244 2.3890207537351853 1 0 0
1643 1 30.734318837720387 5.2627303509443 1.9633494533446338 0 0 0
205 1 31.98132579098825 8.143314827915928 1.907453357060842 0 0 0
1050 1 34.61097611446469 8.451623540071608 2.446654890724301 0 1 1
882 1 36.801745893847084 6.9770236989094645 1.2957038335551712 1 0 0
641 1 31.36356317817634 21.801215488189897 1.6817281519156335 0 0 0
1028 1 37.70631189300126 7.810805084170952 4.131465787483382 1 1 0
4032 1 43.388492754206744 7.231039086154063 1.6386718732145584 0 -1 1
681 1 44.57090689191548 5.360416747354557 4.080372270994851 1 0 1
3227 1 46.22033884705397 7.309049251974156 2.1443072190326573 -2 0 1
1912 1 42.43122581028881 4.766270366512387 0.30794711910825034 -1 0 2
947 1 1.3857173064814818 10.50643919010293 3.5847188624850004 0 -1 1
3044 1 10.75637804357138 17.848525779170206 15.637081326221503 0 0 1
1683 1 6.38468823687805 9.108018535571514 -0.009353834405170916 0 1 0
2244 1 10.934946913074294 13.332930154278763 2.1081172478626855 1 0 0
3721 1 18.255887052130074 9.656907933448919 1.1786753040188007 0 2 1
919 1 17.871029004431872 12.294811549985795 0.5074659139387279 -1 0 1
2646 1 21.015956089223632 24.875436532404517 15.131230743406828 0 0 -1
1210 1 22.86760615074622 10.555021609250284 2.875061787442316 1 0 0
3447 1 8.273479245692553 16.697150073962966 0.9431889945060488 0 0 0
330 1 30.910406902638695 11.190718946919063 1.32027252422966 0 0 1
1162 1 33.03580496742556 24.75878058241466 7.0334919979465855 -1 1 0
3403 1 41.654252192256074 9.595268619148749 1.9179440816940527 -1 1 1
952 1 43.62839313743686 11.543891933666416 2.767430256895343 1 0 0
2085 1 45.878922778353235 10.311194318798295 1.7716441266178646 -1 1 1
212 1 21.41665373116421 20.401169245340835 0.2345604136712054 1 0 1
945 1 49.063166115205014 10.631304193991818 2.046780935001943 0 0 1
819 1 1.7234682053719825 13.10725264891252 3.8066332940051493 1 0 0
2332 1 4.000845871739908 12.974983259461172 2.1084902069454716 0 1 1
3474 1 6.303315053122565 11.406242597057004 1.8612345220705617 0 0 0
4120 1 8.320448398998444 13.9784302874789 0.36073485281746187 0 1 1
3776 1 21.187660994958524 10.057994586908672 0.5640329597120751 0 1 1
126 1 15.322286816745406 12.949644116878611 1.1257264220234093 0 1 0
3181 1 19.28608177408849 14.149570984772307 2.2321163861096154 0 0 0
4157 1 21.883126328550414 14.51264027246747 1.4001743186445899 0 2 0
3064 1 24.35461060388932 12.723735568220164 1.6417189897319409 -1 0 1
3750 1 25.964794387247178 14.262160467866225 3.6569204551643457 0 1 1
3108 1 29.17484707741834 16.238117651200458 2.2129043196303995 -1 1 0
883 1 31.43040745109325 15.23643462255628 1.0192626567222203 0 1 2
3273 1 34.31217839221641 15.620585918154598 0.5770378712889832 -1 0 0
2572 1 2.8090060931186662 24.598888273915705 13.113498420581612 -1 0 0
3222 1 35.886999120536345 13.677876481840928 6.472516063761394 -1 0 1
3795 1 40.41605485482567 16.215891945371073 0.9949334286817135 0 1 2
1489 1 37.926598266565094 14.112650077993985 4.376322483705913 -1 0 2
1516 1 43.833784067751544 14.13187859607858 1.9090151045058263 1 0 0
2649 1 43.180659551424185 16.720422423673053 2.5994341415650184 0 0 0
1938 1 38.12961094060123 22.826870084988304 1.6686526701037612 -1 0 0
1729 1 49.051541173231364 13.225370658227437 1.5720937902506396 0 0 1
1113 1 13.031613414225088 0.47368953435813554 2.87513680090579 1 1 0
3347 1 5.0979873833728275 15.643308211264207 2.7926502200557346 1 0 0
2314 1 5.54319159130266 17.871148371364995 1.0832340504612212 1 0 0
2901 1 9.228898832588172 16.674212500190475 3.4512223897198053 0 0 1
1133 1 13.705913473739443 17.095018904415703 1.1945019979237028 0 0 1
184 1 16.16007588149407 15.68417202468592 1.3207374993832364 0 0 -1
2628 1 22.309874314219147 16.768361915307228 2.9621100327868817 0 1 0
1490 1 24.34566456116715 17.945551930422305 1.4237766269462955 0 0 2
442 1 26.618307885149544 15.788628434446686 0.9821852247921437 0 1 0
2401 1 29.269123412734533 18.470558301493195 3.4766227188463676 0 1 -1
3006 1 37.202730660460716 17.46497149580522 2.3412262385842055 0 1 0
3147 1 3.300615094113659 15.209515624975706 0.27524656478663007 -1 0 0
2845 1 31.14297564926959 23.84380944089138 13.67848601284076 0 -1 1
1072 1 47.75520900681579 0.06852897337674935 0.3002388547984752 1 1 0
305 1 25.90052597845781 20.27041519788005 15.965108013969996 1 -1 0
1936 1 5.334344667295224 20.251832954583573 2.4482548877048185 0 0 1
2305 1 14.197180748689366 24.841883714548846 14.54589802576156 2 1 0
2824 1 22.667633697673484 7.465953071872936 0.3007718182277265 1 1 1
1551 1 0.8829169020342061 17.205301748143405 0.4218280213494148 1 0 1
3840 1 14.783019565334104 19.38736675674161 1.8373423692151511 0 1 1
646 1 17.249722358677072 20.137662388676482 0.7774975742095559 0 1 0
3308 1 18.19980199417938 24.86364593475801 4.833777127803123 0 1 -1
3809 1 19.53942513692984 18.69650191518872 1.1593798581564072 0 1 0
2474 1 24.645050380840296 20.170636788181827 2.766428239367803 0 0 0
3091 1 27.5775571036789 20.286069494601506 2.0657642554316187 -1 0 0
3192 1 33.08569277252547 19.396177547518793 1.1746151651772458 0 0 0
2275 1 39.05388396429789 20.233562072814152 3.7420634044537993 0 1 0
2201 1 37.34896720847956 19.93325157360895 1.0834605006212508 1 1 0
3279 1 41.982807569647655 20.423729492610804 2.4280713817454282 -1 0 0
3101 1 40.93866891778711 22.843088272408686 1.9067279954812926 0 1 0
2048 1 46.30503351391118 21.064789816193105 3.1463472247573456 0 0 1
2173 1 3.1247453242090475 21.453835661859948 0.8909899665394018 1 0 0
3498 1 19.2254156406628 13.697145587224579 15.423381639110701 0 -1 0
2060 1 27.32108987992459 1.2719707459002378 1.0663609692788927 0 1 1
3845 1 13.29221050766757 21.80856280701079 2.3068795006704903 0 1 1
2615 1 43.134299982029475 22.81921297922299 16.041770898612807 0 2 0
4073 1 17.61483926747025 22.54816144717458 1.8203954670254299 0 1 0
155 1 42.969333107457174 19.795095684308063 13.302343012555928 -1 0 0
629 1 18.849963214808486 23.234039633813495 14.267722958537412 1 0 0
2003 1 23.130975834250265 22.049420706473466 1.5770966410113687 0 0 1
1068 1 29.98518735550733 24.575470405716484 6.895029564033696 0 0 1
1718 1 11.618888260253208 0.7252834599752073 16.597826765421548 0 1 1
3142 1 29.06180031915437 22.552552973735317 3.230365235635885 0 0 1
2960 1 35.044182164717036 21.406117723429446 1.7901418164978218 0 1 0
2025 1 48.41370215341042 6.4298897766131775 0.5011443075434832 1 0 0
3826 1 21.269650301299624 1.7533231093165227 12.135315213646654 0 1 0
1829 1 44.2649744533373 20.75324264305524 0.9619852904095127 0 -1 0
3916 1 7.748705495377688 23.635247161392293 12.173345189071766 1 0 1
933 1 0.5087872097887962 20.95365383575789 2.2812613880999275 0 -1 1
1298 1 48.08505638866038 20.38961196264332 1.1603355341723671 0 -1 0
2989 1 7.450849156860323 0.6426994503297797 1.3861733706383705 0 1 0
648 1 12.417088550289533 2.0538402075529327 4.8765412990006975 0 0 0
4089 1 9.564302930624356 24.96679029488069 16.471553567037198 0 0 2
3530 1 21.260982837317414 1.6876304408151688 4.82269048312575 0 1 1
541 1 24.103438727132747 2.576690497881274 5.789737402167345 0 0 0
1217 1 26.452692229506518 1.268232057010217 6.002546174217292 0 0 0
2264 1 30.86578936617874 1.4445304710726017 4.244817284071494 0 1 0
726 1 30.62452991241766 2.989997245912701 6.669718974814532 0 1 1
3438 1 47.06824063621982 0.875548730074107 16.579824283302013 -1 1 0
2306 1 37.53302122583226 1.9000970286436605 4.207735912722615 -1 1 0
1565 1 39.2824494067402 5.695863154820515 2.281808349619148 -1 0 1
2516 1 47.818069024122316 23.963719499330676 0.24674016870373094 1 0 0
3314 1 41.66482771246194 2.63563252426401 1.5625521291659663 -1 0 1
3269 1 2.778063875414278 0.01508738901504035 4.597357235159564 0 0 0
3599 1 33.24873271666735 23.929846111763066 12.106452518083726 -1 1 1
3037 1 0.2524468627413486 2.6637355345139606 5.864795335900412 1 0 0
1186 1 2.7116020708116597 3.002206989405197 4.576303488883836 1 0 0
2171 1 1.5524902147383908 3.278765491065655 1.855275802590905 0 0 0
287 1 5.306874893432032 2.707918783312919 6.0087574889200175 1 0 0
717 1 7.757215105452067 0.8895287560827448 5.4860156181615585 0 0 0
99 1 15.161538238206461 2.99696953650371 5.5714203100317174 0 0 0
2614 1 14.87082651494496 5.612494627945259 6.690542613048021 0 0 1
138 1 17.22150451800539 3.2966605126630135 3.75527385836314 0 1 0
1082 1 19.59430147088704 4.024918378753019 4.572153352046691 0 0 0
3547 1 22.284008467060914 6.590484408060774 7.005861613311987 0 1 1
1762 1 24.346943206849616 5.2816426351024015 5.513138559065126 0 1 0
2595 1 26.708463021754987 6.252339234842712 6.432492645632254 -1 0 0
2195 1 31.917613877768467 5.159095224231825 6.185928721772294 0 2 0
480 1 34.73159501916906 5.016392711643823 5.563534176872282 0 -1 0
3124 1 35.594677001331476 2.7402306289098455 7.3016762630092495 0 0 1
3278 1 38.778493753278234 3.004412748933474 1.9181867499380902 0 1 -2
396 1 46.43680713944798 3.538207009059485 5.651863366322001 0 -1 0
2239 1 47.5328501596555 2.621523197242828 3.1889060418344473 -1 3 0
2183 1 1.4198060640941015 5.964558167230451 2.579399608914062 0 1 1
1366 1 2.95638127394198 5.9040746082560815 5.109138385310496 1 0 0
2683 1 13.142378684063175 6.841945625930548 4.621939174474349 1 0 1
2095 1 10.615009478635198 5.994784590840794 3.1644454688727435 0 0 0
1747 1 19.736992794169037 6.582291079117433 3.259821670967751 -1 0 1
172 1 22.116136972677875 7.873951576560756 4.432600595054687 0 0 0
1711 1 27.97466739131387 7.186390204946851 4.22286463717178 0 0 1
1776 1 30.488327590423314 6.836833612532264 4.412381813012499 0 0 1
2506 1 30.65800537034307 9.80532917752294 4.474707485260483 1 0 0
3307 1 35.077033247643236 7.838906083170471 5.327667310197348 -1 2 0
3265 1 37.74661574980924 4.646509628519063 4.949603319176287 1 -1 0
851 1 41.21598480171725 6.967477404066289 3.8438546329774415 0 0 1
3814 1 42.54836369201871 8.003315441585283 6.1487333704980225 0 1 1
4 1 45.26808281348848 7.614069524758456 5.2922407790285995 0 0 0
2844 1 48.95701080057343 6.904752433791798 3.604545651702389 0 1 1
2442 1 48.895290196797696 5.328855360670856 5.725568369589224 0 1 0
3796 1 48.7823279719866 9.686184160859844 4.749253992827044 -2 1 2
2169 1 5.272389072952218 9.546427659742205 3.8630221219819525 0 1 0
725 1 5.557328471306264 6.255044968938643 3.9276569840886806 0 1 0
3698 1 9.591110896180416 8.077044514605625 1.68222636196254 0 1 1
117 1 12.879285828374213 9.290230802308946 2.4872078402322484 0 1 1
3890 1 16.991551574873636 11.186366834589743 4.95931928469991 1 1 1
1291 1 21.458703442142077 11.528782786192709 4.927070916352486 0 0 0
2115 1 21.51032345149001 9.485088905407283 6.995974520380324 0 0 1
1388 1 25.788221339074976 11.010655630907172 3.844313399715851 0 0 1
3343 1 25.383260189857275 11.61083901339796 6.4144476781616815 0 1 0
3387 1 28.59044701705804 11.18011869009447 3.3950379381919777 0 0 -1
1304 1 31.787951552254363 13.318956824831305 3.125317738644768 0 1 1
3110 1 32.95391633123274 11.028326504880296 5.670732800414179 -1 1 1
2581 1 35.67991925016858 11.248876297632883 2.2963051091481104 -1 1 0
3740 1 38.54806505455881 12.117313495014741 2.681770329360119 -1 1 0
3046 1 39.49106279349471 9.835421091449444 3.732306217889422 0 0 1
2248 1 40.00478272198578 10.789251848614084 6.284893114954902 0 0 -1
3358 1 43.40310143058044 12.47146564449605 5.431944362427281 0 1 1
1343 1 46.14802564755653 10.380203735479158 4.593329149531982 0 0 1
1923 1 3.6076464365403687 12.862721341687122 5.853971107652935 1 0 2
2653 1 4.794308253171338 7.935629302464406 6.634144379817854 0 0 1
3678 1 7.966155134798504 12.686255832912012 3.1860975233950546 1 1 2
325 1 12.439853367662275 13.088352159665325 4.623270257392472 -1 0 0
3697 1 14.525138494016739 11.432721959218904 3.462961498560419 0 1 0
3833 1 15.353501183034476 12.612524529006999 7.209077000375262 1 0 1
3299 1 19.31245075731625 12.92841116169048 4.7430016898073335 -1 0 -1
2096 1 23.151788659193915 13.494080345507589 6.065311474068126 0 0 1
1205 1 23.80555533258578 15.677242810010506 4.916302593033339 0 -1 0
2791 1 28.966011867631984 13.933738537306423 4.130970682199273 -1 0 0
894 1 29.044186984688693 15.09840989561208 6.646926526903843 0 0 0
524 1 31.76444846319788 14.187891279004967 6.11504382677988 0 0 0
685 1 34.46112859691723 12.74288496841362 3.9152877481886783 0 0 1
1263 1 35.2276959938074 15.380622526614403 3.34128276033826 0 0 1
2668 1 35.22057106656151 11.35507490949871 8.208604386091503 -1 0 0
3266 1 41.89952234907855 15.193384793095577 5.039700231487746 0 1 0
2268 1 46.203920352250876 12.879599784206825 5.911587295465244 0 2 0
3031 1 47.671382426902696 14.263282249330782 4.108804383839709 0 1 1
3268 1 3.42343888634344 16.850921279890994 4.718853618036725 0 0 0
529 1 7.490284954685803 15.171805168307841 4.840600493988407 0 0 0
1067 1 9.376734621373352 14.979707889008452 7.325755847921965 0 0 0
62 1 11.883288443582495 15.871685783742752 2.8742654879990677 0 1 0
1131 1 15.507313567691615 15.289751018034229 5.928575308151535 0 1 1
3575 1 17.304351520113215 16.075880947175136 3.8014039452418356 0 0 1
535 1 21.238536685196216 16.602742279583975 6.328178095341582 1 -1 0
3366 1 19.6524857840183 17.944533522293085 3.8357110800364467 0 1 0
308 1 25.411595122064604 17.681991441543875 6.214199228671489 1 -1 1
1934 1 28.123718208148944 17.779178568142843 6.039066819597047 1 -1 2
3368 1 34.14539946853223 17.78686779191541 4.781268822143857 0 0 0
1155 1 34.05136231839088 15.594486349374057 6.842388682701795 0 1 0
1593 1 36.530356606187475 19.284664303207027 5.0631136362523925 0 -1 0
3544 1 39.79385305713257 16.267449259104605 3.7408147561827656 0 1 0
269 1 42.469209996644025 16.822154030357463 7.569789863835703 -1 0 0
2953 1 46.68888501710659 16.811817680246126 3.8801474605512714 -1 0 0
319 1 45.15760758860572 18.61972137577153 6.862884966659919 0 0 0
3125 1 44.89997579399896 16.023967942224903 5.734067639334087 -1 1 1
3396 1 0.2192353274189192 14.497699604695722 5.447155742061145 1 0 1
579 1 49.3195240242008 17.24736960818008 4.982803033596061 -1 1 0
2529 1 0.9065953061069623 18.3354065046702 3.208420335987539 0 0 0
683 1 4.434779059056014 19.421182780791412 5.144847281091048 0 0 -1
3952 1 7.004466902900272 19.06923909308688 6.350318205866392 0 0 0
4023 1 9.136491125275672 19.19742727646838 4.519689218758909 0 1 1
3870 1 10.959211645489457 20.163945993900906 6.117846061460671 0 0 1
595 1 16.39777060365643 18.773283557566412 4.280223875339496 0 0 0
812 1 17.788968018280364 21.618466457934712 4.568887784305685 0 0 0
698 1 20.422015281772534 20.45290040287372 5.249434194087134 0 0 -1
924 1 23.055897715649106 19.4131373961136 4.958634513493109 1 0 1
2004 1 31.87020524711841 19.136855850604427 3.762929043084857 1 0 0
4063 1 31.559135701758105 21.124603977303003 5.842040650668184 0 0 0
10 1 40.00793959983939 22.18796287421412 5.2457704388239055 1 0 0
244 1 42.95431971190502 20.259948279187487 7.6998610222869655 0 -1 0
2896 1 42.64736173899577 21.367462185602573 5.370507587178678 0 0 0
3297 1 44.34574394123135 19.219248196861646 4.17200067533538 -1 1 0
3897 1 1.5440564700050183 19.54254358044062 5.945282947731016 0 1 1
964 1 4.239300321453415 23.383781556786648 3.004570630700451 0 -1 1
1268 1 8.128765579916601 21.007360168786786 2.6036618940571903 0 0 0
1789 1 45.43163055763272 4.485959975371235 1.4727234790958974 -1 0 1
1982 1 9.004135341826968 23.35742217935973 4.00180290451103 0 0 1
2045 1 11.536983575577873 22.446360795437904 4.494631581313918 0 0 1
2362 1 16.53832865844771 18.85517132917694 16.097725695895445 1 0 0
3868 1 15.227684477341468 23.689271158931646 2.9755611624150857 1 0 1
127 1 19.14452499341066 23.433558658913096 7.2182324940161156 -1 0 1
3609 1 21.855235979932072 22.44831634966082 3.9522433840728457 0 1 1
511 1 26.197676118540237 21.748867081796995 4.776917591361866 0 0 -1
3894 1 28.989964422561407 21.90535464858229 6.22470401715687 0 0 2
969 1 33.1547628390485 22.764506504825576 3.635719087827148 -1 -1 1
2779 1 33.85327529027503 21.96761055425865 7.258872201059875 -1 0 0
644 1 35.81181937130145 22.02194433763097 4.77155251907292 0 0 0
2107 1 45.82496614694071 0.921812423160375 2.0136025264133655 0 1 0
3967 1 41.28215966249297 24.724086796281064 3.8005081493256423 -1 0 0
2105 1 46.254421149769044 23.696555260003002 4.06564806136553 -2 -1 2
2283 1 49.82597302656105 21.924491708592022 5.011054138999211 0 0 0
3292 1 34.729264063833156 23.934214825643387 16.518620550876236 1 0 1
3217 1 50.01618968587572 1.1697007397461974 8.465778553686128 -1 1 1
3300 1 5.46408437610842 2.8354866037316735 8.900573904924832 0 0 0
2481 1 10.251171828698222 1.8069360632287905 6.743166305729344 0 0 0
366 1 10.948721456114477 0.2672843423815246 8.94245897406318 1 0 0
667 1 15.204879307876197 2.2746477741661266 8.208698641853559 1 1 0
1321 1 20.684254606079094 1.1184866374720641 7.677840333538764 0 0 -1
2221 1 19.899346145776146 3.4364451997243135 8.756124682722517 -1 1 -1
2494 1 6.331769541208765 23.209734178498813 0.5275122691794487 0 0 0
478 1 27.468515514977057 3.3390957139378368 9.659437195007644 -1 1 1
1384 1 27.750097300391463 3.6848839490347993 6.7814279411083795 0 0 1
3540 1 4.307194490789408 22.669147480727872 5.562212599012791 1 1 0
4129 1 31.704181442299017 1.5408386440507806 8.97713262176894 -1 0 0
277 1 38.33142059020672 1.2051398097807784 10.437153117958635 0 -1 0
1994 1 40.6390223132936 1.868043473540947 11.586900549739648 0 1 0
1333 1 44.49480876244061 1.7231074607668466 5.6833432851022785 -1 0 1
4161 1 46.48793820676872 2.694432580335292 8.581744381796092 -1 1 1
2906 1 1.7143762624695917 8.416587692557245 8.973464702074427 1 2 0
2976 1 2.3415563324056854 3.0375765146204077 8.36186640397355 0 2 0
1547 1 9.40120215156498 6.614488712917567 5.654793379149976 2 0 1
2349 1 10.041875381331382 4.334226425156203 8.219018506712064 0 1 -1
850 1 12.989732883858096 5.665752981917436 8.87075757660152 0 0 1
1860 1 17.465488545121577 3.462055998255556 9.913433807519189 0 0 0
78 1 19.924055768922564 5.508638925975179 7.069434079473868 -1 0 0
4060 1 26.291386149617516 7.344980489132342 9.334677468482129 1 1 -1
4127 1 32.488505683952056 5.904963928159095 8.740242619921846 1 1 1
1794 1 33.76352021843119 3.4393959950136845 9.184070380136685 0 0 1
923 1 38.02187675605084 2.8538544954696383 8.5456589593014 1 1 1
2490 1 39.56603092880089 2.0170879602742784 6.454720266158347 -1 0 0
2923 1 45.44020444485689 5.111214603333637 9.060518110139798 -1 1 0
3512 1 48.90786361973926 0.7907016825241973 4.8328868560582015 1 1 2
4052 1 0.7958846491491783 5.787697424402573 7.804096103989595 1 1 1
1157 1 7.45805066826298 4.80155934371324 5.386335441914093 0 0 1
3242 1 10.396394762478616 8.580652161356328 10.874254655847043 1 0 0
2080 1 10.71351620834114 7.213779446331548 8.27111532870428 -1 1 0
2916 1 17.063991285591182 9.458455314053595 7.196497640507691 0 0 -1
3493 1 17.389615015964072 6.836728559533531 6.710089191294542 1 1 0
1850 1 23.53018463552561 7.862457954569089 9.188744179196307 0 0 1
1311 1 28.22734100006389 9.357797368154346 9.120681221041961 0 0 0
2441 1 34.27714346783816 7.788704660622223 9.820331580458333 0 1 -1
1619 1 37.276957593237135 5.781987706376923 7.886692724225 1 1 0
956 1 36.23642295700955 8.328809644815104 7.920496337095129 0 0 1
54 1 40.55511421119224 4.628214671887717 6.719250896716451 0 0 0
3644 1 42.50022874632189 4.871675356364891 8.99987974452031 0 1 1
503 1 39.5657921053082 7.949461901449617 9.221749111978433 0 1 0
1081 1 42.63262907182561 7.72065268033258 9.023705325323201 -1 0 1
3051 1 49.44697523160025 10.056685009650614 7.377434378183445 0 1 1
2343 1 2.4212267670409964 9.58837004470878 6.431155901883689 1 0 0
1935 1 6.9162470959280355 9.575782132868339 7.513080039690491 0 0 1
830 1 8.278713383014324 9.0170839137916 4.633608832605398 1 0 0
3869 1 7.821366699520502 7.524057220239073 9.780964506284413 0 0 1
2066 1 10.185717146278302 10.651968622713108 3.336693426821872 0 0 1
703 1 12.544407624756166 8.824826729910745 6.376889287997597 0 -1 1
3710 1 19.42245039248469 9.711314205865879 8.716053973493343 0 -1 1
3696 1 23.644992814138686 10.68877225267656 8.539876458699863 0 0 1
4163 1 28.39055409011331 10.958699022258621 6.743177334824243 0 0 0
2830 1 31.035111267495974 11.957450894142383 7.766501721985285 0 0 1
204 1 32.73370000877873 10.323441641845298 9.383345760710652 -1 1 0
2099 1 38.10002826197393 10.368501567214889 8.275693403057392 0 0 2
3946 1 39.51738109227401 7.073703732675771 6.4071720241805314 0 1 1
2840 1 42.78338458647858 10.833041987039984 7.278441227936749 0 0 -1
1995 1 47.752491291929346 12.310664479536422 8.11808431445136 0 0 0
2924 1 50.06342467250967 13.791085630967004 8.4149313255794 0 0 0
3425 1 6.225806135392753 12.000324285505199 5.70235781249634 1 0 3
3918 1 11.354455208055 11.28732933216543 6.089746117250934 0 1 1
3627 1 9.067155879520854 12.239116068693429 7.200733732594053 0 1 1
2160 1 12.78071300505469 11.956962066850934 8.018939274121365 1 0 -1
2113 1 12.216147062853418 14.590277886650584 7.277199845778556 1 1 0
2689 1 19.03859501497643 12.829002681276421 8.634127748677617 0 1 0
246 1 18.989807631823474 14.846110410252747 6.804037226151938 1 0 0
3846 1 24.777912597279116 15.846391117244586 8.314735710319333 1 1 1
2604 1 26.53148421312049 13.849552993835951 7.551327352010039 1 1 -1
1624 1 30.9876207996723 19.03495813007917 7.461192045865479 0 -1 1
1277 1 35.81291762705942 13.071385187097231 10.48219979774676 1 0 -1
3270 1 35.09450840496086 15.523595097893741 9.742404683714058 0 0 1
1463 1 39.433399019652235 14.847610183790843 10.17446984500351 -1 0 1
3237 1 38.081176671513745 15.511818099814484 7.761594448064533 -2 0 -1
2108 1 40.14947158906217 13.836206896151456 6.751055849076967 1 1 1
3577 1 41.686619582444806 13.830927308527704 9.428009683308325 0 0 0
3414 1 42.5962631650213 11.135523255564422 9.952817796687226 -1 0 0
1444 1 45.77330619016256 14.914778899492742 8.167797134334316 0 1 2
3929 1 46.53948772312604 11.271390332895946 10.633233966575311 0 2 1
224 1 2.6075477756662995 15.668581315976303 8.745778295313732 2 0 0
2360 1 4.435150667619004 15.510749809201805 6.564072423291511 2 1 0
1112 1 7.049350056487049 16.767377819964818 7.872402068883711 0 0 1
958 1 8.865927950214118 17.150483965005396 10.163742129556757 1 0 1
2536 1 13.102221917362659 16.371351814325205 5.64486029226494 0 0 1
2781 1 16.893146119684175 16.033747522595064 8.083036769257795 1 1 0
1267 1 22.252385701339488 15.153592891215386 8.721268004323935 0 0 0
3262 1 30.18670996812556 16.921443044845702 8.851848442215047 -1 -1 1
3733 1 38.838231224644645 17.70746341486446 5.897402299403233 0 0 0
4093 1 44.75303119505097 13.131730740757881 10.653465609741795 0 1 0
600 1 47.87305989171222 16.36841006460676 9.061282650176414 1 0 0
530 1 0.18818540913177 17.074729868229866 7.798355205870033 1 0 1
2439 1 10.54994682170654 19.360749419228842 10.660873486202474 0 0 0
1246 1 10.523133909741828 21.368148361840497 8.652080076721424 -1 1 1
1605 1 13.083077527769088 18.685665590306176 7.26067089017998 1 0 1
835 1 17.416317763872943 18.71573651027023 8.556363391417783 -1 -1 1
2733 1 15.743869065248198 19.542314701151867 6.828178445016238 0 0 0
597 1 19.9516213064295 19.180019766438164 7.906361075463298 1 0 1
777 1 24.946181214089556 20.764955692681546 7.081988244496122 -1 0 1
114 1 26.224199462029265 21.973832617822044 9.586955306870276 0 0 0
2985 1 27.956398770224872 19.920742059784043 7.764412785942905 0 0 1
3109 1 30.970607156718728 20.62534138674183 9.740450331646434 0 1 0
3169 1 33.859162964314166 18.348056457694025 7.589408532436411 -1 1 -1
2135 1 36.82172205859758 19.92696692848683 7.97425783455923 -1 0 0
1356 1 34.44184790946234 20.451886223359292 9.895918370727124 0 -1 0
2438 1 39.08123411344807 22.026352388438625 7.834626906288339 0 -1 0
369 1 40.499875591997004 18.84694876279597 7.809056779129952 0 0 0
3853 1 42.624403858730744 22.177964006016936 9.703956299628894 -1 -1 1
3815 1 44.10036602241443 23.446525567711728 6.371721987205542 -2 0 1
470 1 46.8356834223136 19.13216797735751 9.259754028995518 0 0 -1
2902 1 48.30617850379435 19.36511160654943 6.496075477112938 0 1 1
4054 1 0.06347179699368227 19.357820726692587 9.331878669295996 0 1 1
3441 1 23.94882178701815 24.557696276745233 0.24493004483032638 -1 1 1
3390 1 6.413076163118524 21.69797581234099 10.547470476928364 -1 0 0
3030 1 2.220414225173264 22.059576592627153 7.304693834720196 1 0 0
1194 1 7.743796050070279 21.397212507817073 8.200776415902682 0 -1 1
2618 1 11.34837588578363 24.07537493915736 8.623750551677709 1 -1 0
3010 1 35.16135232577043 0.43371028610005924 5.9914310314061465 1 1 0
2723 1 16.41260890747226 22.30297009937694 7.103880350225444 0 0 0
844 1 20.855039125070647 21.68109271213234 8.811504192133125 0 -1 1
3720 1 23.148428023158758 22.744802063960066 8.283642486545574 1 1 -1
2031 1 26.81772027590892 24.50284382738119 8.62921811301404 -1 0 1
1785 1 19.311484929019933 1.1271640551602038 0.19076939083520222 1 0 0
30 1 31.872698728766576 23.290476095103983 9.511079414369098 0 0 -1
2511 1 30.088122967668436 14.41475518947583 15.691706282448008 -1 0 -2
3861 1 35.15846229480091 23.13171410611332 9.888713678908228 0 0 2
519 1 37.65029289464712 24.312719984639863 9.003600105236348 1 0 0
1222 1 40.96776036186359 24.14609634490526 8.883051342054786 0 -1 0
4086 1 45.31908663676272 23.297783045507746 8.75122816965668 -1 0 1
1756 1 47.64491011242231 22.923476250363844 6.655223941361783 0 -1 1
3240 1 0.0334654038676446 24.731356394551188 9.811658985459452 0 1 0
59 1 1.770420443125974 2.9314334185490756 12.212421113418463 0 1 0
1561 1 3.9533029056352804 0.8758726957261698 11.39240061354608 1 1 1
2414 1 6.074541590252524 2.786889583226544 13.563263652051726 0 0 0
1250 1 8.608826063973178 0.5438255340728922 10.668994274109057 1 0 0
4084 1 8.313489715938553 3.2753423817366736 10.3449479723935 0 1 0
336 1 12.629649740373473 2.778685498044508 9.07252278161071 0 0 -1
1987 1 12.62651520001741 2.365745243916831 11.89152171311085 1 0 0
123 1 1.1462725161500606 17.275680557548778 16.279596989714513 1 0 1
972 1 25.51817596242921 1.1130684870469874 9.91359229790014 0 0 0
3741 1 47.959063365071046 24.401845991106523 13.670247019092038 -1 1 1
318 1 29.693000663112475 0.992589913614877 12.916453705720368 -1 0 0
388 1 35.26306845829799 1.1303833158539693 10.376374574877087 0 0 0
3998 1 0.2041731223046272 8.906358484253188 0.555924401495831 1 1 1
3027 1 45.058782506223324 1.0642124513495117 10.493568111093124 0 1 0
491 1 44.72138676480993 2.5724897452215236 12.768593508609117 0 0 0
2566 1 48.68418082449609 2.854148287642286 10.350202001906586 -1 1 -1
2434 1 49.08282855639907 1.8960360078712455 12.9315492442482 -1 0 -1
4092 1 49.37831143277525 5.432822458717007 9.971556517151031 0 1 1
374 1 5.013074619837497 4.037146851642909 11.344976214221266 1 -1 0