
# Create simulation box of size 50 x 50 x 50 Angstrom
#
lattice	            sc 1
Lattice spacing in x,y,z = 1.0000000 1.0000000 1.0000000
region 	            all block 0 50 0 50 0 50 units box
create_box          1 all
Created orthogonal box = (0.0000000 0.0000000 0.0000000) to (50.000000 50.000000 50.000000)
  1 by 2 by 3 MPI processor grid

# fill box with 4175 randomly distributed atoms
#
create_atoms        1 random 4175 63782 all
Created 4175 atoms
  create_atoms CPU = 0.000 seconds
mass                1 18.015

# Define potential
#
pair_style          sw
pair_coeff          * * ML_mW.sw mW
Reading sw potential file ML_mW.sw with DATE: 2019-02-27

# Run minimization
#
minimize            1.0e-8 1.0e-8 10000 1000
WARNING: Using 'neigh_modify every 1 delay 0 check yes' setting during minimization (../min.cpp:187)
Neighbor list info ...
  update every 1 steps, delay 0 steps, check yes
  max neighbors/atom: 2000, page size: 100000
  master list distance cutoff = 6.0032907
  ghost atom cutoff = 6.0032907
  binsize = 3.0016454, bins = 17 17 17
  1 neighbor lists, perpetual/occasional/extra = 1 0 0
  (1) pair sw, perpetual
      attributes: full, newton on
      pair build: full/bin/atomonly
      stencil: full/bin/3d
      bin: standard
Per MPI rank memory allocation (min/avg/max) = 4.255 | 4.258 | 4.261 Mbytes
Step Temp E_pair E_mol TotEng Press 
       0            0    7792709.3            0    7792709.3    5898794.3 
     630            0   -45180.336            0   -45180.336   -154.07449 
Loop time of 1.18587 on 6 procs for 630 steps with 4175 atoms

99.5% CPU use with 6 MPI tasks x no OpenMP threads

Minimization stats:
  Stopping criterion = max force evaluations
  Energy initial, next-to-last, final = 
      7792709.32924461  -45180.0188663597   -45180.336116598
  Force two-norm initial, final = 2.0191930e+08 4.9721331
  Force max component initial, final = 1.0948746e+08 0.73126211
  Final line search alpha, max atom move = 0.053306038 0.038980685
  Iterations, force evaluations = 630 1000

MPI task timing breakdown:
Section |  min time  |  avg time  |  max time  |%varavg| %total
---------------------------------------------------------------
Pair    | 0.88139    | 0.99567    | 1.0727     |   6.8 | 83.96
Neigh   | 0.023713   | 0.024916   | 0.026702   |   0.7 |  2.10
Comm    | 0.065046   | 0.14388    | 0.25999    |  18.2 | 12.13
Output  | 0          | 0          | 0          |   0.0 |  0.00
Modify  | 0          | 0          | 0          |   0.0 |  0.00
Other   |            | 0.02139    |            |       |  1.80

Nlocal:        695.833 ave         704 max         685 min
Histogram: 1 1 0 0 1 0 0 1 0 2
Nghost:        1494.17 ave        1515 max        1468 min
Histogram: 1 1 0 0 0 0 1 1 1 1
Neighs:        0.00000 ave           0 max           0 min
Histogram: 6 0 0 0 0 0 0 0 0 0
FullNghs:      19997.0 ave       20462 max       19320 min
Histogram: 1 1 0 0 0 0 0 2 0 2

Total # of neighbors = 119982
Ave neighs/atom = 28.738204
Neighbor list builds = 26
Dangerous builds = 0

# Add velocity/set timestep
#
velocity            all create ${TEMP} 120598 rot yes dist gaussian
velocity            all create 230 120598 rot yes dist gaussian
timestep            5.0

# Define output
#
compute	            1 all msd
thermo	            100
thermo_style        custom step temp press vol etotal ke pe c_1[4] density

# Neighbor lists
#
neigh_modify        delay 0 every 1 check yes

# Set fixes
#
fix                 1 all momentum 10 linear 1 1 1 rescale
fix                 2 all nve
fix                 3 all temp/csvr ${TEMP} ${TEMP} 500.0 928347
fix                 3 all temp/csvr 230 ${TEMP} 500.0 928347
fix                 3 all temp/csvr 230 230 500.0 928347
fix                 4 all press/berendsen iso ${PRES} ${PRES} 1000.0 modulus 20000
fix                 4 all press/berendsen iso 50 ${PRES} 1000.0 modulus 20000
fix                 4 all press/berendsen iso 50 50 1000.0 modulus 20000

# Run 0.5 ns equilibration
#
dump                1 all custom 1000 eq.${NAME}.dump id type x y z vx vy vz
dump                1 all custom 1000 eq.liquid_density_MLmW.dump id type x y z vx vy vz
run                 100000
Per MPI rank memory allocation (min/avg/max) = 3.506 | 3.508 | 3.511 Mbytes
Step Temp Press Volume TotEng KinEng PotEng c_1[4] Density 
     630          230    892.42114       125000   -42318.699    2861.6373   -45180.336 2.7295415e-33   0.99914793 
     700    146.19627   -7.7063185    125450.84   -41438.684    1818.9595   -43257.644   0.27427053    0.9955572 
     800    181.27249   -281.61731    125288.68   -40635.355    2255.3744   -42890.729    0.6491014   0.99684577 
     900    200.78609     90.66121    125096.97   -40191.252    2498.1606   -42689.413    1.1362799   0.99837344 
    1000    209.21249    328.78945    125393.56   -39870.434    2603.0011   -42473.435    1.5206446   0.99601197 
    1100    221.83591    37.420898    125694.54    -39679.71    2760.0604    -42439.77    1.9243149   0.99362699 
    1200     221.4863    35.373865    125570.98   -39706.431    2755.7106   -42462.141    2.3820521    0.9946047 
    1300    218.67459    11.552586    125624.69   -39666.622    2720.7277    -42387.35    2.9544145    0.9941795 
    1400    220.85705    41.772849    125469.53    -39681.54    2747.8816   -42429.422     3.339429   0.99540894 
    1500    225.70294    5.2071428    125593.44   -39627.555    2808.1737   -42435.728    3.7567073   0.99442683 
    1600    230.71466    236.52513    125660.72   -39518.183     2870.529   -42388.712    4.2590727   0.99389441 
    1700    230.01227   -46.371834     125853.9   -39558.405    2861.7899   -42420.195    4.6052322   0.99236883 
    1800      225.511    3.9702025       125993   -39645.564    2805.7856    -42451.35    5.0934121   0.99127322 
    1900    228.41296    238.46926    126063.15   -39640.358    2841.8914    -42482.25    5.4958261   0.99072167 
    2000    225.76084    110.80858    126039.97   -39585.981     2808.894   -42394.875    5.8309694   0.99090384 
    2100    229.58595    -57.35607    126050.51    -39531.11    2856.4856   -42387.596    6.3565597   0.99082099 
    2200    234.05464    145.01822    126128.12   -39564.467    2912.0847   -42476.551    6.7950714    0.9902113 
    2300    232.27884    115.91332    126315.14    -39549.97    2889.9904    -42439.96    7.3032157   0.98874519 
    2400    232.46208     209.3504    126357.85   -39546.042    2892.2702   -42438.312    7.6071715   0.98841105 
    2500    231.20634   -120.82127    126466.65   -39504.178    2876.6465   -42380.825    7.9618243    0.9875607 
    2600     237.0456   -17.734603    126353.91    -39462.26    2949.2979   -42411.557    8.4801625   0.98844183 
    2700     236.5818   -27.327097    126335.01   -39503.105    2943.5273   -42446.633    8.9950785   0.98858972 
    2800    234.83232    182.49887    126450.43   -39502.187    2921.7605   -42423.948    9.3800179   0.98768738 
    2900    231.55101    48.004745       126511   -39572.228    2880.9348   -42453.163    9.6978819   0.98721448 
    3000    232.01385    40.922929    126448.82   -39612.644    2886.6934   -42499.338    10.029078   0.98769996 
    3100     233.4981    44.006663    126530.76   -39595.704    2905.1602   -42500.864    10.424566   0.98706028 
    3200    229.02932   -194.23176    126053.72   -39664.339    2849.5602   -42513.899    10.823812   0.99079574 
    3300    232.80749    202.28962    126155.57   -39654.007    2896.5678   -42550.575    11.226924   0.98999583 
    3400    229.71917    120.21585    126398.21   -39702.872    2858.1433   -42561.016    11.652185   0.98809541 
    3500    228.49837   -164.46291    126574.05   -39723.625    2842.9541   -42566.579    11.972166   0.98672269 
    3600    229.89376   -55.202199    126614.12   -39760.258    2860.3155   -42620.574     12.36665   0.98641042 
    3700     225.0678    47.191476    126501.54    -39824.21    2800.2713   -42624.481    12.669823   0.98728831 
    3800    231.38911    85.828056    126609.92   -39780.545    2878.9205   -42659.465    13.113847   0.98644317 
    3900    226.70257    78.182178    126670.43   -39817.509    2820.6109    -42638.12    13.468173   0.98597195 
    4000    232.64188   -63.756629    126588.03   -39832.966    2894.5073   -42727.473    13.783223   0.98661378 
    4100    226.79882    27.073928    126592.24   -39827.763    2821.8085   -42649.571    13.923766   0.98658097 
    4200    228.34124   -38.280767    126495.89   -39831.313    2840.9992   -42672.312    14.238662   0.98733242 
    4300    228.52489    36.041477    126513.46   -39824.351     2843.284   -42667.635    14.657432   0.98719525 
    4400    231.35479    54.932086    126490.25    -39810.79    2878.4934   -42689.283    15.047219   0.98737641 
    4500    223.53735    122.74922    126221.77   -39787.139    2781.2296   -42568.369    15.326212    0.9894766 
    4600    225.84264    167.36626    126319.11   -39813.127    2809.9118   -42623.039    15.811171   0.98871411 
    4700    226.86829    -50.57808     126392.8    -39718.98    2822.6729   -42541.652    16.197414   0.98813767 
    4800    230.00579    28.033449    126200.22   -39786.365    2861.7093   -42648.074    16.302466   0.98964558 
    4900    234.02902    107.19779    126241.53   -39660.416    2911.7659   -42572.182    16.603522   0.98932173 
    5000    234.02956    260.48898    126257.22   -39597.461    2911.7727   -42509.233    16.892719   0.98919882 
    5100    230.41126    97.193399    126319.34   -39666.448    2866.7542   -42533.202    17.183882   0.98871238 
    5200     226.7722    86.754774    126525.52   -39719.026    2821.4773   -42540.503    17.709398   0.98710119 
    5300    236.92592    119.00558    126533.54   -39685.444    2947.8089   -42633.253    17.997649   0.98703863 
    5400    225.47907    128.04599    126489.36   -39730.611    2805.3884       -42536    18.356416   0.98738336 
    5500    226.70642    75.586262    126455.45    -39720.08    2820.6588   -42540.739    18.553716   0.98764814 
    5600    229.38556    195.04664    126433.29    -39722.53    2853.9925   -42576.522    18.864939   0.98782123 
    5700     230.2204   -157.53067    126391.22   -39730.142    2864.3795   -42594.521    19.264755   0.98815005 
    5800    228.47364   -245.43347     126466.7   -39765.521    2842.6464   -42608.168    19.673205   0.98756027 
    5900    228.76327    205.64167    126364.96   -39801.124      2846.25   -42647.374    19.968416   0.98835541 
    6000    225.64082    62.713392    126476.66   -39799.414    2807.4008   -42606.815     20.43711   0.98748256 
    6100    232.15623    114.31124    126816.41   -39750.819    2888.4648   -42639.283    20.938548   0.98483698 
    6200    225.99218   -174.14098     126691.4   -39817.626    2811.7724   -42629.398    21.159072   0.98580873 
    6300    236.37734    169.23091    126651.53   -39771.868    2940.9836   -42712.851    21.389137   0.98611911 
    6400    229.25561   -136.22629    126782.18   -39756.021    2852.3756   -42608.396    21.733903   0.98510286 
    6500    232.62968    40.776353    126767.92   -39713.139    2894.3555   -42607.494    22.031357   0.98521366 
    6600    228.25345    135.38512    126856.07   -39812.773    2839.9069    -42652.68    22.461226   0.98452912 
    6700    225.85026    88.385994    126744.33   -39882.682    2810.0066   -42692.688    22.676332   0.98539708 
    6800    231.59808    38.041585    126789.75   -39807.043    2881.5204   -42688.564     22.96085    0.9850441 
    6900    235.42913   -83.377501    127065.23   -39747.224    2929.1859    -42676.41    23.310717   0.98290844 
    7000    234.76745    68.399656    126862.21   -39753.781    2920.9534   -42674.735    23.643361    0.9844814 
    7100    231.81371    115.23251    127040.85   -39789.469    2884.2032   -42673.672    24.058509   0.98309712 
    7200    227.99138    84.668212    126958.86   -39839.313    2836.6463   -42675.959    24.496065   0.98373201 
    7300    226.28165    148.78242    127113.68   -39894.246     2815.374    -42709.62    24.754821   0.98253382 
    7400    224.11716   -5.9142102    127290.62   -39913.747    2788.4435   -42702.191    24.982054   0.98116809 
    7500    226.41112   -195.41607    127079.17   -39878.849    2816.9847   -42695.834    25.194093   0.98280068 
    7600    225.86619     277.5673    126869.45   -39959.886    2810.2048   -42770.091    25.566986   0.98442527 
    7700    231.26819   -138.37444    126962.28   -39855.951     2877.416   -42733.367    25.907742   0.98370548 
    7800    230.34816    121.26822    127090.87   -39824.918    2865.9691   -42690.888    26.173119   0.98271019 
    7900    225.48283    39.617299    126835.61   -39878.859    2805.4351   -42684.294    26.477383   0.98468787 
    8000    231.74594    308.83704    126961.44   -39835.906      2883.36   -42719.266    26.812608   0.98371201 
    8100    227.08516    327.97125    126995.88   -39897.535    2825.3712   -42722.907    27.171218    0.9834452 
    8200    222.83349   -69.597719       126952   -39901.498    2772.4722   -42673.971    27.484981   0.98378513 
    8300    224.63358    247.42196    127068.45   -39889.154    2794.8688   -42684.022    27.822971   0.98288355 
    8400    230.14071    92.471379       127015   -39837.743     2863.388   -42701.131    28.006337   0.98329722 
    8500    229.15851    135.00436    127161.94   -39764.602    2851.1675    -42615.77    28.379394   0.98216096 
    8600    231.39701    54.374493    127275.69   -39775.027    2879.0187   -42654.046    28.529463   0.98128312 
    8700    232.18701    110.78445    127120.46   -39747.532    2888.8478    -42636.38    28.761455   0.98248144 
    8800    228.25367   -72.193079    127089.37   -39793.135    2839.9096   -42633.044    29.270381    0.9827218 
    8900    224.12096   -44.535463    127172.41   -39883.238    2788.4908   -42671.728    29.690069   0.98208006 
    9000    228.81873    169.75686    127218.97   -39836.801    2846.9401   -42683.741    30.002981   0.98172067 
    9100    222.83704     14.66004    127236.47   -39895.878    2772.5165   -42668.394    30.548858   0.98158562 
    9200    230.05753   -60.192101    127043.76   -39798.134     2862.353   -42660.487    30.712801   0.98307462 
    9300    226.85317    47.045412    127188.28   -39865.553    2822.4847   -42688.038    31.133115   0.98195758 
    9400    231.54529    23.699667    126894.36   -39841.898    2880.8637   -42722.762    31.370143   0.98423198 
    9500    230.85324    6.4708701    126804.26   -39848.022    2872.2532   -42720.275    31.779904   0.98493134 
    9600    229.54766    79.867592    127053.75   -39799.716    2856.0093   -42655.726    32.009248   0.98299727 
    9700    233.95934    309.70477    127129.93   -39739.046     2910.899   -42649.945    32.329624   0.98240825 
    9800    227.96868     129.7762    127458.38   -39814.602    2836.3638   -42650.966    32.627513   0.97987667 
    9900    225.23142   -52.960968    127533.63   -39898.492     2802.307   -42700.799    33.176207   0.97929852 
   10000     228.3852    128.13744    127420.33   -39904.321    2841.5461   -42745.867    33.384091   0.98016923 
   10100    224.40659    55.105755    127501.49   -39869.646    2792.0446   -42661.691    33.757107   0.97954532 
   10200    224.16533   -8.7688716    127436.33   -39918.457    2789.0429     -42707.5    34.200654   0.98004618 
   10300    229.36191    3.1964218    127510.94    -39913.56    2853.6982   -42767.258    34.483108   0.97947273 
   10400    227.69892    80.893541    127593.89   -39855.395    2833.0075   -42688.403    34.873658   0.97883599 
   10500     225.4334   -152.32595    127517.14   -39831.123    2804.8201   -42635.943    35.026947   0.97942513 
   10600    228.61231    -31.73306    127505.99   -39749.773    2844.3718   -42594.145    35.499178   0.97951079 
   10700    235.95317    156.14866    127500.93   -39744.101     2935.706   -42679.807    35.744185   0.97954963 
   10800    230.64472    144.91821    127395.83   -39737.395    2869.6589   -42607.054    36.162924   0.98035774 
   10900    232.53324    -284.1424    127667.09   -39773.753    2893.1556   -42666.908    36.503644   0.97827472 
   11000    231.87116    24.369401     127762.2    -39774.93    2884.9181   -42659.848    36.635582   0.97754651 
   11100    230.00405     160.8496    127735.88   -39814.065    2861.6877   -42675.753    36.821496   0.97774794 
   11200    229.50022    257.10551    127829.43   -39810.129    2855.4191   -42665.548     36.89651   0.97703239 
   11300    233.75413    224.61578    127832.02   -39823.961    2908.3458   -42732.307    37.317118   0.97701256 
   11400     231.0386    165.12716    127777.52   -39836.727    2874.5594   -42711.287    37.575736   0.97742929 
   11500    226.90624    139.78874     127835.3    -39880.25     2823.145   -42703.395    37.765162   0.97698751 
   11600    231.09225    21.462243     127794.6   -39881.659     2875.227   -42756.886    38.026602   0.97729863 
   11700     228.8061   -44.517314    127684.43   -39773.803    2846.7829   -42620.586    38.327019   0.97814187 
   11800    228.59393   -64.961437    127497.65   -39843.615    2844.1431   -42687.758    38.462482   0.97957484 
   11900    227.41258    -152.5145    127299.87   -39847.753    2829.4449   -42677.198    38.878915   0.98109678 
   12000    228.49744    74.555406    127215.83   -39825.005    2842.9426   -42667.948    39.026325   0.98174491 
   12100     231.1526   -206.73662    127115.76   -39766.027    2875.9777   -42642.005    39.333839   0.98251779 
   12200    229.51993    68.297752    127119.61   -39757.931    2855.6642   -42613.595    39.727959   0.98248798 
   12300    231.30814    232.63099    126967.93   -39792.866     2877.913   -42670.779     39.92471   0.98366168 
   12400    233.05355    203.64822    126919.92   -39780.722    2899.6293   -42680.351    40.177381    0.9840338 
   12500    228.13643   -56.673346    126898.97   -39881.881     2838.451   -42720.332    40.377777   0.98419623 
   12600    229.95586    60.724674    126902.18   -39799.164    2861.0881   -42660.252    40.686991   0.98417134 
   12700    231.90654    87.036187    127003.85   -39749.838    2885.3582   -42635.197    41.006231   0.98338354 
   12800    234.58877    422.66325    127226.69   -39720.265    2918.7303   -42638.995    41.553673   0.98166108 
   12900    232.17867    71.034241    127642.14   -39782.549    2888.7441   -42671.293    41.960782   0.97846595 
   13000    232.52306    102.30084    127429.75   -39737.542    2893.0289   -42630.571    42.348226   0.98009677 
   13100    232.38813   0.21786611    127301.52   -39729.953    2891.3502   -42621.303    42.855137   0.98108409 
   13200    236.74096    81.224606    127388.57   -39641.199    2945.5076   -42586.706    43.304691   0.98041366 
   13300    234.35023    161.23444    127553.97   -39670.168    2915.7624   -42585.931    43.533948   0.97914229 
   13400    228.32413    33.781996    127642.01   -39734.102    2840.7863   -42574.889    43.693199   0.97846696 
   13500    221.54964    132.05675    127419.01   -39753.878    2756.4987   -42510.377    43.886423   0.98017941 
   13600    230.54086   -30.673002    127350.58   -39777.405    2868.3666   -42645.772    44.170716   0.98070612 
   13700    225.82794   -70.199314    127343.86   -39791.107    2809.7289   -42600.836    44.716506   0.98075789 
   13800    232.67478     116.5232    127358.97   -39708.349    2894.9167   -42603.266    44.903344    0.9806415 
   13900    227.82745     291.0948    127316.82   -39754.982    2834.6066   -42589.589    45.307706   0.98096617 
   14000    230.56547    203.50829    127316.06   -39743.892    2868.6728   -42612.565    45.661173   0.98097204 
   14100    230.42264    149.30085    127359.93   -39750.183    2866.8957   -42617.079    45.727586   0.98063414 
   14200     232.7306   -14.657365    127145.14   -39789.966    2895.6111   -42685.577    45.974945   0.98229073 
   14300    226.91517    20.746427    127259.59   -39860.197    2823.2561   -42683.453    46.406093    0.9814073 
   14400    229.36749    78.566818    127205.76   -39849.393    2853.7676    -42703.16    46.966626   0.98182261 
   14500     230.5749    21.478266    127198.55   -39804.053    2868.7901   -42672.843     47.10469   0.98187825 
   14600    236.58251   -29.008733    127240.05   -39820.958    2943.5362   -42764.494    47.219509   0.98155803 
   14700    227.34701    146.87543    127136.88   -39869.254     2828.629   -42697.883     47.51364   0.98235456 
   14800    226.20516   -90.019345    127047.15   -39903.601    2814.4222   -42718.023    47.670342   0.98304836 
   14900    227.05786   -23.154692    126821.31   -39986.844    2825.0315   -42811.875    48.017026   0.98479892 
   15000    221.69868    93.168442    126980.97   -39980.106     2758.353   -42738.459    48.596104   0.98356068 
   15100    221.99549    195.27491    126956.58   -39995.582     2762.046   -42757.628     49.11229   0.98374965 
   15200    222.59483    110.75663    127281.41   -39897.799    2769.5028   -42667.302    49.225746    0.9812391 
   15300    225.74341   -105.88962    127373.42   -39890.468    2808.6772   -42699.146    49.506399   0.98053028 
   15400    228.72082   -68.795376    127289.39   -39893.833    2845.7219   -42739.555    49.822111   0.98117753 
   15500    230.81093   -134.09935    127024.37   -39873.665    2871.7268   -42745.392    50.027475   0.98322467 
   15600     232.2815    119.51252    126838.76   -39787.649    2890.0234   -42677.672    50.255738   0.98466348 
   15700    228.79119    52.100319    126658.64   -39878.725    2846.5974   -42725.323    50.587962   0.98606371 
   15800     231.7823    161.85418    126730.64   -39876.405    2883.8125   -42760.217    50.714978   0.98550348 
   15900    224.46181    127.05805    126690.52   -39919.119    2792.7316   -42711.851    50.953543   0.98581561 
   16000    231.93794     68.13626    127083.23   -39857.459     2885.749   -42743.208    51.621858   0.98276922 
   16100    231.96814    52.811559    126813.74   -39823.574    2886.1247   -42709.699    51.807896   0.98485772 
   16200    230.18495    38.431671    126864.55   -39890.775    2863.9384   -42754.713    52.390929    0.9844633 
   16300     228.7274    266.65594     126901.2   -39893.817    2845.8036   -42739.621    52.746097   0.98417897 
   16400    234.62478    129.28853    127028.03   -39795.123    2919.1783   -42714.301    52.941974   0.98319634 
   16500    228.77316    57.558212    126941.62   -39786.369    2846.3731   -42632.742    53.162808   0.98386559 
   16600    234.35279    171.59037    126919.96   -39749.554    2915.7943   -42665.348    53.178739   0.98403348 
   16700    230.91344   -6.7834889    127098.05     -39785.7    2873.0022   -42658.702    53.503139   0.98265466 
   16800    233.67831    120.31777    127122.35   -39783.508    2907.4024   -42690.911    53.914386    0.9824668 
   16900    229.66216    127.27165    127201.81   -39735.778    2857.4338   -42593.212    54.369487   0.98185312 
   17000    237.08334   -71.239689    127177.09   -39769.407    2949.7675   -42719.175    54.714338   0.98204395 
   17100     234.8647    16.130816    127384.41   -39706.023    2922.1634   -42628.187    55.067774   0.98044568 
   17200    229.77648   -61.277228    127348.63   -39727.438    2858.8562   -42586.295    55.097809   0.98072111 
   17300    225.08876    15.802725    127128.26   -39785.608    2800.5321    -42586.14    55.376752   0.98242113 
   17400    227.99086    175.35862    127330.19   -39796.232    2836.6397   -42632.871    55.406096   0.98086315 
   17500     228.4936    7.2919069     127347.6   -39783.467    2842.8948   -42626.362    55.555704   0.98072905 
   17600    229.47245    217.07941     127569.6       -39756    2855.0735   -42611.073    55.923995   0.97902236 
   17700    230.92775    143.06002    127781.93   -39783.458    2873.1802   -42656.638     56.25591   0.97739555 
   17800    231.19485     107.7956    128015.12   -39800.003    2876.5035   -42676.507    56.507445   0.97561517 
   17900    228.61408     233.0102    128089.96   -39759.642    2844.3938   -42604.036    56.863284   0.97504513 
   18000    235.96557    7.1418109    128070.26   -39704.067    2935.8602   -42639.928    56.983642    0.9751951 
   18100    229.46697    232.25344    128265.44    -39813.44    2855.0053   -42668.445    57.125218   0.97371116 
   18200    229.34053   -64.274416     128062.1   -39815.318    2853.4322    -42668.75    57.662521   0.97525721 
   18300    227.96112    18.615147     127866.2   -39713.582    2836.2698   -42549.852    58.102515   0.97675141 
   18400    235.30797    44.122279    128026.63   -39801.541    2927.6785    -42729.22    58.187991   0.97552743 
   18500    233.66156     9.237262    127909.89    -39763.15     2907.194   -42670.344    58.522941   0.97641775 
   18600    231.60554    259.94984    128090.73   -39836.031    2881.6133   -42717.644    58.719832    0.9750393 
   18700    231.64452   -110.45223    127906.08   -39807.433    2882.0983   -42689.532    58.981106   0.97644684 
   18800    232.51255    14.010152    127773.38   -39788.247    2892.8982   -42681.145    58.926122     0.977461 
   18900     232.3288     26.08383    127714.46   -39833.514    2890.6119   -42724.126    59.353786   0.97791193 
   19000    231.20885    -14.04664    127786.17   -39819.863    2876.6776    -42696.54    59.666355   0.97736312 
   19100    231.47061     150.6893    127351.85   -39884.268    2879.9345   -42764.203    59.706864   0.98069636 
   19200     230.0777    216.80179    127317.16   -39839.134    2862.6039   -42701.738    60.040684    0.9809635 
   19300     230.2764    88.090382    127434.78   -39779.359    2865.0762   -42644.435    60.354648   0.98005816 
   19400    229.84679    102.77094    127276.63   -39792.046     2859.731   -42651.777    60.757065   0.98127591 
   19500    233.02032    45.394795    127316.27    -39788.97    2899.2157   -42688.186    60.966195    0.9809704 
   19600    229.31192    49.650089    127286.73   -39820.069    2853.0762   -42673.145    61.377954   0.98119805 
   19700      233.412    101.72575    127211.68   -39811.453    2904.0891   -42715.542    61.665402   0.98177692 
   19800      231.801    33.276383       127165   -39849.648    2884.0451   -42733.693    62.128922    0.9821373 
   19900    235.61838   -114.25286    127025.42   -39863.998    2931.5406   -42795.538    62.233064    0.9832165 
   20000    230.25599    276.90168    127212.84   -39901.653    2864.8223   -42766.476    62.592702   0.98176793 
   20100    228.63732   -32.264812    127373.98   -39851.098    2844.6829   -42695.781    63.009856   0.98052594 
   20200    229.44341   -108.35241    127335.21   -39882.351    2854.7123   -42737.063    63.565343   0.98082451 
   20300    227.45895    1.4969206    127179.38   -39902.733    2830.0217   -42732.755    63.922918   0.98202625 
   20400    224.16085    216.06487    127189.46   -39893.563    2788.9872    -42682.55    64.250299   0.98194847 
   20500    226.67818    61.881511    127279.28   -39854.541    2820.3075   -42674.848    64.552769   0.98125544 
   20600    229.44525    -32.82262    127222.87   -39887.833    2854.7351   -42742.568    64.793391    0.9816906 
   20700    229.55714    87.885762    127296.92   -39819.262    2856.1272    -42675.39     65.18309   0.98111949 
   20800    228.41302   -168.13624    127313.45   -39813.783    2841.8922   -42655.675     65.61761   0.98099211 
   20900    231.47501    51.466557    127192.82   -39855.741    2879.9891    -42735.73    66.127391   0.98192252 
   21000    225.53959    35.832859    127131.73   -39948.296    2806.1413   -42754.437    66.516725   0.98239431 
   21100    222.18413    122.95067    127096.77   -39955.027     2764.393    -42719.42    66.861994   0.98266459 
   21200    228.68152    132.16513    127179.11   -39924.318    2845.2328   -42769.551    67.082779   0.98202836 
   21300    225.91479    13.847924    127133.67   -39917.615    2810.8094   -42728.424    67.278556   0.98237934 
   21400    232.59349    212.44404    127069.91   -39869.677    2893.9052   -42763.582    67.637981   0.98287226 
   21500    230.57029    203.40556    127026.84    -39858.24    2868.7328   -42726.972    67.863806   0.98320553 
   21600    231.78833    33.440026    127089.19   -39809.609    2883.8875   -42693.496    67.762163    0.9827232 
   21700     229.3322    62.778322    127045.01   -39775.802    2853.3286   -42629.131    68.179946   0.98306487 
   21800    229.96167   -46.178465    127101.03   -39753.943    2861.1603   -42615.103    68.544542   0.98263166 
   21900    235.62679    32.596195    127203.81   -39778.739    2931.6453   -42710.385    69.010741   0.98183768 
   22000    228.08991   -37.266342    127225.38   -39838.857    2837.8721   -42676.729    69.085665   0.98167123 
   22100    231.90688    84.372126    127327.83   -39781.538    2885.3625   -42666.901    69.419453   0.98088132 
   22200    234.93886    81.926743    127434.93   -39814.994    2923.0861    -42738.08    69.549139   0.98005698 
   22300    228.91921    82.906182    127179.54   -39803.314    2848.1901   -42651.504    69.736669   0.98202499 
   22400    231.05078    100.96868    127174.76   -39766.991     2874.711   -42641.702    70.232531   0.98206191 
   22500    231.08068    -31.60634    127294.64   -39779.309     2875.083   -42654.392    70.789081   0.98113711 
   22600    236.18235    57.243232     127307.5   -39751.914    2938.5574   -42690.471    71.166591   0.98103794 
   22700    231.18677   -51.749513    127399.98   -39758.136     2876.403   -42634.539    71.734862   0.98032587 
   22800    233.31822    122.84754    127560.05    -39737.68    2902.9222   -42640.602    71.831146   0.97909569 
   22900    232.71465    -37.88347    127631.46   -39781.748    2895.4127    -42677.16    71.945322   0.97854786 
   23000    233.96768    115.75209    127524.58   -39755.578    2911.0027   -42666.581    71.632439   0.97936796 
   23100    230.75164    24.290086    127274.68   -39863.795    2870.9891   -42734.784    71.827896   0.98129096 
   23200    233.58298   -142.53797    127034.51   -39823.724    2906.2163    -42729.94    71.841376   0.98314615 
   23300    229.88609    15.001325    126984.78   -39886.212      2860.22   -42746.432    72.261518   0.98353119 
   23400    234.51088    203.91254    126988.22   -39814.928    2917.7611   -42732.689     72.81947   0.98350453 
   23500    231.47715    93.122708    127162.68    -39857.43    2880.0159   -42737.446    73.243458   0.98215524 
   23600     233.2138    64.293839    127042.04   -39840.134     2901.623   -42741.757    73.435109    0.9830879 
   23700    225.59285    70.738659    126989.58   -39861.617     2806.804   -42668.421    73.725445   0.98349398 
   23800     224.8612    313.77543    126985.48   -39903.809    2797.7008   -42701.509    73.881009   0.98352576 
   23900    226.25809    345.89818    127010.87   -39905.226    2815.0808   -42720.306    74.369571   0.98332914 
   24000    230.59591    47.278319     126970.5   -39826.767    2869.0516   -42695.818    74.232346   0.98364179 
   24100    231.87445    22.921916    126992.43   -39833.834     2884.959   -42718.793     74.63868   0.98347191 
   24200    227.05233   -128.27302    127042.21   -39899.589    2824.9627   -42724.552    74.756221   0.98308661 
   24300    227.35704    16.102371    127019.76    -39857.92    2828.7538   -42686.673    75.155755   0.98326034 
   24400    224.07609    134.02471     127108.6   -39891.449    2787.9326   -42679.381    75.334961    0.9825731 
   24500    228.64922    72.722271     127248.8   -39820.219     2844.831    -42665.05    75.720563   0.98149056 
   24600    233.27692    117.98077    127222.42   -39798.595    2902.4084   -42701.003     76.36114   0.98169405 
   24700    224.76961   -115.28134    126891.03   -39824.684    2796.5612   -42621.246    76.612591   0.98425785 
   24800    225.49422    74.372175    126650.72   -39822.137    2805.5768   -42627.713    76.935226   0.98612539 
   24900    227.42247    228.89236    126779.16   -39758.189    2829.5679   -42587.757    77.395908   0.98512636 
   25000    229.81098    117.71472    126969.47   -39730.841    2859.2855   -42590.127    77.754331   0.98364975 
   25100    229.11992   -28.005043    126718.91   -39733.627    2850.6874   -42584.314    78.014638   0.98559477 
   25200    228.56462    94.237362    126955.05   -39766.498    2843.7784   -42610.276    78.183431   0.98376148 
   25300    228.46178   -69.691493    126839.04   -39773.966    2842.4989   -42616.465     78.45165   0.98466127 
   25400    230.84192    27.543251    126624.66   -39752.683    2872.1123   -42624.795    78.788355   0.98632836 
   25500    230.27994    105.64535    126640.27   -39697.727    2865.1202   -42562.847    79.046867    0.9862068 
   25600    232.32114    194.91517    126734.53    -39782.32    2890.5166   -42672.837    79.199454   0.98547326 
   25700    225.23403    332.16075    126729.76   -39799.587    2802.3395   -42601.927    79.398759   0.98551035 
   25800    231.51106     25.06023    126724.88   -39773.006    2880.4377   -42653.444    79.720934    0.9855483 
   25900    232.29409    46.698337    126761.49   -39714.885    2890.1801   -42605.065    80.087316   0.98526365 
   26000    230.46366    141.83214    126630.94   -39651.753    2867.4061   -42519.159    80.484626   0.98627942 
   26100    231.76202   -145.40734    126621.45   -39741.465    2883.5602   -42625.025    80.596125   0.98635336 
   26200    232.23417   -28.973799    126650.64   -39743.546    2889.4346    -42632.98    80.887203   0.98612602 
   26300    235.04164    9.5332023     126695.1   -39718.168    2924.3648   -42642.532    81.264605   0.98577999 
   26400    233.39553   0.71251271    126888.82   -39726.599    2903.8842   -42630.484    81.938525     0.984275 
   26500    230.72303     28.79432     126586.6   -39800.678    2870.6332   -42671.311    82.261129   0.98662493 
   26600    228.25172   -69.743712    126821.38   -39856.931    2839.8853   -42696.816    82.931754   0.98479842 
   26700    224.10528    57.490472     126870.9   -39869.039    2788.2957   -42657.335    83.226596   0.98441399 
   26800     225.6489    270.93388    126813.76   -39800.726    2807.5013   -42608.228    83.630157   0.98485759 
   26900    232.15734    73.602175    126849.82   -39805.275    2888.4787   -42693.754    83.904523   0.98457757 
   27000    228.51626    105.51112    126794.65   -39847.713    2843.1767    -42690.89    84.365598   0.98500603 
   27100    229.26425     48.67529    126995.04   -39852.094    2852.4832   -42704.577    84.877176   0.98345176 
   27200    223.85165    89.051906    126981.05   -39871.477    2785.1402   -42656.617    85.452851    0.9835601 
   27300    228.50152   -124.44922    126943.45   -39894.541    2842.9934   -42737.535    85.984883   0.98385137 
   27400    229.00142    66.278292    126894.99   -39840.478    2849.2131   -42689.691    86.718768   0.98422709 
   27500     228.3303   -67.973026     126901.7   -39765.377     2840.863    -42606.24    86.743869   0.98417506 
   27600     229.4722    104.30732    126903.44   -39786.933    2855.0704   -42642.004    86.965378   0.98416157 
   27700    228.66647     183.0383    126908.25   -39793.995    2845.0456    -42639.04    87.647065   0.98412433 
   27800    227.70219    57.051447    126907.45   -39728.805    2833.0481   -42561.853    88.215991    0.9841305 
   27900    229.01028   -68.898635    126964.58   -39757.511    2849.3232   -42606.834    89.299879   0.98368769 
   28000    229.58683    51.536043    126832.03   -39787.184    2856.4966   -42643.681    89.422235   0.98471572 
   28100    231.60944   -87.264311    126795.67    -39763.89    2881.6617   -42645.551    89.728881   0.98499808 
   28200    228.35693   -35.135359    126854.64   -39812.457    2841.1943   -42653.651    90.326248   0.98454017 
   28300    229.25785    -91.93194    126706.07   -39814.227    2852.4035   -42666.631    90.219685   0.98569463 
   28400    230.07448    222.38606     126834.1   -39848.585    2862.5639   -42711.149    90.410858   0.98469964 
   28500    226.33333   -8.1516217    127048.85   -39875.283    2816.0169     -42691.3    90.895765   0.98303517 
   28600    227.09698    76.665365    127321.96   -39836.129    2825.5181   -42661.647    91.153051   0.98092652 
   28700    229.04389   -18.059621    127461.48   -39840.208    2849.7415    -42689.95    91.686155   0.97985281 
   28800    231.48251    210.30032    127405.13   -39820.463    2880.0825   -42700.545    92.105888   0.98028623 
   28900    234.43138   -91.488913    127384.28   -39785.445     2916.772   -42702.217    92.258385   0.98044665 
   29000    230.79977   -112.77007    127330.45   -39871.534    2871.5879   -42743.122    92.779711   0.98086113 
   29100    229.78537    117.20988    127294.24   -39826.954    2858.9669   -42685.921    93.140247   0.98114015 
   29200    231.29625   -21.235153    127312.67   -39823.523     2877.765   -42701.288    93.820204    0.9809981 
   29300     228.4337    273.39293    127229.07   -39887.397    2842.1495   -42729.547     94.15384    0.9816427 
   29400    230.06214   -132.60046    127087.57   -39933.294    2862.4104   -42795.705     94.82252   0.98273572 
   29500    225.03466    25.632283    127095.07   -39946.937    2799.8589   -42746.796    95.338964   0.98267773 
   29600    230.77891    -90.37227    127078.26   -39847.271    2871.3284   -42718.599    95.522473   0.98280769 
   29700     231.4055    339.01081    126923.95   -39891.878    2879.1243   -42771.002    95.641216   0.98400257 
   29800    228.17929    101.04573    127012.57   -39867.289    2838.9842   -42706.273      96.0619   0.98331598 
   29900    228.28392    216.38302    127271.34   -39891.615    2840.2859   -42731.901     96.76973   0.98131667 
   30000    230.44951   -72.158855     127312.5   -39877.927    2867.2301   -42745.157    96.550115   0.98099944 
   30100    228.04211   -62.200026    127320.57   -39877.824    2837.2774   -42715.102    96.701079   0.98093725 
   30200    230.02252     41.38638    127240.16   -39902.936    2861.9175   -42764.853    96.908901   0.98155717 
   30300    229.78583    69.102432    127225.78   -39862.168    2858.9725   -42721.141     97.37233   0.98166815 
   30400    230.04763    220.81555    127377.02   -39844.932    2862.2299   -42707.162    97.842928   0.98050256 
   30500    228.96143     209.1856    127278.56   -39839.908    2848.7155   -42688.624    98.087468   0.98126101 
   30600    231.56382    3.1223661    127273.21   -39833.506    2881.0942     -42714.6    98.436093    0.9813023 
   30700    229.91077   -11.281909    127457.09   -39849.211    2860.5271   -42709.738    99.189252   0.97988658 
   30800    233.68358     75.71718    127291.13   -39783.461     2907.468   -42690.929    99.618383   0.98116416 
   30900    226.96642   -10.166999    127299.52   -39901.956    2823.8937    -42725.85    100.03653   0.98109945 
   31000    224.22443   -73.682875       127179   -39914.996    2789.7782   -42704.774    100.10912   0.98202921 
   31100     227.6216     187.5163    127326.76   -39915.122    2832.0454   -42747.167    100.40384   0.98088957 
   31200    226.71565    171.41766    127445.07     -39937.6    2820.7737   -42758.374    100.71193   0.97997896 
   31300    228.53305     99.05569    127688.39   -39884.925    2843.3856   -42728.311    100.89779   0.97811154 
   31400    232.81997    22.249961    127675.68   -39846.638     2896.723   -42743.362    101.14679   0.97820891 
   31500    231.18533   -74.588287    127571.69   -39903.277     2876.385   -42779.662    101.52186   0.97900629 
   31600    231.78135   -66.495476    127556.27   -39838.617    2883.8007   -42722.418    101.84131    0.9791247 
   31700    234.39968    33.436356    127532.54   -39885.589    2916.3776   -42801.966    102.11178   0.97930689 
   31800    230.54931    -29.28204    127402.43   -39828.662    2868.4717   -42697.134    101.94093   0.98030699 
   31900    235.85031    239.31511    127669.69   -39821.067    2934.4263   -42755.493     102.5748   0.97825482 
   32000    230.74464   -56.071813    127602.05   -39805.281     2870.902   -42676.183    102.92802   0.97877336 
   32100    233.87025   -20.219536    127641.56    -39824.34    2909.7905    -42734.13    103.47279   0.97847044 
   32200    229.55445    85.270949    127708.18   -39809.617    2856.0937   -42665.711    103.72807   0.97795999 
   32300    229.07298    78.842082    127740.03   -39783.941    2850.1034   -42634.045    103.86886   0.97771617 
   32400     231.0338    60.538163    127603.46   -39853.312    2874.4997   -42727.811    104.16025   0.97876255 
   32500    229.42568    61.452798    127628.07   -39862.789    2854.4917    -42717.28    104.48485   0.97857387 
   32600    228.32888   -44.841634    127667.83   -39803.362    2840.8453   -42644.207    104.63284   0.97826907 
   32700    226.20645    167.78005    127414.13   -39869.115    2814.4383   -42683.554    104.47289   0.98021696 
   32800    226.14704    156.44947    127566.85   -39891.349    2813.6991   -42705.048    104.84504   0.97904348 
   32900    227.96509    195.81737    127749.61   -39889.446    2836.3191   -42725.765     105.3918   0.97764283 
   33000    228.85312   -50.169129    127610.88    -39951.83    2847.3678   -42799.198    105.55233   0.97870563 
   33100    232.55363    6.7752159     127604.6   -39878.368    2893.4093   -42771.777    106.03852   0.97875384 
   33200    227.66148    29.081081     127413.6   -39899.342    2832.5416   -42731.884    106.18665   0.98022101 
   33300    230.92716   -22.512755     127447.2   -39834.067    2873.1729    -42707.24    106.32262   0.97996261 
   33400    226.10691    82.013929    127474.35   -39921.826    2813.1998   -42735.025     106.9849   0.97975389 
   33500    228.69994     120.7935    127635.48   -39880.769     2845.462   -42726.231    107.15496     0.978517 
   33600    231.58099    56.913919     127657.1   -39867.459    2881.3078   -42748.767    107.32789    0.9783513 
   33700    232.84251   -109.48493    127683.95   -39870.661    2897.0035   -42767.665    107.93904   0.97814557 
   33800    232.90644    180.61733    127747.48   -39871.963    2897.7988   -42769.761    108.00807   0.97765912 
   33900    231.56498    178.52565    127904.21   -39881.727    2881.1087   -42762.835     108.5539   0.97646117 
   34000    234.99481    26.361757    127992.07   -39854.968    2923.7822    -42778.75    108.83275   0.97579084 
   34100    231.72256   -29.022556    127779.68   -39901.334    2883.0692   -42784.403    109.00468   0.97741274 
   34200    230.25754    75.870102    127623.02   -39903.676    2864.8415   -42768.517    109.22174   0.97861254 
   34300    228.10212    -21.33418    127526.25   -39957.378     2838.024   -42795.402    109.46079   0.97935516 
   34400    228.05489   -29.987268    127470.12   -39878.225    2837.4363   -42715.661    109.77657   0.97978639 
   34500     229.1103     11.08077    127385.06   -39885.752    2850.5677   -42736.319    110.11704   0.98044065 
   34600    228.97093   -169.64549       127067   -39855.815    2848.8337   -42704.649    110.55934   0.98289475 
   34700     222.8566   -9.3148835     127031.7   -39924.958    2772.7598   -42697.718    111.07252   0.98316793 
   34800     229.8713   -48.137867     127016.8   -39894.916     2860.036   -42754.952    111.75619   0.98328326 
   34900    231.56263     85.32383       126974   -39892.346    2881.0794   -42773.425    111.93923   0.98361469 
   35000     225.3498   -28.909045    126975.14   -39952.156      2803.78   -42755.936    112.50489   0.98360588 
   35100    225.45089    90.212974    126861.29   -39880.998    2805.0377   -42686.036    112.52227   0.98448862 
   35200    225.31389    44.027389    126937.75   -39877.825    2803.3331   -42681.158    112.46219   0.98389555 
   35300    228.53813   -128.41629    126726.36   -39860.038    2843.4489   -42703.487    113.10405   0.98553677 
   35400    226.53137    33.808866    126850.82   -39891.044     2818.481   -42709.525    112.95706   0.98456981 
   35500    231.33588    193.22806    126868.87   -39763.894    2878.2581   -42642.152    113.23493   0.98442977 
   35600    229.05978    243.43584    126904.85   -39809.859    2849.9392   -42659.798    113.70042   0.98415063 
   35700    229.38689   -90.438376    127019.58   -39785.136     2854.009   -42639.145    114.49907   0.98326169 
   35800     230.5578    -33.92066    126826.88   -39820.801    2868.5774   -42689.379    114.92983   0.98475568 
   35900     232.8195     42.70327    126913.36   -39767.805    2896.7172   -42664.523    115.15265   0.98408468 
   36000    231.34878     225.0974    126942.74   -39730.688    2878.4187   -42609.106    115.78967   0.98385687 
   36100    236.86793    238.32237     127162.4   -39757.692    2947.0874   -42704.779    116.39491   0.98215742 
   36200    230.34506    161.26106    127211.78   -39796.435    2865.9304   -42662.366    116.71531   0.98177615 
   36300    226.55232   -255.94031     127058.6   -39879.284    2818.7416   -42698.025    116.74896   0.98295973 
   36400    234.29922    172.56613     127124.5   -39813.675    2915.1278   -42728.802    117.09242   0.98245022 
   36500    230.46779    -37.09256    127224.64   -39799.784    2867.4575   -42667.242    117.79813   0.98167689 
   36600    227.70769    40.388917    126965.18   -39939.516    2833.1166   -42772.633     118.1349   0.98368301 
   36700    225.59342   -1.0557728    126853.98   -39878.813    2806.8111   -42685.624    118.33878   0.98454534 
   36800    229.16275   -41.321515    126905.23   -39868.293    2851.2203   -42719.514    118.31165    0.9841477 
   36900    230.68958  -0.81388834    126897.32   -39871.778    2870.2169   -42741.995    118.53017   0.98420907 
   37000    230.24402    12.933705    126769.12   -39795.607    2864.6733    -42660.28    118.84985   0.98520437 
   37100    230.47652   -37.858525    126545.45   -39765.844    2867.5661    -42633.41    118.89683   0.98694576 
   37200     228.4129   -107.59536    126479.94    -39816.32    2841.8907    -42658.21    119.50802   0.98745693 
   37300    229.62735    119.98984    126409.38   -39829.559    2857.0009    -42686.56    119.70714   0.98800811 
   37400    228.40456    238.25722    126457.06     -39860.7    2841.7869   -42702.487    119.80177   0.98763556 
   37500    227.46334   -42.799085    126385.15   -39862.524    2830.0764   -42692.601     119.9362   0.98819749 
   37600    227.49603    78.026049     126435.5   -39803.505    2830.4831   -42633.989    120.49514     0.987804 
   37700    230.20521   -60.027323    126365.71   -39798.559    2864.1905    -42662.75    120.50184   0.98834951 
   37800    224.41472   0.64593147    126316.14    -39889.97    2792.1457   -42682.116    120.82058   0.98873741 
   37900    229.41858   -65.136593    126287.98   -39847.193    2854.4033   -42701.596    120.97812   0.98895785 
   38000    227.01705   -10.691523    126496.56   -39807.649    2824.5237   -42632.173    121.29045   0.98732716 
   38100    230.64312   -57.894914    126528.37   -39775.997     2869.639   -42645.636    121.33701   0.98707896 
   38200    226.62864    52.068682    126720.65   -39787.352    2819.6911   -42607.043    121.85636   0.98558125 
   38300    231.96515   -14.132058    126643.93   -39725.377    2886.0874   -42611.464    122.25762   0.98617823 
   38400    230.40815    141.85809    126704.65   -39793.066    2866.7154   -42659.782    122.96257   0.98570568 
   38500    227.92681    183.16194    126809.69   -39794.045    2835.8429   -42629.888    123.09203   0.98488919 
   38600    229.86751   -34.277727    126851.03   -39748.625    2859.9888   -42608.614    123.29828    0.9845682 
   38700    231.87754   -77.665108    126745.94   -39763.436    2884.9975   -42648.434    123.65206   0.98538458 
   38800    228.45902    183.16151    126577.94   -39779.438    2842.4646   -42621.903    123.73086   0.98669236 
   38900    229.41667    154.21838    126739.74   -39718.483    2854.3796   -42572.862     124.1768   0.98543274 
   39000    232.47993    65.260385    126729.75   -39786.744    2892.4923   -42679.236    123.99883   0.98551042 
   39100    227.45171    227.49511    126738.38   -39744.309    2829.9316    -42574.24    124.54883   0.98544333 
   39200    231.43224    149.96124    126802.32   -39764.303    2879.4571    -42643.76    124.65544   0.98494643 
   39300    229.54451    88.224401    126881.87   -39759.049    2855.9701    -42615.02    124.74715   0.98432889 
   39400    229.63094    -90.88436    126797.77   -39735.295    2857.0455    -42592.34    125.03373    0.9849818 
   39500     233.5878   -63.748785    126547.32   -39721.213    2906.2763   -42627.489    124.90611   0.98693112 
   39600    228.74788    223.65725    126656.41   -39782.152    2846.0585   -42628.211    125.30524    0.9860811 
   39700    226.78902    170.49374    126785.63    -39726.45    2821.6865   -42548.137    125.88059   0.98507607 
   39800    232.03688    105.59398    126812.43   -39801.059      2886.98   -42688.039    126.24955   0.98486788 
   39900    228.66386    209.94069    126960.93    -39838.71    2845.0131   -42683.723    126.65229   0.98371594 
   40000    223.72475    17.824568    126883.29   -39862.226    2783.5613   -42645.787    126.65566   0.98431788 
   40100    228.96649    65.626381    126972.17   -39770.117    2848.7785   -42618.895     127.2327   0.98362885 
   40200     228.5261    22.190541    126798.44   -39785.074    2843.2992   -42628.373     127.8132   0.98497653 
   40300    231.61343    39.774587    126810.85   -39745.566    2881.7114   -42627.278    128.14203    0.9848802 
   40400     230.7062   -54.480592    126996.13   -39627.439    2870.4237   -42497.863    128.94591   0.98344327 
   40500    228.51716    23.069747    126725.65   -39627.767    2843.1879   -42470.955    128.71567   0.98554233 
   40600    228.80982   -102.05873    126786.86   -39652.225    2846.8292   -42499.054    128.66188   0.98506654 
   40700    231.65557    3.1277908    126551.46   -39701.582    2882.2357   -42583.818    128.77194   0.98689888 
   40800    227.73643   -71.284267    126641.91   -39749.167    2833.4741   -42582.641    129.36729   0.98619402 
   40900    228.26395    129.39242    126632.52   -39781.102    2840.0375   -42621.139    130.00422   0.98626715 
   41000    229.72406    212.15172     126697.4    -39713.55     2858.204   -42571.754    130.15219   0.98576203 
   41100    232.04114    124.15301     126782.4   -39705.763    2887.0329   -42592.796    131.00043   0.98510115 
   41200    228.20496    161.57838    126799.73   -39722.121    2839.3036   -42561.424    131.59889   0.98496655 
   41300      226.693   -40.072151    126774.07   -39878.761    2820.4919   -42699.253    131.91047   0.98516587 
   41400     228.0762    172.31624     126625.9   -39838.342    2837.7015   -42676.043     131.6591   0.98631865 
   41500    226.12172   -221.87645    126528.01    -39846.91    2813.3841   -42660.294    132.19818   0.98708177 
   41600    223.83728    7.8296079    126344.31   -39801.642    2784.9614   -42586.603    132.30756   0.98851694 
   41700    229.30328   -43.077427    126485.44   -39761.268    2852.9687   -42614.237    133.03699   0.98741398 
   41800    224.44779    65.137562    126599.72   -39759.047    2792.5572   -42551.604    132.92356   0.98652267 
   41900    228.47011   -102.12372    126447.62   -39738.798    2842.6025   -42581.401    132.86019    0.9877093 
   42000    231.08959   -56.175346    126529.95   -39733.254    2875.1939   -42608.448    133.51795   0.98706662 
   42100    228.88113   -61.937575    126496.46   -39711.996    2847.7164   -42559.712    133.87536   0.98732797 
   42200    230.40941    74.018889    126498.88   -39672.142    2866.7311   -42538.873    134.65413   0.98730906 
   42300    231.91581   -214.54196    126545.89   -39657.394    2885.4736   -42542.867    135.39008   0.98694233 
   42400    232.44295    170.90165    126523.25   -39700.238    2892.0322    -42592.27    135.63501   0.98711887 
   42500    231.45777    210.28915    126504.95     -39681.6    2879.7747   -42561.375    136.30882   0.98726168 
   42600    231.11079    26.641081    126658.55   -39694.864    2875.4576   -42570.321    136.63819   0.98606441 
   42700    229.17049   -70.384898    126691.03   -39707.134    2851.3165    -42558.45    137.29808   0.98581167 
   42800    230.96502    239.42092    126773.04   -39662.377    2873.6439   -42536.021    137.79955   0.98517389 
   42900    230.33796      41.2256    126855.87   -39748.833    2865.8421   -42614.675    138.07803    0.9845306 
   43000    232.04111    -61.06461    126806.53   -39786.458    2887.0325   -42673.491    138.59903   0.98491375 
   43100    231.09927    29.579413    126795.88   -39777.728    2875.3143   -42653.042    138.52771   0.98499646 
   43200    231.63941    148.14873    126706.78    -39722.45    2882.0346   -42604.485    138.68502   0.98568909 
   43300    231.45176    86.735306    126762.18   -39723.058    2879.6999   -42602.758     139.0051   0.98525831 
   43400    237.07787    138.57259    126799.59       -39682    2949.6994   -42631.699    139.34478   0.98496762 
   43500    231.09722    134.73467     127017.6   -39686.785    2875.2888   -42562.074    140.08684   0.98327702 
   43600    232.95996    69.280728    127084.39   -39578.303    2898.4648   -42476.768    140.78468   0.98276026 
   43700    237.60735    214.67767    127190.16   -39616.393    2956.2872   -42572.681    141.18859   0.98194304 
   43800    236.51685    1.8319452    127081.36   -39637.338    2942.7192   -42580.057    141.43046    0.9827837 
   43900    234.91138   -57.190495     126924.1   -39671.626    2922.7442    -42594.37    141.55058   0.98400142 
   44000    234.41908    119.08322    127034.06   -39709.984     2916.619   -42626.603    142.01764   0.98314962 
   44100     228.2422   -95.714587    127217.81   -39723.002    2839.7669   -42562.769    142.16539   0.98172963 
   44200    227.62736    135.08006    126908.96   -39772.287    2832.1171   -42604.404    142.63612    0.9841188 
   44300    229.82203   -173.60556    126952.07   -39778.758     2859.423   -42638.181    142.95132   0.98378457 
   44400    230.37737    98.242896    126801.56   -39746.141    2866.3324   -42612.473    143.63508   0.98495231 
   44500     226.2703    173.61592    126992.28   -39780.561    2815.2327   -42595.794    144.39316    0.9834731 
   44600    229.58067   -31.418631    126693.25   -39846.285      2856.42   -42702.705    144.48676   0.98579437 
   44700    225.31051    84.173593     126786.6   -39814.844    2803.2911   -42618.135    144.79522   0.98506857 
   44800    228.92192   -30.321136    126819.06   -39785.475    2848.2239   -42633.699    144.74758   0.98481639 
   44900    227.21189   -71.560321    126748.73   -39743.434    2826.9479   -42570.382    145.12717   0.98536286 
   45000    227.12858    73.988339    126660.08   -39741.345    2825.9113   -42567.256    145.13129   0.98605251 
   45100    237.21988   -14.235798    126822.78   -39682.271    2951.4663   -42633.738    145.81268   0.98478755 
   45200     229.8697    41.366082    126957.33   -39729.884    2860.0161   -42589.901    146.41251   0.98374381 
   45300    225.80887     122.1397    126858.42   -39736.994    2809.4916   -42546.486     146.7539   0.98451086 
   45400    228.11608    54.834547    126999.43   -39692.687    2838.1977   -42530.885    147.50819   0.98341772 
   45500    233.29156    107.35847    127037.18   -39700.062    2902.5906   -42602.653    148.40478   0.98312549 
   45600    232.07794    130.61194    127019.48   -39706.463    2887.4908   -42593.954    148.89754   0.98326251 
   45700    229.12712   -189.10058    126846.56   -39730.117     2850.777   -42580.894    149.06359   0.98460292 
   45800    235.05674    68.007255    126567.05   -39690.273    2924.5528   -42614.825    149.50458   0.98677727 
   45900    231.60146    93.126843    126725.79   -39644.584    2881.5625   -42526.146    150.12131   0.98554122 
   46000     236.0606   -13.847413    126818.72   -39619.262    2937.0427   -42556.304     150.4737   0.98481906 
   46100    236.57452    82.361195     127071.3   -39573.408    2943.4368   -42516.845    150.81334   0.98286149 
   46200    232.14292    188.03767    127027.08   -39564.008    2888.2993   -42452.308    151.14602   0.98320364 
   46300    235.66944    166.73755    127257.55   -39558.757    2932.1758   -42490.933    151.66169   0.98142304 
   46400    238.76086    32.107551    127423.44   -39605.859     2970.639   -42576.498    151.80666   0.98014531 
   46500    234.67682    34.532426    127443.74   -39621.247    2919.8258   -42541.073    151.93815   0.97998924 
   46600    233.38603   -179.66649    127398.25     -39621.9    2903.7659   -42525.666    152.36618   0.98033914 
   46700    226.68836   -94.589157       127317   -39723.858    2820.4342   -42544.292    152.52749   0.98096474 
   46800    228.75684    177.09971    127082.85   -39777.444      2846.17   -42623.614    152.29933   0.98277222 
   46900    233.23822     12.59538    127077.21   -39706.761    2901.9269   -42608.687    152.88331    0.9828158 
   47000     235.6694    196.87502    127266.99   -39697.278    2932.1754   -42629.453     153.4351   0.98135027 
   47100     233.3436    236.98271    127370.23   -39684.241    2903.2379   -42587.479    153.27059   0.98055484 
   47200    231.53364    225.90187    127316.97     -39755.5    2880.7186   -42636.219    153.35947   0.98096501 
   47300    224.71075     157.2946    127318.99   -39779.455     2795.829   -42575.284     153.9819   0.98094942 
   47400    232.16733    19.967811    127316.99   -39744.831    2888.6029   -42633.434    154.65725   0.98096487 
   47500    233.76922    29.291521    127367.07   -39693.089    2908.5335   -42601.623    154.82779   0.98057913 
   47600    232.93081     54.01979    127223.96   -39662.455    2898.1021   -42560.558    154.88348   0.98168216 
   47700    233.41602   -183.29931     127274.3   -39709.671     2904.139    -42613.81    155.04062   0.98129384 
   47800    229.69999    165.76974    127141.75   -39715.413    2857.9046   -42573.317    155.03291   0.98231692 
   47900    228.35172    57.086821     126994.5   -39804.021    2841.1296   -42645.151    155.30931    0.9834559 
   48000    227.06762     61.93059    126992.52   -39826.196    2825.1529   -42651.349    155.87935    0.9834712 
   48100    227.33518    87.364169     127049.7   -39778.516    2828.4818   -42606.998    155.80302   0.98302859 
   48200    228.69111   -54.390823    126967.89    -39811.11    2845.3522   -42656.462     156.2285     0.983662 
   48300    227.96746    48.747397    126870.75   -39814.939    2836.3486   -42651.287    156.13747   0.98441517 
   48400    233.73456   -127.10437    126914.41   -39725.442    2908.1023   -42633.545    156.37932   0.98407649 
   48500     226.4996   -160.90686    126802.38   -39782.183    2818.0856   -42600.268    156.73425   0.98494595 
   48600    230.87247   -2.4060268     126669.6   -39787.409    2872.4925   -42659.902    157.10677    0.9859784 
   48700    232.97814      58.1363    126665.76   -39749.651     2898.691   -42648.342    157.40659   0.98600834 
   48800    228.44437    282.90292    126707.48   -39768.892    2842.2823   -42611.174     157.6667   0.98568367 
   48900    233.26874    16.596829    126714.86   -39748.407    2902.3066   -42650.714    157.58342   0.98562626 
   49000    231.74024   -3.1191675    126551.24   -39782.472    2883.2892   -42665.761     157.9051   0.98690057 
   49100    228.65355   -102.35487    126650.47   -39766.107    2844.8848   -42610.992    158.28213   0.98612734 
   49200    229.01099    268.15502    126678.83   -39777.154    2849.3321   -42626.487     158.6918   0.98590659 
   49300    228.67136   -72.051018    126758.94     -39713.7    2845.1065   -42558.806    159.27695   0.98528349 
   49400    231.35349    446.92781    126626.56   -39693.586    2878.4773   -42572.064    159.21302   0.98631353 
   49500    232.84418    10.820009    126794.36   -39712.871    2897.0242   -42609.896    159.72222   0.98500829 
   49600    233.75108   -97.318977    126680.02    -39715.04    2908.3078   -42623.348    159.80384   0.98589734 
   49700    231.32254    285.87327    126555.17    -39727.18    2878.0921   -42605.272    160.06177   0.98686992 
   49800    226.90908    7.8003575    126709.01   -39758.937    2823.1803   -42582.118    160.62529   0.98567176 
   49900    235.97788    72.768882    126768.03   -39641.914    2936.0135   -42577.928    161.46203   0.98521287 
   50000    233.32676    160.43053    126515.18   -39697.542    2903.0285    -42600.57    161.71364   0.98718184 
   50100    231.66667    154.60373    126716.08   -39733.619    2882.3737   -42615.993    162.29908   0.98561674 
   50200     233.5233    258.06811    127042.24   -39783.709    2905.4739   -42689.183    162.88329   0.98308634 
   50300    230.68406     67.19868    126946.02   -39755.947    2870.1483   -42626.095    163.14525   0.98383152 
   50400    233.71486    142.63052    127016.78   -39777.022    2907.8572   -42684.879    163.32371   0.98328337 
   50500    228.31007    14.099623    126986.72   -39832.225    2840.6113   -42672.837    163.70149   0.98351613 
   50600    225.18273   -2.2294171     126760.2   -39864.344    2801.7013   -42666.046    163.70976   0.98527371 
   50700    226.64811     146.5211    126782.57   -39878.426    2819.9334   -42698.359    164.24802   0.98509986 
   50800    227.58006    131.44963    127021.79   -39861.803    2831.5287   -42693.332    164.71371   0.98324461 
   50900     232.3259    194.00898    127011.98   -39761.395    2890.5758   -42651.971    164.72245   0.98332054 
   51000    226.07254   -26.751683    126947.02   -39797.544    2812.7723   -42610.316    164.98191   0.98382372 
   51100    230.52826   -54.185411     126819.3   -39842.466    2868.2098   -42710.676    165.02259   0.98481455 
   51200    227.11869    113.69252    126613.56   -39839.635    2825.7883   -42665.423    165.16418   0.98641478 
   51300    227.13157    111.56426    126545.93   -39885.741    2825.9485    -42711.69    165.31139   0.98694201 
   51400     226.1538    246.07416    126532.37   -39888.107    2813.7832    -42701.89    165.77058   0.98704776 
   51500    226.11719    87.470781    126706.09   -39896.386    2813.3277   -42709.714    166.11282   0.98569448 
   51600    227.83936    175.85656    126666.81   -39839.196    2834.7548    -42673.95    166.42939   0.98600012 
   51700    226.65948   -37.861543    126740.33   -39804.242    2820.0749   -42624.317    166.65886   0.98542817 
   51800    227.81033    43.125981    126704.18   -39838.473    2834.3936   -42672.867     166.9555   0.98570934 
   51900    229.22098    66.389944    126649.57   -39858.664    2851.9448   -42710.608    166.45137   0.98613437 
   52000    224.63313   -126.59435    126489.69   -39875.725    2794.8632   -42670.588    166.53327   0.98738079 
   52100    226.27876    313.22391    126459.48   -39814.121     2815.338   -42629.459     166.8012   0.98761666 
   52200    228.58818    58.450232    126649.12    -39840.44    2844.0715   -42684.511     167.3084   0.98613788 
   52300    226.57317   -40.890126    126545.83   -39819.826     2819.001   -42638.827    167.34901   0.98694273 
   52400    230.84721    92.649408    126460.34   -39771.439    2872.1782   -42643.617    167.67624   0.98760997 
   52500    231.17021    23.692919    126686.41   -39760.684    2876.1969   -42636.881     168.2071   0.98584757 
   52600    231.92008   -9.7663155    126405.24   -39797.749    2885.5268   -42683.276    168.35187   0.98804044 
   52700    228.87134   -33.481117    126461.02   -39819.705    2847.5945   -42667.299    168.35648   0.98760466 
   52800    232.72752    14.813582    126401.85   -39757.377    2895.5728    -42652.95    168.75786   0.98806694 
   52900    226.12706   -182.88192    126689.58   -39748.184    2813.4505   -42561.634    168.92821   0.98582288 
   53000    232.48635   -28.874273    126614.26    -39723.02    2892.5722   -42615.592    169.07754   0.98640938 
   53100      231.562    286.08537    126787.85   -39775.862    2881.0715   -42656.933    169.25538   0.98505885 
   53200    230.91198    116.74789    126992.99   -39775.312     2872.984   -42648.296     169.9129    0.9834676 
   53300    226.31534   -148.28214    127078.52   -39773.381    2815.7931   -42589.174     170.2539   0.98280567 
   53400    225.17877    66.751767    126787.25   -39855.598     2801.652    -42657.25    170.35116   0.98506352 
   53500    228.55414    218.69104    126795.51   -39869.875     2843.648   -42713.523    170.38387   0.98499933 
   53600    228.74353    201.47533    126864.07   -39872.827    2846.0044   -42718.832    170.88421   0.98446698 
   53700    225.65793    216.68345    126892.91   -39899.571    2807.6137   -42707.185    171.48193   0.98424324 
   53800    225.20762    152.99305    126992.65   -39774.107    2802.0109   -42576.118    171.98369    0.9834702 
   53900    229.51139    65.370969    126935.34   -39828.339    2855.5581   -42683.897    172.04576   0.98391428 
   54000    230.98613    88.162125     127031.9   -39796.349    2873.9066   -42670.256    172.14647    0.9831664 
   54100    234.10888   -9.6700188    126907.44    -39831.67    2912.7596    -42744.43    172.13602    0.9841306 
   54200    227.78838   -43.090681    126838.61   -39798.213    2834.1206   -42632.334    172.68927    0.9846646 
   54300    233.40037   -10.965083    126940.06   -39769.616    2903.9444   -42673.561    172.41587    0.9838777 
   54400    231.67442   0.34896742    126923.69   -39816.973    2882.4702   -42699.443    172.85384   0.98400461 
   54500    232.05719   -102.21634    126672.19   -39804.993    2887.2326   -42692.225    172.71836   0.98595828 
   54600    232.93371    -29.00274    126789.35   -39695.112    2898.1382    -42593.25    172.95365   0.98504715 
   54700    234.90634    150.85703    126721.39   -39696.686    2922.6815   -42619.367    173.11407   0.98557549 
   54800     227.7218    291.00708     127168.4   -39768.072    2833.2921   -42601.364    173.70062   0.98211107 
   54900    231.78684    97.642784    127027.08   -39834.706     2883.869   -42718.575    174.13449   0.98320363 
   55000    224.43094   -69.251945    127001.55   -39910.451    2792.3476   -42702.799    174.94031   0.98340131 
   55100    230.23645   -96.754452     127118.6   -39879.259    2864.5791   -42743.838    174.99643   0.98249579 
   55200    228.23728    64.184623    127090.22   -39906.846    2839.7057   -42746.552    175.66095   0.98271518 
   55300    229.15936    39.500964    127040.04   -39845.633    2851.1781   -42696.811    175.74632   0.98310336 
   55400    228.77656    -71.92073    126970.89   -39828.863    2846.4154   -42675.278    176.23351   0.98363878 
   55500    228.87196   -25.859179    127163.59   -39765.143    2847.6023   -42612.746    176.49795    0.9821482 
   55600    228.36079   -89.921428    127012.09   -39804.055    2841.2424   -42645.298    176.33399   0.98331967 
   55700    229.40612    30.179925    127106.23   -39802.641    2854.2483   -42656.889    176.68896   0.98259146 
   55800    227.78173     55.58832    126926.47     -39799.7    2834.0377   -42633.737    176.27373   0.98398304 
   55900     235.3381   -21.247645    126958.65   -39763.015    2928.0534   -42691.069    176.87728   0.98373362 
   56000     235.0993    156.01967    126928.66   -39736.614    2925.0822   -42661.696    177.18699   0.98396602 
   56100    233.54504    50.850608    126951.76   -39698.298    2905.7443   -42604.042     177.9302   0.98378702 
   56200    238.39761    104.49633    127018.38   -39706.694    2966.1196   -42672.813     178.3988   0.98327103 
   56300    231.03553    88.141185    127115.29   -39748.453    2874.5212   -42622.975    178.70311   0.98252139 
   56400    232.18041    135.27462     126944.7   -39735.158    2888.7657   -42623.924    178.85034   0.98384173 
   56500    229.55334    39.416559    127069.24   -39824.428      2856.08   -42680.508    179.34025   0.98287745 
   56600    228.37455   -124.51391    126756.41   -39854.482    2841.4135   -42695.895    179.28403   0.98530314 
   56700    226.56228     232.3038     126961.6   -39892.931    2818.8655   -42711.797    180.32426   0.98371077 
   56800    232.86414    32.792769    127183.34   -39829.117    2897.2726   -42726.389    181.23042   0.98199565 
   56900    230.88132    17.725522    126823.29   -39816.517    2872.6025   -42689.119    181.27302   0.98478359 
   57000    232.04137    127.61645    126998.96       -39773    2887.0357   -42660.036    181.44763   0.98342136 
   57100    230.57993    68.962873    126996.31   -39824.897    2868.8527    -42693.75    181.84914   0.98344188 
   57200    228.80042     -51.6364    127104.89   -39865.592    2846.7122   -42712.305    182.12319   0.98260178 
   57300     225.6346   -149.28198    126879.32   -39921.258    2807.3234   -42728.581    181.94971   0.98434871 
   57400    226.52453    117.36348    126846.15   -39929.777    2818.3958   -42748.173    181.68192   0.98460609 
   57500    222.82484   -9.7040342    126851.44   -39963.179    2772.3646   -42735.543    182.10861   0.98456501 
   57600     227.3126    109.05195    126877.55   -39906.306     2828.201   -42734.507    182.81461    0.9843624 
   57700    229.69569    11.440987    127009.67   -39949.149    2857.8511       -42807    183.15332   0.98333846 
   57800    223.24274   -18.945497    127032.48   -39979.338    2777.5641   -42756.902     183.2256    0.9831619 
   57900    226.00544    112.73297     127002.1   -39948.253    2811.9373    -42760.19    183.38956   0.98339709 
   58000    226.69808    59.928474    127095.55   -39949.748    2820.5551   -42770.303      183.356   0.98267396 
   58100    225.96724    48.828875     126964.1   -39881.839    2811.4621   -42693.301    183.71873   0.98369138 
   58200    230.31563    59.507892    126896.97   -39834.386    2865.5643   -42699.951    183.97549   0.98421174 
   58300    231.86057    104.84657    126965.32   -39769.537    2884.7863   -42654.323    184.53426   0.98368191 
   58400    231.65098    153.92518    127310.79   -39785.477    2882.1786   -42667.655    185.15853   0.98101259 
   58500    230.93995    32.501136    127390.56   -39786.561    2873.3321   -42659.893    185.56288   0.98039831 
   58600    234.02314    -20.48016    127377.09   -39752.005    2911.6928   -42663.698    185.81387     0.980502 
   58700    232.98882    34.540663    127345.78   -39749.495    2898.8239   -42648.319     186.0097   0.98074308 
   58800    233.89361    30.820848    127425.32   -39808.817    2910.0812   -42718.898     187.0385   0.98013087 
   58900    226.20318    377.79244    127387.46    -39851.36    2814.3976   -42665.758    187.10983   0.98042219 
   59000    231.14366    8.6029749    127493.11   -39829.021    2875.8665   -42704.888    187.42736    0.9796097 
   59100    226.55998    25.917531    127400.35   -39830.264    2818.8369   -42649.101     187.7083     0.980323 
   59200    223.75118   -49.171203    127161.19   -39832.828      2783.89   -42616.718    187.52476   0.98216672 
   59300    232.80175    15.451347    127073.26   -39821.473    2896.4964   -42717.969    187.14802   0.98284637 
   59400    228.34292    184.52258     127345.8   -39874.982    2841.0201   -42716.002    187.36333   0.98074289 
   59500    225.92075   -121.04967    127310.23   -39845.927    2810.8836   -42656.811    187.55743   0.98101693 
   59600    228.78845   -20.716319    127348.09   -39835.597    2846.5633    -42682.16    188.05421   0.98072527 
   59700    230.70251    74.429447    127617.41   -39866.356    2870.3779   -42736.734    188.48861   0.97865557 
   59800    225.02226   -67.999163    127505.31   -39885.186    2799.7047   -42684.891     189.0186   0.97951602 
   59900    226.41691    143.89781    127362.92   -39862.672    2817.0568   -42679.729    189.08447   0.98061108 
   60000    229.93127    27.615695    127425.02   -39915.795    2860.7821   -42776.577    189.41421   0.98013318 
   60100    231.84167      1.63334       127469   -39874.718    2884.5511   -42759.269    189.97876   0.97979501 
   60200    233.54401    116.00119    127491.01   -39850.915    2905.7315   -42756.646     190.3338   0.97962584 
   60300    234.03074    350.85829    127595.74   -39807.162    2911.7874   -42718.949    190.89891   0.97882178 
   60400    231.10476    5.3458884    127707.59   -39754.893    2875.3826   -42630.276    190.99156    0.9779645 
   60500    232.00326    16.307503    127677.43   -39785.923    2886.5616   -42672.485      191.489   0.97819551 
   60600    230.15736    106.46262    127717.71   -39832.752    2863.5951   -42696.347    191.27515   0.97788701 
   60700    229.99446    110.53623    127781.23   -39851.858    2861.5684   -42713.426    191.82693   0.97740093 
   60800    227.69489   -269.56892    127654.31   -39802.878    2832.9573   -42635.835    191.89176   0.97837269 
   60900    229.19631    125.96821    127445.73   -39806.869    2851.6378   -42658.507    191.87754   0.97997393 
   61000    231.08749    62.728824    127412.67   -39849.508    2875.1677   -42724.675    192.59029    0.9802282 
   61100    230.25944    34.892947    127333.54   -39877.142    2864.8652   -42742.008    192.96353   0.98083732 
   61200    230.22316   -33.154749    127281.53    -39874.01    2864.4137   -42738.424    193.20857   0.98123817 
   61300    231.15654    -108.7451    127069.43   -39856.794    2876.0269   -42732.821    193.15531   0.98287595 
   61400    227.93188    136.80025    127066.73   -39896.925    2835.9059   -42732.831    193.71967    0.9828969 
   61500     228.7741    57.017426    127169.34   -39889.748    2846.3848   -42736.132     194.1157   0.98210376 
   61600    229.00277    51.833387    126981.23   -39835.043    2849.2298   -42684.273    194.85169   0.98355868 
   61700    226.24229   -14.176183    126961.24   -39903.051    2814.8843   -42717.935     194.5306   0.98371353 
   61800     226.9085    22.175657    127087.72   -39977.765    2823.1732   -42800.938    194.63354    0.9827345 
   61900    225.29669    213.11139    127265.64   -39915.742    2803.1191   -42718.861    195.57863   0.98136062 
   62000     230.0623    252.05197     127204.4   -39875.954    2862.4123   -42738.367    195.97149   0.98183312 
   62100    230.61617    224.92021    127410.87   -39900.643    2869.3036   -42769.946    196.25421   0.98024207 
   62200    230.04831    264.29941    127399.83   -39850.993    2862.2383   -42713.231    196.12183   0.98032695 
   62300     228.6241    107.75967    127436.48   -39884.415    2844.5185   -42728.934    196.38375   0.98004507 
   62400    226.48658   -179.30771     127494.8   -39816.418    2817.9237   -42634.342    196.55251   0.97959675 
   62500    229.90018    54.159421    127532.43   -39832.503    2860.3953   -42692.898    196.78344   0.97930768 
   62600    230.81102    66.706754     127447.2   -39836.522    2871.7278    -42708.25    197.29586   0.97996265 
   62700    225.94268    65.311762    127543.77   -39853.574    2811.1565   -42664.731    197.46839   0.97922064 
   62800    228.78424   -93.812172    127287.03   -39840.347    2846.5109   -42686.858    197.29989   0.98119572 
   62900     234.3491    110.39924    127140.35    -39804.21    2915.7483   -42719.958    197.86634   0.98232774 
   63000    232.47654   -76.058452    127259.94   -39775.659    2892.4501   -42668.109    198.79729   0.98140463 
   63100    235.12583    237.81785    127218.02    -39757.66    2925.4123   -42683.073    199.08864   0.98172798 
   63200    233.13819    107.31776    127054.94   -39775.832    2900.6823   -42676.514    198.54628   0.98298808 
   63300    229.15438   -49.271237    126955.28   -39808.113    2851.1161   -42659.229    198.98863   0.98375971 
   63400    232.40602    140.06604    127114.61   -39718.739    2891.5727   -42610.311    199.39825   0.98252664 
   63500    230.11629    167.89301    127290.28   -39826.431    2863.0841   -42689.515    199.87722   0.98117072 
   63600     230.2335   -208.90056    127136.43   -39824.754    2864.5424   -42689.297    200.03794   0.98235802 
   63700    228.43194    11.289505    127231.14   -39817.882    2842.1277    -42660.01    200.52614   0.98162676 
   63800      224.866    32.620298    127244.63   -39929.378    2797.7606   -42727.139    201.32312   0.98152265 
   63900    228.70729    210.15517    127220.09   -39928.278    2845.5535   -42773.832    201.28019   0.98171201 
   64000    226.12909    79.262955    127254.61    -39917.14    2813.4757   -42730.616    201.02024   0.98144575 
   64100     230.5882   -189.80448    127166.66   -39833.869    2868.9556   -42702.824    201.30071   0.98212447 
   64200    232.02528    164.96012    127238.02   -39819.781    2886.8356   -42706.617    202.01486   0.98157367 
   64300    233.34496    43.195007    127281.36   -39719.248    2903.2549   -42622.503    202.21414   0.98123942 
   64400    229.72104    58.417374    127345.01   -39742.136    2858.1664   -42600.302    202.52709   0.98074903 
   64500    236.64551    218.08819    127246.19   -39730.473      2944.32   -42674.793    202.88489   0.98151064 
   64600    231.80086    107.71588    127234.03   -39812.531    2884.0433   -42696.574     203.1156   0.98160447 
   64700    230.27777    202.20783    127399.46   -39832.993    2865.0932   -42698.086    203.41927   0.98032987 
   64800    227.13722       62.034    127504.39   -39852.525    2826.0189   -42678.543    203.82895   0.97952307 
   64900    229.09136   -121.62949    127351.29   -39830.641    2850.3321   -42680.973    203.67673   0.98070065 
   65000    230.53815    186.98736    127461.09   -39794.368    2868.3329   -42662.701      203.953   0.97985579 
   65100    226.58911   -56.818928    127336.83   -39827.393    2819.1993   -42646.592    204.37734     0.980812 
   65200    230.36941   -58.771433     127056.9   -39811.267    2866.2334   -42677.501    203.97598   0.98297293 
   65300    235.89132    64.535133    127126.32   -39802.314    2934.9364    -42737.25      204.366   0.98243613 
   65400    229.56098    127.61852     127056.8   -39742.949     2856.175   -42599.124      204.602    0.9829737 
   65500    231.44152    206.30467    127107.52   -39812.887    2879.5726   -42692.459    205.10416   0.98258142 
   65600    227.77187   -131.96966     127259.5   -39841.056    2833.9151   -42674.971    205.39267     0.981408 
   65700    228.89168    81.010353    127191.81   -39889.384    2847.8476   -42737.231    205.40662   0.98193026 
   65800    227.86263   -8.4003659    127106.54   -39899.009    2835.0443   -42734.054    205.20137   0.98258899 
   65900    229.31461   -220.96106    127043.46   -39873.118    2853.1097   -42726.227    205.26017   0.98307689 
   66000    233.16827     19.08932     127069.9   -39773.428    2901.0565   -42674.485    205.44984   0.98287236 
   66100    230.58106    163.40911     127159.6   -39720.826    2868.8668   -42589.692    205.89187   0.98217902 
   66200    233.37693   -26.023695    127239.44   -39685.601    2903.6527   -42589.254     206.1378   0.98156271 
   66300    233.06667    59.108693    127154.15   -39721.643    2899.7925   -42621.435    205.97075    0.9822211 
   66400    226.48135    242.11874    127148.05   -39767.479    2817.8585   -42585.337    206.20865   0.98226827 
   66500    227.61289    167.55699    127283.25   -39791.529     2831.937   -42623.466    206.25193   0.98122489 
   66600    232.48342    139.58785    127465.97   -39808.842    2892.5357   -42701.378    207.24846   0.97981834 
   66700    227.53821    137.89871    127610.71   -39834.609    2831.0079   -42665.617    207.40852   0.97870699 
   66800    230.47571    78.505669    127674.48   -39757.797     2867.556   -42625.353    208.32314   0.97821811 
[...]
   84600    226.71633    161.54256    126885.49   -39844.815    2820.7821   -42665.597    258.58781   0.98430082 
   84700    225.40156   -66.060334    126757.09   -39847.865    2804.4239   -42652.289    259.16604   0.98529789 
   84800    229.35956   -93.090752     126688.8   -39829.181    2853.6689    -42682.85      259.695   0.98582901 
   84900    230.04843    159.49067    126745.47   -39829.172    2862.2399   -42691.411    260.31688   0.98538818 
   85000    232.66484   -281.84971    126368.46   -39771.094    2894.7929   -42665.887    259.87901   0.98832803 
   85100    230.12079    76.119961    126275.62   -39780.979    2863.1402   -42644.119    259.99187   0.98905467 
   85200    232.08465    381.96971    126669.15   -39789.065    2887.5743   -42676.639    260.44589   0.98598194 
   85300    225.48029    212.69366    127055.85   -39815.403    2805.4035   -42620.806    261.12177   0.98298103 
   85400    228.51051    68.634395    126945.48   -39785.617    2843.1051   -42628.722     261.5143   0.98383566 
   85500    232.60757   -116.69702    126746.39   -39744.756    2894.0804   -42638.836    261.45169   0.98538107 
   85600    228.14795       34.473    126636.09   -39717.463    2838.5942   -42556.057    261.66369   0.98623932 
   85700    230.04659    100.40485    126657.61   -39757.208     2862.217   -42619.425    262.09172   0.98607176 
   85800    230.74139    61.095992    126791.72   -39758.887    2870.8616   -42629.748    262.86886   0.98502878 
   85900    232.81778    228.80046    126781.13   -39638.533    2896.6958   -42535.229    262.97761   0.98511107 
   86000    229.63875   -35.459197    126847.09   -39682.866    2857.1427   -42540.009    263.72936   0.98459882 
   86100      228.016   -130.70179    126855.45   -39666.453    2836.9525   -42503.405    263.57936   0.98453387 
   86200    228.86002   -81.332724    126689.04   -39624.483    2847.4537   -42471.937    263.57509   0.98582713 
   86300     228.4835   -29.386459    126574.44   -39658.662    2842.7692   -42501.431    263.82728   0.98671968 
   86400    226.28964    84.848685    126321.79   -39683.573    2815.4734   -42499.046    264.12023   0.98869314 
   86500    229.94836    94.574656    126368.57       -39678    2860.9948   -42538.995    264.00067   0.98832718 
   86600    236.35497    24.499505    126400.26   -39626.006    2940.7051   -42566.711    264.15759    0.9880794 
   86700    230.60794    40.067362    126549.52    -39636.36    2869.2012   -42505.561    264.78259     0.986914 
   86800    228.16718    225.64231    126466.84   -39730.159    2838.8335   -42568.992    265.15536   0.98755919 
   86900    230.71545    200.65418    126330.73   -39701.857    2870.5388   -42572.396    265.28739    0.9886232 
   87000    228.76525    196.97069    126647.09   -39698.676    2846.2746   -42544.951    266.06233   0.98615364 
   87100    230.00474    284.17516    126796.41   -39742.876    2861.6962   -42604.573    267.13921   0.98499235 
   87200    232.58308    66.059414    127084.31   -39724.399    2893.7757   -42618.175    267.77346   0.98276091 
   87300     232.7392    109.73329    126920.49    -39742.33    2895.7181   -42638.048    267.90658   0.98402935 
   87400    230.79627    244.55505    127118.67   -39750.381    2871.5444   -42621.925    268.35407   0.98249523 
   87500    229.85328    -172.3309    127122.17   -39762.222    2859.8118   -42622.034    268.99599   0.98246822 
   87600    229.07573    78.024083    126994.97    -39769.58    2850.1376   -42619.718     268.5376   0.98345225 
   87700    232.09938    175.46486    126965.72   -39794.167    2887.7576   -42681.925    268.89293   0.98367886 
   87800    234.23481    274.84742    126815.25   -39795.379    2914.3263   -42709.705    268.36591   0.98484599 
   87900    230.78886    44.708571    126981.73   -39835.806    2871.4522   -42707.258    268.75043   0.98355482 
   88000    232.29451    97.686025    127141.24   -39844.585    2890.1853    -42734.77    269.09575   0.98232087 
   88100    227.73999    68.905879    127191.45   -39785.747    2833.5185   -42619.265    269.20285    0.9819331 
   88200    232.35673    49.579297    127202.13   -39766.537    2890.9595   -42657.497    269.39889   0.98185059 
   88300     232.7962    124.25303    127152.03   -39813.875    2896.4272   -42710.303    270.33415   0.98223747 
   88400    223.34893   -73.707651    127033.08     -39921.3    2778.8854   -42700.185    270.99702   0.98315725 
   88500    230.54196    315.66929    126891.34   -39809.586    2868.3803   -42677.966    270.75109   0.98425547 
   88600    229.82961    42.685404    127087.64   -39756.701    2859.5173   -42616.219    270.95838   0.98273512 
   88700    230.09155    143.17257    127250.89   -39730.136    2862.7763   -42592.912    271.69074   0.98147444 
   88800    233.15873    65.925795    127238.21   -39652.946    2900.9379   -42553.884    272.18441   0.98157223 
   88900    232.37837   -127.24109    127121.85   -39695.644    2891.2288   -42586.872       272.46   0.98247067 
   89000    233.01808   -63.505406    127106.53   -39668.202    2899.1879    -42567.39    272.66136   0.98258909 
   89100    227.97891    37.744974    126912.43   -39772.701    2836.4911   -42609.193    272.58342   0.98409187 
   89200    226.34559   -228.10928    126737.56   -39811.154    2816.1695   -42627.323    272.94857   0.98544971 
   89300    227.72079    158.62839     126631.6   -39824.373    2833.2796   -42657.652    272.66285   0.98627432 
   89400    222.21562    204.34034    126650.07   -39821.306    2764.7847   -42586.091    273.36002   0.98613048 
   89500    227.32355    50.156311    126485.47   -39849.205    2828.3371   -42677.542    273.05595   0.98741374 
   89600    219.43177    85.344075    126438.39   -39879.499    2730.1483   -42609.647    273.34214   0.98778137 
   89700    224.62723    47.731926    126424.03   -39841.747    2794.7898   -42636.537    273.56273   0.98789359 
   89800    229.62253    244.37745    126454.92   -39806.039    2856.9408   -42662.979    274.44324   0.98765232 
   89900    227.03686   -69.240292    126414.25   -39892.749    2824.7702   -42717.519    274.77838   0.98797007 
   90000    231.04753   -84.604705    126477.11   -39816.719    2874.6705   -42691.389    275.44389   0.98747903 
   90100    224.56763    169.73059    126439.38   -39810.096    2794.0483   -42604.144    275.57012    0.9877737 
   90200    230.50578    72.690931    126400.71   -39851.485    2867.9302   -42719.415    275.51397    0.9880759 
   90300    225.39777  -0.64790123    126438.17    -39878.46    2804.3767   -42682.837      275.806   0.98778316 
   90400    229.26244    99.070758    126661.66   -39858.622    2852.4606   -42711.083    276.55676    0.9860402 
   90500    229.43765    50.382711    126638.76   -39805.873    2854.6406   -42660.514    276.94999   0.98621855 
   90600    232.25547    277.69025    126698.06   -39710.907    2889.6996   -42600.607     276.7139   0.98575691 
   90700     227.6696   -81.068215    126567.48   -39720.205    2832.6427   -42552.848    276.13163   0.98677393 
   90800    227.51995    -19.28005       126531   -39745.916    2830.7807   -42576.697    276.82131   0.98705844 
   90900    228.31779   -111.86718    126449.59   -39846.423    2840.7073    -42687.13    276.38836   0.98769392 
   91000     228.7797    120.15523    126197.03   -39867.908    2846.4544   -42714.363    276.26599   0.98967057 
   91100     231.5036    353.00818    126378.38   -39859.601    2880.3449   -42739.946    276.74987   0.98825044 
   91200    230.24143    143.14416    126516.93   -39822.918    2864.6412   -42687.559    277.41712   0.98716821 
   91300    231.38325   0.58323298    126454.62   -39708.671    2878.8475   -42587.518    277.32634    0.9876546 
   91400    230.05246    137.98783    126421.68   -39672.628      2862.29   -42534.919     277.7349   0.98791199 
   91500    231.48171     76.16049    126535.78   -39664.674    2880.0726   -42544.747    278.66146   0.98702111 
   91600    232.84943    171.26044    126564.06   -39710.082    2897.0896   -42607.171    279.37966   0.98680064 
   91700    221.67011    158.57381    126673.12   -39795.007    2757.9976   -42553.004    279.51197     0.985951 
   91800    229.18723    83.074069     126653.2   -39750.975    2851.5249     -42602.5    279.70067   0.98610609 
   91900    229.99342    148.97289     126707.3    -39749.15    2861.5554   -42610.705    279.94702   0.98568507 
   92000    227.44912    83.687419    126965.08   -39770.188    2829.8994   -42600.088     280.9845   0.98368378 
   92100    230.67966   -181.46331    126960.51   -39835.367    2870.0935    -42705.46    281.53923   0.98371922 
   92200    230.58573   -44.506749    126897.92    -39778.73    2868.9248   -42647.655    281.71288   0.98420437 
   92300    229.26927    388.91774    126947.08   -39676.859    2852.5456   -42529.405    282.81258   0.98382329 
   92400    233.25618    122.11028    126970.77   -39685.318    2902.1503   -42587.469     282.4768   0.98363971 
   92500    230.56088    59.218487    127149.29   -39750.961    2868.6156   -42619.577     282.8897   0.98225864 
   92600    235.38452    115.60998     127083.5   -39717.617    2928.6309   -42646.248    282.77211   0.98276719 
   92700    227.75138    141.49811     127301.3    -39722.45    2833.6602    -42556.11    283.10537   0.98108575 
   92800    229.23924   -19.235735    127124.37   -39782.636     2852.172   -42634.808    283.42508    0.9824512 
   92900    228.90901    210.75397    127251.98   -39751.839    2848.0633   -42599.903     283.3704   0.98146599 
   93000     230.6568    94.753733    127421.03   -39784.878     2869.809   -42654.687    283.56139    0.9801639 
   93100    231.43251    47.328245    127319.76   -39744.062    2879.4604   -42623.523    283.93782   0.98094348 
   93200    232.78903    25.355191    127497.01   -39758.475    2896.3381   -42654.813    284.43004   0.97957974 
   93300    232.75105    137.98592    127716.07   -39791.776    2895.8656   -42687.641    284.78727   0.97789957 
   93400    225.61776     49.10408    127509.03   -39824.916    2807.1139    -42632.03    285.17642   0.97948741 
   93500    227.43701   -121.55718     127583.5   -39855.235    2829.7488   -42684.984    285.83029   0.97891567 
   93600    221.47272    167.53316    127408.39   -39911.488    2755.5416    -42667.03    286.34051   0.98026115 
   93700     228.9751   -37.126446    127317.56   -39887.238    2848.8855   -42736.123    286.85827   0.98096045 
   93800    230.17387     52.64846    127461.89   -39865.492    2863.8005   -42729.293    286.90216   0.97984971 
   93900    228.91415    160.55057    127479.03   -39848.115    2848.1272   -42696.243    287.37614   0.97971796 
   94000    230.72869   -11.725374    127524.45   -39869.182    2870.7035   -42739.886    287.66349   0.97936896 
   94100    229.53966   -105.13296    127607.24    -39871.23    2855.9097   -42727.139    288.10168   0.97873359 
   94200    228.84102    38.310555    127598.26   -39854.556    2847.2174   -42701.774    288.65437   0.97880245 
   94300    233.18091    161.32868    127503.77   -39832.235    2901.2138   -42733.449    288.65466    0.9795278 
   94400    232.93872    26.807052    127270.84   -39827.572    2898.2006   -42725.773    288.51787   0.98132058 
   94500    229.45534    -78.30883    127135.23   -39764.553    2854.8607   -42619.414     288.5067   0.98236727 
   94600    233.91132    77.394339    127051.95   -39797.161    2910.3015   -42707.462    287.99376   0.98301124 
   94700    227.19991   -142.39857    126874.91   -39837.943    2826.7989   -42664.742    288.21265   0.98438287 
   94800    228.92266      132.676    127056.55   -39833.289    2848.2331   -42681.522     288.7767   0.98297563 
   94900     229.8349    65.182772    127042.57   -39799.777    2859.5831   -42659.361    288.66174   0.98308382 
   95000    232.63134    64.996515    127136.62   -39769.027    2894.3761   -42663.403    289.52273   0.98235652 
   95100    229.04057   -90.906106    127033.88   -39778.023    2849.7002   -42627.723    289.27755   0.98315105 
   95200    223.39855  -0.77522946    127019.61   -39799.283    2779.5027   -42578.786    289.34339   0.98326152 
   95300    230.13598    35.346019    127119.53   -39691.995    2863.3291   -42555.324    289.48613   0.98248865 
   95400     233.4909    136.39878    127203.52   -39740.261    2905.0706   -42645.331    289.99636   0.98183993 
   95500    233.47892    68.032459    126929.86   -39757.927    2904.9216   -42662.849    290.28583   0.98395675 
   95600    233.46918    158.13459     126903.6   -39743.896    2904.8005   -42648.696    290.05855   0.98416036 
   95700    230.29878    140.15828    126937.93   -39776.533    2865.3546   -42641.888    290.05521    0.9838942 
   95800    227.87393    18.031217    126765.56   -39821.607    2835.1849   -42656.792    290.33113   0.98523207 
   95900    226.30154   -153.76188    126497.69   -39764.724    2815.6214   -42580.346     290.4443   0.98731834 
   96000    231.47434    267.93742    126539.46   -39838.463    2879.9808   -42718.443    290.99215   0.98699242 
   96100    231.13318     6.340358    126772.83   -39798.995    2875.7362   -42674.731    291.29877   0.98517552 
   96200    226.02424    136.90458    126949.02   -39841.794    2812.1713   -42653.966    292.01076   0.98380823 
   96300     231.7725    142.63069    127184.09   -39795.564    2883.6905   -42679.255    292.59396   0.98198988 
   96400    235.72132   -36.570026     127455.2   -39767.926    2932.8214   -42700.747    293.65505    0.9799011 
   96500    230.34169     41.46242    127436.92   -39809.479    2865.8885   -42675.368    294.03389    0.9800417 
   96600    224.98644    83.173527    127279.52   -39806.923    2799.2591   -42606.182    293.88496   0.98125366 
   96700    227.57063   -113.81988    127347.22   -39881.924    2831.4113   -42713.335    294.83797   0.98073199 
   96800    221.40374    20.668272    127043.74   -39932.738    2754.6835   -42687.422    294.52092   0.98307477 
   96900    225.00133    95.701772    127061.98   -39859.876    2799.4443    -42659.32    295.23233   0.98293365 
   97000    226.17041    -76.24091    127032.82   -39863.325    2813.9899   -42677.315    295.62266   0.98315928 
   97100    226.41341    290.26488    126939.37   -39864.834    2817.0132   -42681.848    295.54083   0.98388301 
   97200    226.87809   -60.767978    127123.93   -39864.782    2822.7947   -42687.577     295.8507   0.98245462 
   97300    226.17767   -29.645975    127043.86   -39857.912    2814.0802   -42671.993    295.62509   0.98307377 
   97400    231.12347    293.05225    127012.93   -39875.022    2875.6153   -42750.638    295.72062   0.98331324 
   97500    232.82787   -169.57482    127266.35   -39779.565    2896.8213   -42676.387    296.25479   0.98135518 
   97600     230.0163    164.71112    127330.25    -39852.19    2861.8401    -42714.03    296.51217   0.98086265 
   97700    232.69553    49.286219    127414.25   -39784.401    2895.1747   -42679.576    296.72965   0.98021601 
   97800    231.68236   -29.530355    127121.34   -39789.609    2882.5691   -42672.178    296.47669   0.98247459 
   97900    232.86498    29.207888    127414.87   -39753.696    2897.2831   -42650.979    297.49522   0.98021123 
   98000      234.874   -152.82168    127457.88   -39780.778    2922.2791   -42703.057    297.83357   0.97988047 
   98100    230.95899    99.153499    127494.24   -39861.503    2873.5689   -42735.072    297.63567   0.97960105 
   98200     228.5099    77.656835     127470.5   -39849.705    2843.0976   -42692.803    297.47091   0.97978346 
   98300    232.16053    111.25281    127699.63   -39880.265    2888.5184   -42768.783    297.95618   0.97802546 
   98400     227.3406    117.68999    127833.33   -39904.674    2828.5493   -42733.223    298.87269    0.9770026 
   98500    228.97678   -157.19018    127604.09   -39915.598    2848.9065   -42764.504     298.3405   0.97875771 
   98600    227.58298   -71.885833    127303.04    -39933.79     2831.565   -42765.355    298.33822   0.98107237 
   98700    223.81545    180.32254     127258.4   -39978.991    2784.6896   -42763.681    298.77234   0.98141645 
   98800    219.77388    58.648937    127385.58   -39934.608    2734.4049   -42669.013    298.72144   0.98043665 
   98900    228.40541   -14.156327    127491.87   -39936.658    2841.7975   -42778.455    299.43777   0.97961927 
   99000    226.40929   -144.65962     127422.3   -39986.795     2816.962   -42803.757    299.67368   0.98015412 
   99100    228.45596    54.231298    127452.64   -39902.391    2842.4265   -42744.817     300.0783   0.97992075 
   99200    229.82139    302.32325    127457.56   -39893.823    2859.4151   -42753.238    300.56664   0.97988292 
   99300    230.69697    34.156782     127537.6   -39845.475    2870.3089   -42715.784    301.07922     0.979268 
   99400    233.11567    63.684505    127585.77   -39799.299    2900.4022   -42699.701    301.42204   0.97889825 
   99500    233.14056    136.86141    127624.75   -39677.527    2900.7118   -42578.239    301.76074    0.9785993 
   99600    232.31239   -41.006463    127708.56   -39687.226    2890.4078   -42577.634    302.03266   0.97795706 
   99700    229.79103    43.888465    127727.68    -39684.85    2859.0373   -42543.887    301.98769   0.97781071 
   99800    236.00066    84.104047     127697.2   -39698.745    2936.2969   -42635.042    302.59327   0.97804408 
   99900    229.00063   -144.81915    127689.68   -39769.655    2849.2032   -42618.859     303.1159   0.97810171 
  100000    229.53361    49.195348    127689.96   -39786.019    2855.8345   -42641.854    303.55039   0.97809956 
  100100    231.99833    176.17369    127764.73   -39704.519    2886.5003    -42591.02    303.65693   0.97752713 
  100200    235.58156   -5.3565138    127679.41   -39708.061    2931.0825   -42639.144    303.92801   0.97818035 
  100300    233.19764    42.352803    127776.15   -39694.591     2901.422   -42596.013     304.5257   0.97743976 
  100400    236.45848   -68.382955    127821.11   -39739.663     2941.993   -42681.656    304.73152   0.97709594 
  100500    234.18477    79.360124    127630.66   -39670.729    2913.7038   -42584.433    304.61319   0.97855396 
  100600    228.61993   -3.8323666    127541.24   -39751.152    2844.4666   -42595.618    304.68389   0.97924006 
  100630    234.80183    85.832342    127575.23   -39735.348    2921.3812   -42656.729     305.2158   0.97897914 
Loop time of 101.202 on 6 procs for 100000 steps with 4175 atoms

Performance: 426.867 ns/day, 0.056 hours/ns, 988.118 timesteps/s
98.8% CPU use with 6 MPI tasks x no OpenMP threads

MPI task timing breakdown:
Section |  min time  |  avg time  |  max time  |%varavg| %total
---------------------------------------------------------------
Pair    | 79.634     | 80.883     | 82.697     |  12.5 | 79.92
Neigh   | 5.3814     | 5.4099     | 5.4508     |   1.0 |  5.35
Comm    | 10.298     | 12.079     | 13.357     |  32.4 | 11.94
Output  | 0.1723     | 0.17357    | 0.17924    |   0.6 |  0.17
Modify  | 1.9088     | 1.94       | 1.9708     |   1.7 |  1.92
Other   |            | 0.7172     |            |       |  0.71

Nlocal:        695.833 ave         702 max         690 min
Histogram: 1 0 0 2 0 1 1 0 0 1
Nghost:        1470.50 ave        1478 max        1460 min
Histogram: 1 0 1 0 0 0 1 1 1 1
Neighs:        0.00000 ave           0 max           0 min
Histogram: 6 0 0 0 0 0 0 0 0 0
FullNghs:      19766.3 ave       20028 max       19640 min
Histogram: 2 0 2 0 1 0 0 0 0 1

Total # of neighbors = 118598
Ave neighs/atom = 28.406707
Neighbor list builds = 5810
Dangerous builds = 0

undump              1
unfix               2
unfix               3
unfix               4


################################################
#######         Run Simulation         #########
################################################

reset_timestep      0
log                 log.run_${NAME}
log                 log.run_liquid_density_MLmW
