LAMMPS data file via write_data, version 29 Oct 2020, timestep = 800000

4175 atoms
1 atom types

-0.22020657478010364 50.220206574775126 xlo xhi
-0.22020657478010364 50.220206574775126 ylo yhi
-0.22020657478010364 50.220206574775126 zlo zhi

Masses

1 18.015

Atoms # atomic

1129 1 1.7361468645464124 2.722571175998868 1.8144682230482228 1 1 1
275 1 4.13931765629983 1.3935750826525115 2.7643020984835927 1 0 0
703 1 35.0381183787528 0.08166436030667917 1.2378848718453495 0 0 0
2248 1 35.255852014268086 23.910302536060097 9.983487418186824 0 0 1
3981 1 14.857547704346072 1.8278801949545058 2.2045741016177804 1 1 1
1001 1 17.640355853740825 1.6684412179914774 2.9915825693496605 -1 0 1
4019 1 21.570715404429325 2.8008731774902813 2.2187846399757998 0 1 0
3535 1 43.892466206047004 20.718177144751344 1.8846406091815044 0 0 1
814 1 36.98920231256112 11.011413785620974 1.1431265713536993 0 0 0
1569 1 37.81596401733577 17.09385333282819 0.5960151891280501 -1 0 0
3855 1 29.398929637758478 21.464419527313236 1.3629786961259613 0 0 0
688 1 27.841929294171642 2.05761019928293 1.5790652757729913 0 0 1
1538 1 30.396504512138073 0.9078034932858947 1.3460101038423011 0 0 1
563 1 49.03704325117762 0.3283148490905199 9.355006090423846 -1 0 0
3989 1 38.912698911805464 0.8504512528065202 1.818744311285644 0 1 1
2979 1 16.276415271403696 24.059912083573977 3.7951094410165718 0 0 1
776 1 42.23377189082724 3.7881753663290656 1.6766748060326648 -1 1 1
1518 1 44.86861204240593 2.39396086359905 2.3670586030021443 0 0 0
2966 1 49.44130567707086 3.418862010568277 1.4728395038812183 0 1 0
3373 1 4.071378320463895 4.138845570999384 0.7703181232155984 0 1 1
1301 1 6.524463420875562 2.5073211698517617 1.5694377949845169 0 0 0
557 1 9.13431373843339 3.449914068873838 3.0138144674059366 1 0 0
3282 1 11.282805651085647 4.186634855239614 0.7756861563567969 1 1 0
3353 1 14.094578854801908 4.1395462386993795 0.8998870124959399 1 1 0
3962 1 19.159260222990387 3.847100819603865 2.1699422749888373 0 1 1
1266 1 25.32236014978883 6.175080001470342 2.306017580998481 0 1 1
118 1 25.375378390831198 3.638223635130698 3.6318092970075044 0 0 0
884 1 28.197097687350347 4.880426871392858 2.0598617209930827 1 0 1
181 1 30.83296898897414 4.0989744774183094 1.4889951308106313 0 0 0
606 1 36.617347653685115 2.3078739602845713 1.1098667605036352 0 0 0
3532 1 46.02762633820498 14.481839306070816 -0.11952135554948809 -1 0 1
3133 1 33.07858641300311 24.509145837971698 11.658534031452533 1 0 0
3067 1 21.603921720472187 0.11649727944374982 2.8907782922286684 0 1 0
1519 1 2.7641260664684872 6.547968384126043 1.2307242006270922 0 0 1
2675 1 5.586095997682541 8.327773318080348 1.5237423405931994 0 1 0
56 1 31.058496961444636 11.298569645345399 1.4458660446145217 1 -1 0
1227 1 6.542171236128346 5.665853432582565 1.7469978987541557 1 0 1
4021 1 36.4518513256977 23.941835444707916 1.9624742083747813 -1 0 1
1812 1 9.235226975516234 6.299794488595356 2.8457910487203066 1 0 1
953 1 28.416052063891993 0.18570489118935507 3.9440907861661643 0 0 1
207 1 15.578304410796415 6.284600752288443 1.0965080304749457 -1 0 0
376 1 7.501578159529366 10.304023962752888 -0.10606550702026737 0 0 0
1592 1 18.975006180831013 6.173830079496288 3.739721091663078 0 0 1
2150 1 21.543812638395988 7.476121598239142 2.9206589021620784 -1 0 1
4049 1 24.8597374864631 2.273524925624122 1.1049032496425297 0 0 1
283 1 24.531203110251337 9.102205608339862 2.8523139951916603 0 -1 0
1468 1 29.586573464192973 8.21763822094552 3.640091507315409 0 -1 1
3443 1 12.584149275589292 24.867651928377622 12.011899397887474 1 0 0
1236 1 33.69644562349738 10.295393283623701 0.574010243753009 1 0 1
1790 1 36.15144566904303 6.340309022557147 1.569068691181532 0 0 1
511 1 41.912020049942825 7.139256286040703 2.1544829757873836 -1 0 0
3714 1 46.97061876493294 2.3914539038360165 0.30540655560434404 0 0 1
4172 1 44.120326766590765 8.83264330053048 2.95818244216429 1 0 1
2976 1 0.06941192860954276 6.736690657944593 1.0306455483056876 0 1 0
635 1 48.015778623812935 5.784654970950754 2.091852332167255 -1 0 0
4054 1 3.2181351866355077 -0.14197673854525283 10.229461323568167 0 1 1
3095 1 1.6571174408232414 11.444665807836936 1.1112374216988277 1 0 0
3231 1 16.44718364611977 23.444631262171384 12.44301226659554 0 0 0
1370 1 41.49241141315984 0.11061058284964054 9.442935125230271 0 1 1
1349 1 11.066426350184265 12.685446874575621 2.4661517947946567 1 0 1
3959 1 17.39715491372513 10.781935130607035 1.243273203763989 0 0 1
3949 1 22.520501521690782 10.936103929583851 2.3010165503566573 0 0 1
2235 1 23.969536693675884 13.352203995059924 3.0359429794761668 0 1 0
3541 1 25.683517529975294 11.589298356760143 4.1102641016641135 0 1 1
3389 1 49.72228696035488 24.51483955373331 2.1368452136320073 0 0 1
570 1 29.04808780371624 9.491727208206587 1.1485782309866832 -1 0 0
1009 1 33.64499748170792 7.659292631370676 1.0768790729517403 0 0 0
4071 1 34.69621562180343 10.579369262013818 3.4282188677590297 -1 0 1
3366 1 42.257887783972805 24.774367504830646 6.258728310695054 -1 1 1
2157 1 39.52784575604943 10.329748625484127 0.8893730654997578 -1 0 1
1685 1 15.075146762298836 -0.036257205034761736 5.529758347335363 -1 0 0
1181 1 44.169430450268436 12.71759363113593 1.1838282007674092 0 0 0
2557 1 45.12543091309685 10.165841851363322 0.662912049661316 0 0 1
1579 1 48.03271500202757 10.519084921353798 0.894002460051595 0 0 1
3448 1 33.80293944436204 24.772606600875186 5.608703067356803 -1 1 0
3247 1 5.685448299087245 13.430095130582172 2.5793158001698844 0 1 0
2053 1 29.34714580615956 16.770153270398854 1.1418835350844252 0 -1 1
127 1 21.518460015922372 22.39658304930555 15.684543012706568 0 0 -1
4046 1 9.600677075430628 14.57889421772451 1.0958672356632118 -1 0 0
2967 1 15.11738197790011 14.195265693746855 1.7240124840627358 0 0 0
2890 1 17.70119713797438 13.554965421687607 1.8351162879957443 0 1 0
2201 1 20.124346168644173 14.251894523890401 3.4269285161437804 0 1 0
1909 1 22.13813806211115 15.228687221131738 1.8194178783260777 -1 -1 1
1709 1 27.240212336360045 13.228622741011947 0.5916809170331595 0 0 0
3677 1 29.585044216164434 13.526177408377768 1.997882196189476 0 0 1
1787 1 37.329453682857604 13.585972523244497 0.9690220354689374 0 0 0
2932 1 39.94703562450799 13.050895980214072 2.343990214134369 0 0 1
3977 1 42.00368121605112 14.877784956085838 1.7886938933692904 0 0 1
3123 1 8.74139966143164 24.5205492178707 5.520252315379951 1 0 0
3103 1 48.28971699862544 14.091738708169395 1.4948775256960785 0 0 0
3097 1 -0.005917503204847213 0.4507393841369389 0.21421493109477258 0 1 0
1750 1 0.7156045879298002 17.182646535596128 1.717170844875906 1 -1 0
4056 1 4.525850650249376 16.218425577868413 1.5912357238516572 0 0 0
3531 1 9.581211149230384 17.607400546733537 1.0440682064415465 0 0 1
951 1 6.888275338471689 17.576993405265462 2.32548887415114 0 -1 0
197 1 12.922696791350543 18.24166129130262 -0.10410424713411687 0 -1 0
2551 1 19.96348582595139 24.687609921295735 8.694689461646256 0 1 0
1687 1 25.34961391303702 15.40040554166685 1.5043092525964454 0 0 1
2273 1 24.513659695376482 19.138422028475183 0.9111588034105171 0 1 0
3473 1 35.52490147180599 18.717309170327997 0.01886719805961115 1 1 1
1398 1 33.43049174666545 17.1566034465695 1.1794423069216924 0 0 0
2299 1 36.2358156275977 0.06324481624554612 9.80073205653559 0 1 0
1170 1 38.59503491926074 16.996283178565296 3.427482558269693 -1 0 0
3979 1 41.72441064068995 17.151462479718145 3.2084425167617083 -1 0 1
4133 1 44.21474674487206 18.027512210436633 2.3615680370175727 0 0 1
2808 1 12.47135297492871 11.472404995407317 0.4368153039371294 1 1 0
661 1 0.03599470810361827 19.913123927516963 1.205246510883844 1 0 1
3254 1 4.460725392922559 20.915581199696373 1.6813017117952866 1 0 1
1866 1 6.268368976746606 19.29154232655678 0.1752444517395091 0 0 1
1431 1 13.645646096188706 24.39800862449106 4.910596475803215 0 0 1
2507 1 18.988855325903657 22.76709717486547 0.5365604321720334 0 0 0
1487 1 16.998727337414063 19.000491602943043 0.3757897123857852 1 0 1
1251 1 19.770868638722202 18.34076414522263 2.0112281491245936 1 0 0
3458 1 27.039956698463115 17.383090405992213 2.550906336647118 0 1 1
3069 1 28.20686697022474 21.053755198166503 3.5212136311542452 0 1 1
2791 1 31.823281245916522 22.642972812365457 2.481079863112317 0 0 0
2077 1 35.78307931738688 21.008486000595973 2.056273724954907 0 -1 1
2542 1 5.582480424804342 24.674461774807977 4.714204346225642 2 0 0
682 1 44.72398593053046 20.793190080050948 5.123156331327266 0 0 0
1000 1 39.91462758224125 19.712429546211965 2.8037230291924766 0 0 0
1718 1 46.83019372097803 21.16129362793518 1.8842076979632338 -1 0 0
3173 1 44.517881230718984 0.03630287007924543 3.5582762753757944 -1 1 1
1036 1 41.64335542713441 11.846499755732518 -0.10577539558106508 -1 0 0
21 1 14.895576844420425 23.824317793503774 15.733365068071844 1 -1 0
2692 1 5.5378751360848195 23.51477510058881 2.0835894063454976 0 0 0
2627 1 7.595749773176058 23.96809254594217 0.20778350299012677 0 0 1
2466 1 12.652969877368289 0.4264777945260354 13.927274208964233 -1 1 0
2373 1 9.882614815768358 22.38260208071327 1.1110470582903984 1 0 1
959 1 13.460197883921431 22.62139991937043 13.690103173013949 0 0 0
2061 1 15.971502892676803 23.022184048184233 1.1615532188568036 1 0 0
2909 1 15.286702686717316 20.86113663794582 3.4790592574161603 0 0 0
1454 1 20.226550672983993 20.874603299646726 2.4307219438999996 -1 0 2
3235 1 40.995568146909605 0.012248491052633897 15.018160476801874 0 1 0
3335 1 23.127633230091355 21.680797653678493 1.4626311743982607 0 0 1
1030 1 14.272474602997681 24.666686412705285 -0.08190508602104146 0 -1 0
2464 1 40.66491412337881 1.8601801493770118 0.08820846187104031 0 1 -1
215 1 8.344134002416036 23.527767680623334 16.591649062826683 0 0 -1
3463 1 11.810912519139594 2.1641921907075647 16.094690855464062 0 1 0
3688 1 39.65223917362263 23.330599002673246 2.020404886557015 0 0 0
1507 1 0.071918610614496 13.216492530904103 0.07117282363419064 0 0 1
590 1 44.207754609333875 4.923460437001939 0.010260765243789521 0 0 1
2615 1 13.212386111025879 17.37956337098662 16.28421442994951 1 0 0
2047 1 1.1140273705993873 0.36839405607064324 5.7817418862741095 0 1 0
20 1 0.9642593238610069 3.232078184836919 4.987612729993646 1 0 0
2465 1 4.091521205488391 0.5466781175728196 5.29822937574993 0 1 0
610 1 11.100792669784193 1.5706687374160047 3.6969886680964716 0 0 0
3808 1 8.631059570398028 3.29729598547832 5.974896581812592 0 0 1
1351 1 13.756551108540922 2.165115616304454 4.6502443385424455 0 1 1
1471 1 49.21702934687116 22.80374548278959 15.398463078431577 -1 -1 0
3914 1 17.533172988471755 1.1843551657621434 5.610392725193993 0 1 1
265 1 22.807847119785823 1.9630358471505023 6.5316256333950236 0 0 0
3023 1 29.720963316030886 1.5452967237304354 6.842900287430497 0 1 1
2223 1 46.730375661545736 23.397184218857525 15.829786302764848 0 0 0
519 1 32.447270295909334 1.6653274164277532 6.0749060270689546 0 0 0
4130 1 37.60137014451364 0.7530635369444973 5.74833656731529 -1 0 1
1807 1 40.204315363964 1.3385732874350755 4.463387273485139 -1 0 1
501 1 27.943291365793566 8.415580829174257 16.51735494376866 0 0 0
327 1 48.74796498776975 3.4921248710200143 4.3283999575473056 0 0 0
339 1 1.9252790847421704 7.242390303028449 6.686536118596324 1 0 0
1337 1 3.0899561201589827 4.956934488984665 4.714249975900791 0 0 0
3236 1 3.196191106431098 7.607727770634213 3.812017354650915 0 1 1
3048 1 5.952028256311101 3.58529474635354 4.242551642005296 0 0 0
299 1 12.507342023492168 5.782275945813009 3.192792079691602 0 0 0
401 1 10.491318615148 5.138166318890862 6.524172183079157 1 1 0
3034 1 13.217303936615478 4.624152160141176 5.641016775743947 0 1 0
568 1 18.968571574689413 3.651756662048768 7.2481661585145485 0 0 0
2026 1 19.481822333110543 6.09924708715408 6.370926590760387 -1 0 0
3933 1 22.900373420914033 3.732427614170989 4.520148209191255 1 1 1
2696 1 27.86914645930151 3.106319453811484 4.8403159624760965 0 0 0
4050 1 32.76731712666822 1.541075867960342 2.8340425373403875 0 1 0
2801 1 33.60256490214887 4.011741395867044 3.490704624090652 0 1 0
875 1 36.27136801149456 3.997168188283622 3.0097803840526947 0 0 0
2344 1 40.46717433023852 3.8790848692690165 5.392273462176091 0 1 0
2815 1 38.112835749114225 5.327104010745232 5.1762091631124845 0 0 0
2310 1 42.43769977312057 5.317607420787165 4.311623584336018 -1 1 0
4001 1 44.9882777373043 4.107301091374394 4.534584836008182 0 2 1
2034 1 46.99840189563609 5.856910822474306 5.0356955216590364 -1 0 1
1585 1 49.95857305741045 5.825371201323476 5.989081142166504 0 0 0
89 1 49.24119558484932 8.637795414100024 6.688495514190177 -1 0 0
3986 1 0.4715991054819084 9.152010390078727 4.414907921970037 0 1 1
1280 1 5.504496924998781 8.649541081108888 4.776700198093119 1 1 0
1719 1 8.998306767302777 7.059712359615916 5.372178143306013 0 0 1
1977 1 13.284187716773419 8.32207126378139 2.8091601407533875 0 1 1
408 1 15.067930570578426 7.0464466679060775 5.844915745057876 0 0 1
921 1 16.572872747928077 7.300395915687735 3.5876809630974904 0 0 1
1930 1 21.680750161133943 7.61841001228427 6.419455111738356 0 -1 1
555 1 23.431359291281638 6.44756711378371 4.83706143603388 0 1 0
3385 1 25.806857216083547 7.8837721211766585 5.196332029231019 0 0 0
2773 1 28.01451774243209 6.0254354607304785 4.807957183110963 0 1 0
2139 1 31.772297290670206 6.37711922833897 2.923794145206123 0 1 0
1503 1 32.3992242131648 6.236408834640426 5.753097963137665 0 -1 0
80 1 37.680676868454 7.325140272754776 3.6151813492495415 0 0 -1
1076 1 40.02980743928828 8.895487120121253 3.2204043425728757 1 0 0
3081 1 46.70872217832596 8.535479075841263 3.9408146032486595 0 0 1
2937 1 0.9339891261849647 12.279276442488962 3.796491383184997 1 1 1
1857 1 48.48804040698769 11.908666335913214 3.399085764929667 -1 0 0
2328 1 6.874343756450832 10.681699934089519 2.9976335058329786 1 0 0
1044 1 9.477590615283763 10.931628182176542 3.8779622472805064 0 0 0
2495 1 10.677257904668194 9.175657759703663 5.718439983265449 1 0 0
430 1 10.574816184749922 8.774929762029588 2.3369887961428617 0 0 -1
528 1 13.241276577734746 9.34949364238687 5.919022561944601 0 1 0
4020 1 17.653932421627026 9.775181874730993 3.581015309532087 1 0 0
3663 1 16.915892170092096 11.80059269632571 5.507004521050653 0 0 1
2991 1 20.419724801075517 9.978351135022432 3.8615547744382104 0 1 1
54 1 21.358625928526447 10.373539715118234 6.42526438345202 1 0 0
3484 1 21.8985220695935 13.1284700701742 5.569887038545302 0 1 0
2183 1 26.46970071197728 10.382179406795219 6.538378232211431 0 1 0
812 1 30.437119446456933 10.148443649361093 5.339175283927667 -1 1 0
1856 1 32.151638517684404 11.750686890191822 3.912049149676757 0 0 1
1581 1 36.1047364087171 8.95299525219514 5.378281098622754 -1 0 1
2977 1 37.834417110870376 10.440565953728328 6.760866123160927 -1 0 1
2079 1 40.277062201009585 9.949605661120435 5.777045047208863 -1 0 1
202 1 43.46360530369458 10.787988153814453 5.240390727853507 0 0 0
736 1 46.36917240092433 10.8195547823064 5.434130731992313 -1 0 0
2629 1 49.1325931845665 8.770958263586449 2.5673931556005734 0 0 0
455 1 -0.013054743355371379 14.618233994024 5.158780286391141 1 0 0
428 1 3.6667426601131443 12.937568274956604 4.779927933115006 0 0 0
2975 1 7.622748587919839 15.10049359025621 3.3191926095090722 1 1 1
4167 1 13.111397508392132 13.624333593319575 3.9543826671504405 0 0 1
636 1 14.022305845743182 11.975738783256642 5.948222691707675 0 0 0
1630 1 17.34135623776699 14.446691115231332 5.9491653667422515 0 0 1
1786 1 25.255194151777463 15.521896987682538 4.878761849257715 0 -1 0
2674 1 23.591543278313818 14.80193930264913 6.835813810672518 -1 1 0
2981 1 28.08813640490955 13.785783000345608 6.921044707470133 0 0 1
3311 1 28.653525035455218 12.22064095015465 4.528498861092967 0 1 0
649 1 29.8011634526953 15.855980876771579 8.010781394855634 0 0 0
1784 1 32.384514649828276 14.46101034355492 4.743639991785535 0 -1 0
1860 1 35.939403054214296 13.19662360587233 3.2794877226657446 0 0 1
553 1 37.23119740288605 12.93526956573408 5.71684623760421 0 -1 0
1879 1 40.93489303404303 12.423535600687213 4.848999991159889 -1 0 1
2277 1 43.38461230077668 13.54991679673869 4.050098073530442 -1 0 0
1714 1 45.523742121732894 15.158197440640171 5.3839962852211904 -1 0 0
2996 1 49.1902422404561 15.951837470550974 3.04983119008794 -1 0 1
447 1 2.5891628412419543 15.455723967999019 5.881498046852646 0 0 0
1427 1 2.7253331744851743 16.86089117040024 3.5483939632086385 0 -1 1
489 1 7.81597463473366 16.492045513778212 5.766628436928148 1 -1 -1
598 1 11.314537698649183 18.282299873550276 3.0585874179355024 0 -1 0
96 1 11.576309168098073 16.049697088999142 4.833406615525032 0 0 0
3016 1 13.943420325721638 17.37066072284936 6.122989086332352 0 0 0
1308 1 15.66511934601222 16.18894397775688 4.258630190027694 1 0 0
2307 1 18.19702929413837 17.54479714134021 4.048741416968811 -1 0 0
3112 1 19.912571068573524 15.831209067671107 5.573622149114386 0 1 0
2305 1 22.502732982658365 17.832415478706544 2.3563541213837413 1 0 0
228 1 27.907296311381668 15.941903854415948 5.216281030546272 -1 0 1
3956 1 30.286153477035725 16.079284770409817 3.6298119558809354 0 0 0
2730 1 31.577729989287242 18.617415737619993 3.741061942330262 0 1 0
1026 1 34.37413371111491 15.537392509513223 3.478278796000616 0 0 0
3507 1 33.34020572883264 17.684564275432017 5.910805001194334 0 1 1
1470 1 36.22830384360786 17.131308800451873 5.11027858363804 -1 -1 1
1245 1 37.18624912191588 19.823982894364594 4.019593311999731 0 0 0
3615 1 41.3145832126508 16.845548392457644 5.869023860240391 -1 1 1
1830 1 43.864322401131616 16.798316963060557 7.195498734459755 -1 -1 1
3651 1 46.59566738247379 17.263356229095145 3.9063606003970905 -1 1 1
16 1 47.64514142111801 19.113226392386792 5.682325712797538 0 -1 0
3720 1 1.9262533313559231 21.65071620697927 4.736621044941622 0 0 0
1886 1 3.6216572241780196 19.751590444293765 3.8221456398232965 0 -1 1
2240 1 7.926578061264939 19.196571723379616 4.53435013317242 1 0 0
3296 1 10.27540522610605 20.121897469469896 5.145714266312576 1 1 0
2571 1 10.49155383791484 23.040326231480297 4.053418451233469 0 0 0
1983 1 14.168708275475158 18.389659945310136 2.6589753276145016 1 -1 1
3713 1 12.966747288858748 21.898657324151106 4.874733239649442 0 -1 1
1311 1 18.897547828596764 19.2419578406426 6.5017115700367105 0 0 0
3835 1 22.73244781195795 21.109233181190188 6.2644780094024535 0 0 1
321 1 23.96931205055309 18.190812628493788 4.941618226799646 0 -1 0
1991 1 25.646989110793086 20.15808025615815 3.6140350912939816 0 0 1
2487 1 26.42721662447108 21.730550137376124 6.464844858254743 -1 0 0
2554 1 29.789023994679685 19.733289743806264 5.455316492090004 0 0 0
2698 1 33.408183635650076 20.635455894021693 3.5069991722160108 0 0 0
1958 1 33.9738772613795 20.821786387274138 6.315185850691665 -1 -1 1
2988 1 41.00184000758975 21.71355327958403 4.11041709051032 -1 0 0
2863 1 41.04856458034595 19.718001842920742 6.400439117169195 0 0 1
2862 1 43.187604421019756 20.42068699604269 7.87967322062809 0 0 0
4011 1 47.60900970165558 21.68647775400161 4.657101909392859 -1 1 0
1233 1 31.202929608254937 24.134599700559633 4.884855035301407 0 0 1
3903 1 45.71841014786813 16.01746272361437 13.761241875911484 0 0 0
2749 1 7.708536064734162 22.84888653048373 8.075815664680094 1 0 1
2655 1 45.716337180441215 23.74835905532014 1.36479833253706 -1 0 0
2718 1 24.50244613528407 -0.02304725681913003 10.310133422512394 -2 1 1
3117 1 14.764163360757992 9.561323874847188 1.0424818051100453 1 1 0
805 1 20.147696214834664 21.8948700441143 5.137916616566978 0 -1 1
2218 1 23.742221601280967 22.590825247382657 3.9704068729656408 0 0 0
1853 1 45.51168256641202 22.975988080312586 13.653213132563726 0 1 1
124 1 28.172214781896226 23.491998708802598 4.540456973838123 -1 0 0
2112 1 29.7657426890712 0.7882219815764322 16.575791162703716 0 1 0
1268 1 45.641102242318695 6.86954972453347 1.0325300884056992 0 0 0
2154 1 47.94225452694124 12.922197002893794 16.05334145758661 0 1 0
3013 1 35.49143406064299 22.99682086014251 7.062567494441179 0 0 0
1947 1 10.468982579768468 -0.14464104971762376 1.1287864728706736 0 1 1
927 1 39.55960376932174 23.59084435956425 5.740242655020342 -1 1 0
1495 1 43.00403374669932 23.32998028292657 3.099488018494625 -1 0 0
880 1 45.42452827696671 23.763445404396368 4.7704704960708675 0 0 0
1720 1 -0.20518189775626183 21.821480089163668 3.203138431448006 0 0 2
3632 1 1.1275259956931816 0.7989347734530186 8.727858637266575 0 1 1
3323 1 20.83876537582305 24.11837136924861 11.316232620430526 0 0 0
325 1 8.967347730412717 1.005307195268397 7.277077795487935 0 1 -1
88 1 13.809529592487637 1.267131465911768 9.627410702376984 0 0 0
2369 1 21.123307302722903 2.377714016247973 8.458598033824527 0 1 0
4136 1 42.053674643865904 24.862573437994552 14.659686216796418 -1 0 1
3786 1 26.80488330878625 2.7636515507252284 7.346163856801285 0 1 0
3393 1 24.983205642520712 0.8685655388519316 7.631627734212472 0 1 0
3972 1 28.575818323315833 3.7733711824084573 10.642038830013371 1 1 1
1955 1 33.619396506039095 0.6838211980795316 8.74342327605344 0 0 1
2605 1 6.376664221140521 23.916708490470597 14.25647410866682 1 0 0
2855 1 37.31351055962361 2.437512761557039 10.917538994725017 -2 1 1
3415 1 40.12195820898971 19.203603999615588 -0.06476025773832239 -1 1 1
3692 1 4.013529915164129 7.968398023934888 15.60787367542626 0 1 1
3806 1 45.05932562479805 2.510766152989283 6.722549335370542 -1 0 1
100 1 47.42758423323578 2.5562945552657865 8.129045406214786 -1 -1 0
4120 1 0.8898110457630388 3.3745609049525025 9.172603603950266 1 1 1
2583 1 2.868395940660657 4.768158912049998 7.723411779562204 0 1 -1
3852 1 4.286394487579756 2.6301175058205053 7.053469589945393 1 1 1
3843 1 6.986814377358049 3.888530544121492 8.134013351395506 0 0 1
3936 1 10.541778338829 5.558436489179821 9.352850916870043 1 1 1
1449 1 14.430391150723665 3.689651705850304 8.33986530627389 0 1 1
1379 1 16.99049107416917 4.404677722238959 8.983295165091073 1 0 0
3077 1 22.617035069461895 4.479218558389717 9.8412265517597 0 1 1
2833 1 25.04200432761498 4.780600956479167 8.455167197199634 0 1 0
3316 1 30.267357876961288 3.587950318194811 8.393963586510706 0 1 1
1085 1 32.72144606391764 3.4896016733197963 9.217684468596158 0 1 0
2986 1 33.76902608430677 3.9018943129133596 6.56040751941725 0 1 1
1744 1 36.46831260813181 3.258486998562573 6.007220770626296 -1 0 0
702 1 40.130604086268164 2.15245036762364 7.969381671325873 0 0 0
2501 1 41.755213786556524 4.423812338669846 8.771012072864348 1 1 0
3009 1 44.39389356451538 4.781910918968031 8.52202396598973 -1 0 0
3114 1 49.12949523691324 4.827342038249932 8.433498811399055 -1 1 0
2477 1 2.2612821274270436 7.153304049379864 9.857610412867153 0 0 0
967 1 6.436535718272091 6.125678513688079 5.9352147248734655 0 0 0
1755 1 11.589036214815774 8.281413766146695 8.648876563622881 0 0 0
2429 1 17.03678098834329 7.11026275238927 10.409374311651796 0 1 1
3803 1 17.200945251082675 7.301472140759149 7.7055649677678115 0 1 1
3545 1 20.01974173732023 7.7083623545222 10.68187354013065 0 1 0
1015 1 22.31104046592662 7.23917807465748 9.132522804426923 0 0 0
1222 1 24.652364173162553 8.643018037338136 9.643764665629858 0 0 0
3039 1 26.263075064814473 7.296734925068346 8.041483782900052 0 1 1
3760 1 29.965592333912102 5.8162134652471105 6.801149368682489 0 1 1
3514 1 28.95138620897677 7.786610512903913 8.218443083722041 0 1 1
2383 1 34.091657628827775 8.071979245581408 7.060998922266801 -1 0 0
3834 1 36.0855918764684 7.623923282448084 9.091138699179501 -1 1 2
1648 1 38.145851507907494 6.541849908620702 7.510414015729668 0 0 0
4065 1 42.38770051196734 7.618086460518858 5.833543269105231 0 1 0
2196 1 40.89896854188862 7.0078314371470345 8.133634122790578 1 0 1
1273 1 45.0315842996538 7.25030561336414 6.744230754083449 -1 0 1
673 1 2.669813082778538 9.931008841446372 8.53905843659395 1 0 -1
2276 1 4.665189768000327 11.134233250674097 6.708068351312542 0 1 0
789 1 8.792873119702893 11.849936926653685 6.908594610133906 0 0 1
3911 1 8.79805472329265 9.42466136357049 8.134561211616914 0 1 0
2600 1 14.140950405861668 10.052167176882069 8.53033475467713 0 1 1
419 1 16.764256617778912 10.293155023717807 7.894678061157233 1 0 0
462 1 20.06511456021852 10.263651351891387 9.184811046949825 1 0 1
1202 1 22.25156840866579 11.895630980571976 10.335117801717 0 0 1
3455 1 23.86209085644207 10.688756937497505 8.09423976249243 0 1 0
3560 1 25.50029285729222 13.270939193065038 8.204854868676353 -1 -1 0
644 1 28.774400778699775 10.861561268547952 7.845983070657521 0 0 0
1524 1 27.946972564280344 11.809426801394205 10.51481542212748 0 0 1
3495 1 32.83798450163388 10.633226443780305 7.07987671586324 0 1 1
1376 1 37.27415664369306 10.377818649975893 9.437944248572668 -1 1 0
3276 1 42.22194093451448 10.846157288809382 7.962366384044678 0 0 1
3888 1 46.58155000592774 9.257306997415249 7.821553126811061 0 0 1
515 1 -0.12217510866505567 10.841350950549396 8.485260836976108 1 0 0
3913 1 6.488020848178844 13.031702748670124 7.609733532185093 0 0 1
9 1 10.357462850914509 13.709047020682394 8.589668693341514 1 0 0
2216 1 13.307806708127144 13.065004859977607 8.900416966577051 0 0 -1
222 1 14.078825569514292 15.827338626079676 8.52236337614546 1 -1 0
2684 1 22.369998900191476 16.51518034222425 8.439908423151737 0 0 0
3700 1 26.365164455501947 14.395709334315924 10.737632565657044 -1 0 1
2172 1 29.045434232184597 15.106197531152556 10.44029245464314 0 0 1
2049 1 34.54627132771974 13.08442991888956 7.107656490119598 0 0 1
1493 1 39.85566214130259 14.311346874585439 6.566688163446691 0 0 0
530 1 41.158901749353205 13.274183867610967 8.625444860774973 -1 0 0
3379 1 42.78445552277307 15.24861607450794 9.301355743193339 -1 0 1
134 1 46.81688785462141 13.383353708091022 6.882488831580188 -1 -1 0
22 1 45.22431548727465 13.984059187367192 9.10864081165001 0 0 0
361 1 49.61917685285269 13.167079415073774 7.316091511212777 -1 1 0
2766 1 49.768593006351864 14.95267160476572 9.565311193595457 0 1 0
3735 1 0.8351878023539487 16.49496534658161 7.803739293301691 1 0 1
172 1 5.332320280674384 15.408748467557539 6.819232307196506 0 -1 1
2072 1 9.914055238071636 16.102002446593904 7.296882339303622 1 0 1
55 1 10.56192945679476 18.22028482150918 8.751233064983976 1 0 0
604 1 17.001066870808565 15.671376619737853 8.24890330861266 1 0 0
1549 1 17.55778739194156 18.375446671851787 8.925859000426255 0 0 1
1228 1 21.42885556953641 18.338297179239316 6.814193615161348 1 0 1
4024 1 23.929020570821088 18.543342535299285 9.493728658270722 0 1 1
1715 1 25.527337154877966 19.17183925954575 7.299542154832656 0 0 1
2321 1 28.738923631268158 17.70949354002083 11.580232790348708 1 1 0
1155 1 28.1275902388955 18.080435826243097 6.956091041123374 -1 0 0
2176 1 32.64642970637448 15.564408880118973 7.484850716571834 1 0 0
3000 1 36.971461032724406 16.92080282653772 7.572761480370042 -1 1 0
2266 1 39.677299951667976 16.605121242242134 8.78134922971927 0 1 0
2178 1 45.7366817534385 18.868921831395593 7.6315672972216255 -1 0 0
4112 1 49.895221259062296 18.893068125985646 7.253982289112352 0 0 1
2973 1 0.9726876006088019 21.257215534340016 7.219188589825763 1 0 1
39 1 5.4445196847732475 20.149005999278913 5.761366092998755 0 0 -1
1678 1 5.063766036077146 19.263014670174616 8.381181832911267 0 0 0
752 1 14.40790474844777 20.178519879218516 6.700516336796752 1 0 1
2142 1 15.353856086201176 19.880703217500788 9.512008721151417 -1 0 0
1774 1 16.937670569093754 21.234922898119244 5.966642882161224 0 0 1
1655 1 23.14506018763213 22.98870293652248 8.256017071754265 0 -1 1
2904 1 28.97219703343998 22.13175285262124 8.310476720656087 1 0 1
2263 1 28.808156559869747 19.423575227283404 9.151128266672083 0 1 -1
2193 1 31.254046564201627 21.850970417910563 6.428224495783262 0 0 0
1604 1 34.70778859289523 18.547985308796406 8.258491179788985 0 0 1
3135 1 38.560835910145855 19.512710619004274 7.976983371781927 -1 1 0
2461 1 42.58670893365529 21.583495912512188 10.591091937540172 -1 1 0
2555 1 46.79526064445881 18.400319052788145 10.421767817235382 0 0 0
2108 1 2.8909796042717697 24.43064544447844 5.195716623264921 1 0 0
2412 1 4.904578670784576 24.4921958363144 8.984582086137307 0 0 0
3733 1 5.182934695235285 22.693328055850348 6.712865360415604 0 0 1
696 1 12.676232750055206 23.926407194692516 9.373075697894965 0 -1 0
3181 1 6.358010206534595 9.903769740932809 15.547745544280657 1 0 0
3752 1 38.710348431627 22.422129326488836 13.978670806279409 -1 1 0
1959 1 49.98763500237382 20.30049478843906 15.809611565713848 0 0 1
3662 1 19.181932456222846 21.970447043328296 8.288559278573283 0 0 0
405 1 25.631209844276306 23.861562466212558 8.099444171077891 0 0 0
712 1 20.04516130614072 0.6809218262932804 11.353063934310484 0 0 0
307 1 38.7467089475454 24.357169716003604 8.11371122058976 0 -1 -1
3658 1 37.718081847250446 21.558312346951436 6.137460358683466 -1 0 1
3890 1 48.27771226915034 0.9790947458442849 6.052878622558644 -1 1 1
1933 1 44.16690903596627 22.922895196682955 7.261288119083517 -1 -1 1
2667 1 46.416227812078745 23.723283292273887 8.889095604449578 0 1 -1
630 1 48.07848499365544 23.630519765987668 6.837363646045669 0 0 0
580 1 41.62484431013357 15.304014623724129 16.301877991826604 0 1 0
44 1 46.824027871298014 5.410275413377789 15.902777055660742 -1 0 0
3201 1 5.256010744436 1.3821003456758219 9.133097091166873 -1 1 0
1864 1 2.537959408554172 5.3854455532188625 14.478420560621208 0 1 1
650 1 6.450738880672644 2.4048577449062662 11.457469520500156 1 0 0
3731 1 10.710700043065177 0.9553967997310999 9.648330723246453 0 1 1
2414 1 47.22070978052584 21.116759746106684 12.37880285311688 0 0 0
2120 1 15.096871152594316 2.023500220479107 12.072223540268597 1 1 -1
2819 1 17.669726897107516 2.7477648550485396 11.104346103774414 0 1 0
2970 1 18.912502301359247 15.305021049499478 16.118233871946142 0 0 1
2319 1 21.379233201981872 2.513742229002987 13.139626046736161 0 0 0
3090 1 23.891162869759114 2.447356043661258 11.873863580733163 0 1 1
1733 1 25.68598286620733 2.069595463890816 13.989955263572453 0 0 0
2896 1 28.110529308940098 1.676754417663517 12.35394076002281 0 1 0