LAMMPS data file via write_data, version 29 Oct 2020, timestep = 800000

4175 atoms
1 atom types

-0.3039956360232381 50.303995636021064 xlo xhi
-0.3039956360232381 50.303995636021064 ylo yhi
-0.3039956360232381 50.303995636021064 zlo zhi

Masses

1 18.015

Atoms # atomic

2409 1 2.8964235430633702 13.709136730060141 -0.06575076010405745 0 0 0
188 1 17.56315658263923 18.310431490412423 0.006493915090636848 0 0 0
2595 1 13.842082384353672 0.9506394340406397 1.156796159124348 0 1 0
3513 1 36.81961731781461 2.0794320975654426 -0.04989033550130051 0 1 1
1043 1 40.82675363293661 1.6998384249688643 0.01719564067954621 -1 0 0
1779 1 28.71628561149256 0.8071169527068875 0.3167211801347988 0 1 1
1131 1 30.62925034568432 0.9078265906676941 2.127904421494963 0 1 0
700 1 28.575902475622 23.779536327039303 15.055126833194661 0 0 -1
1931 1 0.9204790671244782 24.969202689480493 13.717856984733132 1 0 1
1988 1 1.4207296204415987 1.5932378960654787 1.0096531766913777 0 0 1
3216 1 0.6900568344174453 10.023314454234008 0.2212671129780771 0 1 0
858 1 45.528762336581586 2.6053618763784567 2.245654207036525 -1 0 1
2282 1 37.961984234262346 0.24477299406005915 14.878790336099692 0 0 0
3961 1 48.323743356000634 0.9287012769504921 1.312900931999095 0 0 1
446 1 2.4280628480442537 5.059089985880959 1.2973616073746022 0 0 0
3870 1 6.334630971446767 4.866057199146802 0.8808897030741607 0 1 0
1267 1 4.332650937297754 3.4898006649619693 0.16064826280086741 0 0 0
1358 1 8.959420929283583 3.7021822279575005 0.9056400729421896 0 0 0
2627 1 35.35644091257021 12.488661221687126 16.04372768132078 0 1 -1
2879 1 12.601415647932832 4.807975369362508 3.7287733286873816 0 1 1
3452 1 14.609465754956899 6.509820279270288 2.49872719586999 0 1 0
2477 1 15.197511894804633 5.12753843110424 0.41829972030551976 1 1 0
3891 1 17.67437185230762 2.7105671399556805 3.2191330417992963 0 1 1
3887 1 15.883527328714415 2.589430513864814 1.029620108650708 0 0 1
63 1 19.708614853092772 4.101498778564415 2.4032463753355904 1 1 0
2485 1 26.742211675782283 2.431031518735846 1.5524472828880522 0 1 0
143 1 33.09290915031276 2.0123899223680084 1.804804616033532 -1 0 0
1536 1 35.004603333296124 5.36155920192027 4.339368026341846 0 0 0
707 1 38.57885692213935 3.5503406984805115 1.590240514447215 0 0 0
2047 1 7.883965445287378 -0.2484405032781366 2.6928107911601686 0 1 1
2907 1 43.92038764414626 4.411271455572941 0.5476832468664499 -1 0 0
1004 1 41.12565562443339 4.5176696391655 0.377268264287431 0 0 0
1694 1 47.52618195836533 7.027682248661648 2.4748006513414893 0 1 0
1413 1 0.3390086706874088 3.9775510959168683 2.8395360713040643 0 0 1
1892 1 3.2166436175924877 8.909427231739093 1.6424070130168316 0 1 0
4155 1 21.26213413589605 0.27025380497642015 1.8063355702251798 -1 1 1
2068 1 7.297759012169758 8.73599076379495 1.5433313514138112 0 0 1
3902 1 29.655477725400846 24.58080640615916 6.878440290005997 0 0 0
1367 1 14.9098834628532 9.134851588381485 2.0863107670028613 0 0 1
3519 1 17.88985280387978 9.178936764444268 2.4572843739588848 -1 1 1
1930 1 3.2735194511626977 23.5555362111805 4.952547648950977 1 -1 1
3028 1 26.64141241908164 7.762999661812108 1.2411981150549243 0 1 1
341 1 32.5622469550833 4.627063761508091 1.1889114613651586 1 0 0
3323 1 32.54836593890158 8.993552721376329 4.064189905958241 0 1 0
1697 1 37.089826081505066 7.426912593081917 0.7314234474991632 0 0 1
286 1 41.302960735653045 7.063478405382546 1.8803426999058264 0 0 0
79 1 29.15757221042429 0.4668568447078687 12.664673440551796 0 0 0
3142 1 45.628426334663494 9.228824320423092 2.7640685419249436 0 0 0
2580 1 10.93949692846827 7.162533224970209 -0.258714463909123 0 1 0
913 1 5.396373910631916 10.681570609697223 2.385232821508095 0 0 0
3833 1 9.707125391513783 10.104161319953139 0.9034298977536399 1 0 1
915 1 13.460217311580639 11.78272161388997 0.6125738625012646 0 0 1
1503 1 25.334958371391483 0.6851420543339884 3.062050514256881 0 0 0
2824 1 21.43874566927331 10.59511049678481 2.2639783668316498 0 1 0
3170 1 25.724147086405853 10.385888881204853 1.738202226705155 0 1 1
914 1 27.90165328885512 11.969541557983554 2.8743690946789573 0 1 1
191 1 30.78882434771618 9.828737716291108 2.0458883241265253 -2 0 0
125 1 35.06313518032036 10.18968444969356 3.2403601739686367 0 0 0
3414 1 48.66784336688295 9.314485087892665 -0.15462964673709112 0 0 0
73 1 39.33652533778649 11.53799308029597 1.7267271176981516 0 0 0
3588 1 28.698564060631885 9.056551043544362 0.3181305538961555 0 0 1
1434 1 48.413953795058426 12.953148020136254 3.2396639495597026 0 0 1
239 1 33.55474906608828 22.869789253058084 13.6366499187632 0 0 0
3868 1 0.8380645203947474 10.914751760680986 2.647441544830861 1 1 1
1464 1 23.82090483916321 24.419580212410505 1.7478439017277458 0 0 1
3499 1 0.28288285619787157 13.27505830289121 1.2394841676019497 0 0 1
2036 1 30.300569491747765 22.2527296230485 13.558975470641816 0 0 0
690 1 5.422730740103308 13.325120397293713 0.9790448715454643 0 0 0
1468 1 6.808821460065355 13.451490680897377 5.144398178043072 0 0 1
3397 1 15.977568795157257 14.60603000161763 2.318377819878903 0 0 1
745 1 21.924552659242867 13.149944657843125 1.109380291869922 0 0 1
161 1 22.837484794723036 15.212523840387835 2.8711943049887334 1 0 0
426 1 27.48412048697423 15.88338623289679 1.010406333061891 0 0 1
706 1 29.102026315178026 24.752200625282455 1.6471157000943197 -1 -1 0
1770 1 2.854159609646107 23.90412444393033 -0.23250154363602046 1 0 1
1273 1 31.956956941987364 12.53518110927765 2.1707655677926074 0 1 1
3092 1 38.19734839092733 13.605864572180737 0.37258511857453447 0 0 1
1233 1 41.78208988237679 12.746973494371687 1.7522432812181536 -1 0 0
3812 1 47.08441491763484 11.113511735468768 1.4243825259009915 0 0 1
1487 1 0.5782110202980949 15.507052629760704 3.022413868064978 1 0 1
931 1 0.5944449480313765 19.58574049673493 2.188271904169263 1 -1 0
1578 1 6.690197000131862 18.030491234870116 3.6528107368827674 1 0 1
787 1 2.168813364183496 17.446369774243244 1.8863189852082431 0 0 1
1729 1 7.565756489899253 15.566938144106242 3.159355371335664 0 0 1
2037 1 11.798360434342587 16.208030110656836 1.566700631025863 1 0 1
1213 1 11.096884164496613 18.386117704561187 0.12180557245984824 0 0 0
679 1 13.567112206302346 19.326805259079077 15.369995774723785 1 0 0
2243 1 14.2938430827415 16.822449101125567 2.3499349168142487 0 0 -1
2965 1 19.02346422300133 16.64567880820114 1.740917878246559 1 0 1
1535 1 21.700265213705084 17.708532946004055 1.8194319229550242 0 -1 1
2781 1 24.791468116131888 17.113760834849387 0.7164325066069206 -1 0 1
3076 1 26.38279489956864 22.021244965899303 14.399183663995467 0 0 0
3328 1 30.743463219812163 17.601627359240453 2.655680961620131 1 0 0
2197 1 31.49957785486099 16.756771409529676 0.11098480919791331 0 0 0
72 1 34.211414650334184 16.107531172988427 1.3776379264928449 1 0 0
3034 1 39.77415139555763 16.140106289009992 1.2399445812940257 0 1 0
2264 1 41.987375544759445 15.098951058054272 0.2668961399182548 0 1 0
4015 1 44.057139575496755 16.6393501724297 1.1722688491731337 0 0 1
797 1 48.47475419407517 16.706058935284734 -0.08139967972974968 0 0 1
1689 1 45.91005205089117 14.581503396688541 1.9003146796031256 0 0 1
1702 1 3.9230011319721356 19.698559383649698 0.6251249533373973 -1 0 1
2785 1 0.971481535797994 22.26581678035303 3.325904681073282 1 0 0
2076 1 6.934703372590254 24.494664028631092 0.6284725889404225 0 0 1
3707 1 9.980709039852917 20.32036707376812 1.862374797831159 0 1 1
1483 1 15.414642070785135 21.455314694860625 0.9384083306565054 0 0 1
2822 1 15.755673037177718 19.283989434063553 2.8110541653068215 0 1 1
490 1 35.18141259799881 24.140355752516744 5.5169732603916515 0 0 0
3401 1 24.366350392531334 19.78100323606691 1.6986924524245444 -1 0 0
3057 1 26.735069717234644 21.214942605016056 0.5310806345145326 -1 0 0
90 1 29.135041995392967 20.14365991676938 1.372352090852297 0 0 0
450 1 34.57055118813158 20.7649492808434 2.3179175482471814 0 -1 0
1412 1 36.80854822567426 19.378980746040323 0.43153899751678126 -1 0 1
2327 1 39.85156696381015 19.039169410808185 0.9408164009690567 0 0 0
1806 1 43.59736665936045 8.447408525692788 0.8292903461279939 -2 0 1
2821 1 43.59484768232927 19.91225258035898 0.9307414894566901 -1 1 0
29 1 46.80663719775629 21.073725672889356 1.330524083746268 0 0 0
202 1 48.805247273199065 19.593146304446748 0.6444189969017259 0 -1 0
2367 1 3.632275235803164 22.259995277281554 1.974941285105376 1 0 0
3709 1 6.339661289544212 22.354736292937286 2.271544317327194 0 1 0
2471 1 17.131863767125736 13.615719854806938 0.10999851639235853 0 1 0
2117 1 11.78856878741406 21.926893510921147 2.7587183020039587 0 0 0
2123 1 12.11950668446471 23.830483870347678 0.6585800403945152 0 0 0
3938 1 12.05379999147235 13.945806839083168 -0.17119985197568038 0 0 1
1362 1 16.031502006397925 24.064617196219324 2.0177835301635234 0 0 0
299 1 35.096342397813025 9.273599417720556 0.34532554101033586 0 0 0
3248 1 21.045590073910404 23.853217757815333 2.62867969995122 0 0 1
572 1 22.283680743115283 23.542898738939787 13.922603102032031 0 0 0
1749 1 22.07386603236561 20.789066241023615 0.4518804832798362 0 0 1
3857 1 26.740238064422726 23.960871461055227 0.8386597027073526 1 0 0
371 1 30.788933347093856 22.427353686968505 1.6805195047826136 0 0 0
2001 1 32.759706263202645 21.926728845357133 0.24249151891011977 0 0 1
3260 1 38.155976538200285 24.16816778750346 2.4210357527653055 0 0 0
3005 1 39.586282127622155 23.888333657182454 0.09664685942557477 0 0 0
178 1 42.207012756721966 24.213644717076445 1.0780899563087318 0 0 0
701 1 47.41410043818571 23.80274013624081 1.0430313263080304 -1 0 0
3365 1 50.24440234493239 24.007087560451524 1.0543766919852868 -1 1 1
3421 1 0.7122088372629973 1.5659167968593817 4.393625694624583 0 1 0
1887 1 3.814649808449717 1.445611563839459 2.908378000293326 2 0 1
1189 1 9.473270035671776 1.9982585650771365 3.1390138712398192 1 0 1
317 1 12.20396776728728 2.0992863838978586 3.3502353947607015 0 1 0
314 1 14.379259058702988 4.096966410590165 6.114132652462168 0 0 0
261 1 16.828895203533712 2.6455889224099245 5.698811838762841 0 1 0
2277 1 34.34744853787938 0.2972446281963892 -0.057650637665438015 0 1 0
3225 1 19.468578896800455 2.990242257012303 6.632455262666968 -1 1 1
2563 1 22.661954255764833 1.1566784495974058 4.109136917825889 0 1 0
2356 1 18.57850903206725 0.3012160748106699 2.479689436124108 0 1 0
1558 1 29.966250007532462 4.739230904621437 0.6355432055522967 0 0 1
2255 1 29.399871684431837 1.8432256077788733 4.365704894043618 0 1 -1
921 1 34.53393622856416 2.835493233872422 4.571051709935952 0 0 1
1371 1 33.2401081105579 1.9784146967107379 6.760894534818839 0 0 0
2173 1 36.997847431401986 1.8551260416224968 5.0726144541967875 0 1 0
553 1 41.84765396880216 2.6479860785344664 5.1928122703970985 0 0 1
2335 1 44.09928604352518 0.8769254139498812 4.51398119054146 0 0 1
1526 1 46.61043960545079 23.096487203958066 13.560947637335225 -1 -1 0
4018 1 6.053461226223839 5.700125024054051 3.31211727820542 0 1 2
2426 1 5.4769794543714925 3.1574020627237327 4.430228826531272 0 0 0
1664 1 8.189088413739315 2.61303298610445 5.2290851034578125 0 0 1
116 1 10.050686336784294 5.898444891096746 2.2268550741455746 0 -1 0
1394 1 16.224130146745786 5.474611387315307 4.433210396544782 -1 0 1
2661 1 21.141165178640392 3.576746869234193 4.426464563267156 0 1 -1
1316 1 23.334469235553446 5.029721770813817 6.750897244601469 0 0 0
2237 1 28.455557907517974 4.133137708071164 2.893911187429641 0 1 0
502 1 26.233892670162355 7.063934407310066 5.889249909350001 0 0 0
901 1 30.382438925092394 5.618004912623915 4.929259471904234 1 0 1
586 1 37.53077135897864 6.005492336832661 3.140984258341975 -1 0 0
2687 1 43.162461859195126 4.856831505391278 3.7435082393369967 -1 1 0
3359 1 39.545140719685484 1.9658730423281097 3.548599135300993 0 1 0
1169 1 46.03325399216625 4.954666769006031 3.7546145950353225 -1 -1 1
680 1 46.20616013305423 4.245963840801389 6.508121454564689 0 0 1
2473 1 -0.23368595042335727 5.469291338078435 5.173285147131846 0 1 0
2436 1 48.85963848509904 4.347241944138243 6.98437254108426 -1 1 0
4048 1 2.019797163042533 6.732334046262688 5.630816562976374 -1 1 0
995 1 3.3786057658629187 6.6165994539290764 3.349926007999239 1 -1 0
19 1 8.761942779107663 5.294959468555379 6.00163276732713 0 0 0
158 1 8.221260194136068 7.166005972455817 3.6650587975463287 0 0 0
468 1 11.39482795181623 6.490034858867324 5.613323539788611 0 0 0
3017 1 10.37208105499879 9.392420812855015 6.022602197525737 0 1 0
3675 1 18.686945183244003 6.6360251494898055 3.4068804662614323 0 0 1
96 1 20.97252176695761 6.904587420112998 5.449205506434427 0 0 0
2839 1 23.808098173540703 7.821624430307702 4.744788349234008 0 0 0
2018 1 27.80866133915368 6.949651582661901 3.558635317752236 0 -1 1
3373 1 27.299983242482675 9.097210211064796 7.432586356638496 -1 0 0
814 1 32.68146692419394 6.266041810573934 3.42929691153264 0 0 1
2855 1 32.55332224016733 8.751720564678427 6.934110517354046 0 1 0
1614 1 37.064561379332105 9.700359748232636 5.334519409260107 0 0 1
126 1 40.76830093076378 7.889246568572304 4.481628205182915 0 0 0
2647 1 40.41578676334568 10.872596185711368 7.2644285319791955 1 1 0
2353 1 43.13000492534921 6.75248529010183 5.88545174686758 -1 1 0
2346 1 45.76597239140176 8.431865832050018 5.691976856988864 -1 0 -1
556 1 48.582028362213634 8.031602775313631 5.092587655716866 0 0 0
2848 1 2.8500910736485086 11.564842986607756 4.648978858572787 1 0 1
1518 1 6.221906981181864 10.856164653432874 4.98070772513484 1 0 1
3589 1 7.7380309846385416 8.830939463686107 5.775406751358408 0 1 1
2547 1 9.720857537113353 12.367196082632377 7.583051332474087 1 0 0
2444 1 10.636517938126726 11.125180300398183 3.319324767921993 0 0 0
3810 1 14.128151992811603 12.673741475195898 3.4815681271452754 1 1 1
1176 1 13.206549155657331 10.155849777402873 3.964752055636426 1 0 1
1545 1 19.02873088826262 10.985453112521316 4.2806869547820465 0 0 1
1659 1 20.052351773485668 9.731719055207519 6.719041197082271 1 0 1
264 1 23.768028373380403 10.372976221437035 3.5839718154629345 0 0 1
3576 1 24.440545269983733 12.070209431377313 5.762038040191286 0 0 1
2246 1 24.67950706928703 10.409755381321267 8.087711248829704 1 1 0
1662 1 29.164269396634623 9.569954482542261 4.261698591024273 0 0 1
3345 1 29.22738529645813 11.57851616912557 6.200010943839803 0 1 0
512 1 34.11630768739554 12.631881866995169 6.3581557870619445 0 0 0
3123 1 39.44212938926105 11.089957477170039 4.36254664391548 0 1 0
1512 1 42.68616595504626 9.993293080037677 5.458944770475096 0 0 1
1628 1 42.86752388987616 12.686312548618634 4.2794562505515295 0 0 1
2679 1 49.733844037691846 10.453475807382016 4.771197495702864 0 1 0
4098 1 1.4196462262964695 14.234096822598383 5.474211128492506 0 0 1
3379 1 4.261623995912819 16.675783119438712 3.590203869928054 0 0 0
3993 1 4.400276892354991 14.00805457482962 3.4342672120026445 1 0 0
4059 1 6.010646303379008 14.612679558646274 7.555606650882031 0 0 2
555 1 9.451948041433946 13.051890714673803 4.966901456981949 1 0 0
498 1 10.578449625029753 15.350205947486986 4.0951760438255445 0 0 0
169 1 13.139559794907745 14.28288046311409 5.241146007963712 0 0 0
934 1 16.424512005801706 12.551983044236675 5.017607005694738 0 0 0
1608 1 20.308729068990722 13.41060667277889 3.9317083000430637 0 0 1
3177 1 25.358618090362484 15.68507766809373 3.487034362422781 0 1 1
2004 1 26.55936387988869 13.66573143505519 4.84721529815353 0 1 1
2979 1 30.428137343012036 13.50489492042532 4.240272888997742 0 0 0
1278 1 34.20110238565402 12.968765963215247 3.6220599284318102 0 0 1
4080 1 36.22948210586185 14.517096032340723 2.460967685397092 -1 1 0
2080 1 37.7351455286349 15.518786960460057 4.664377260334766 0 0 0
722 1 40.49828973386775 13.768594828638413 7.8662167086827335 0 0 0
2280 1 41.879602347989916 14.617145810903938 5.5375669535787635 -1 0 0
1653 1 45.458039821490644 13.59654191077882 4.316246326577576 0 0 1
344 1 50.28118308455241 18.681962086666697 4.8559952484489965 -1 0 0
743 1 5.054096890991364 19.11103047690944 5.939410736463643 0 -1 1
1856 1 9.526422794498862 18.560195464059507 3.928802047094564 0 0 1
3530 1 13.511298594048656 19.528851100564097 6.621326704560382 1 0 1
3108 1 13.958275803460975 16.8014988463328 5.176475538868626 0 0 1
2803 1 17.953541630237734 15.46740411293117 4.242575876006998 0 0 0
1185 1 19.626986200539182 17.771873899526554 5.964509477476076 0 0 0
508 1 24.5420153318404 17.719339520821634 5.4535867300480705 0 0 1
1459 1 27.450864609670784 17.766616867025217 5.216874346719849 0 0 1
149 1 28.706531072697942 15.904441546121621 3.6254648226995325 0 -1 0
2788 1 32.33823331179721 17.988418771462246 5.4678994976031605 0 0 0
2603 1 34.46203121650521 18.086712624684377 3.450850810733287 -1 0 0
1253 1 36.7468902708952 18.115324722360665 5.285727993056024 0 0 0
3106 1 40.34609928928104 16.12898140085007 3.9081055413509453 0 0 0
2407 1 41.597693333251875 18.688859266448766 4.5660240644198975 -1 0 0
2113 1 44.07634221585562 18.686604792071435 3.4122955133520803 0 0 0
1149 1 44.57421161855155 16.209942432020764 5.254564265333676 -1 0 1
3113 1 48.36934462621791 15.892181585879765 2.6583768419950657 0 1 1
2578 1 47.518099800806546 17.994444110272234 4.311877866966612 -1 0 0
3949 1 0.6812308233863483 21.20805865017171 5.69387265341323 1 1 0
2670 1 5.031928702457796 22.072223385293 6.723579047383929 0 0 0
142 1 9.3936338985968 20.09048153781748 6.060335856355447 0 0 0
861 1 7.2119454584607405 21.919232177426743 5.22555081890731 1 -1 1
4111 1 13.896491883807496 20.847447941008607 4.152265588274963 0 0 1
1308 1 18.471581411532007 22.14646469407713 4.8745143019967685 1 0 1
2191 1 20.005600843322032 21.23432440977953 2.075303134823595 0 0 0
4091 1 21.15599932047446 19.402248431559343 4.063671328233434 0 1 0
3996 1 23.93635747181447 20.209520746951192 4.533487666006109 0 0 0
770 1 28.658960032742865 19.761928501574143 4.03949864117309 -1 0 0
2903 1 31.01066348674924 20.414699201338166 5.432684600048961 -1 1 1
1298 1 37.889923771188116 20.683644753767474 4.869228085522601 0 0 0
1621 1 40.21902008233047 20.677034669908956 3.145285284846031 0 -1 0
1718 1 44.2334130214024 22.128253102285008 5.367594500444668 0 0 1
5 1 46.18332042153152 20.639297172154883 3.906155686389935 -1 0 0
3047 1 48.06375372525475 21.01644747080156 5.946677905294279 0 0 1
1796 1 2.4508034341245852 21.238808664477826 8.078659854511454 1 0 1
2317 1 3.569185141749486 24.529142831316427 13.765599936812178 0 0 0
2175 1 8.321205562790617 24.618173006608348 5.543818690116742 0 0 0
3622 1 10.869540964177446 23.346284601087877 5.102184144305288 0 0 1
3575 1 15.840107337995509 22.892194276914868 4.534878087809375 0 1 1
685 1 28.06372923407944 13.332113925936648 0.3931248809591801 0 1 1
1990 1 48.4914507368737 3.878640005088177 1.2960397633334029 0 0 1
2216 1 21.092510572553785 23.87135445897047 5.488406865759278 0 0 0
927 1 11.773129092533047 14.799679813805419 15.659284208088875 0 0 0
4121 1 27.33513450951994 22.00324357377417 4.677288169661117 0 0 0
2294 1 16.438725653677576 6.190526042898784 16.483857408923054 0 0 0
2550 1 32.418087818641496 22.287984947449175 3.9456313745008744 0 0 0
673 1 36.358026671522104 22.447497380059495 3.6800286877583956 0 0 0
504 1 7.1847460270877885 15.219971924653386 0.3603050935544704 1 0 0
3486 1 42.72796925589777 21.98744938539118 2.773956784285347 0 0 0
2645 1 44.240207441140356 24.936081554414564 6.106524301659334 0 0 0
953 1 2.599284986542115 0.913681226849957 7.939114243674618 1 0 -1
1268 1 5.05846408642661 2.4050794590317226 8.908960686947596 0 0 0
1337 1 39.43662136312135 8.758517818307489 0.8602665691073481 -1 0 1
2897 1 9.295210064795029 1.6313148043011456 7.590538662882223 0 1 0
1123 1 16.969641414783066 1.7062075950771196 8.605152094249238 1 0 0
93 1 20.998396217357648 1.0965901726216516 8.09408138317269 0 0 -1
1874 1 26.30373204690411 1.1142031189498232 7.537713415594843 0 0 0
1864 1 28.894676901377796 1.8353438993174458 7.871655461407295 0 1 1
1730 1 34.48104697533389 3.13898740827394 8.915442641851278 -1 0 0
3271 1 39.29865997435767 1.3656057368067471 8.888751715805006 0 0 1
439 1 43.97338614057046 1.314999627092581 8.617434556448355 0 0 0
2693 1 41.72013726539077 2.7771319504979557 7.9148937201765115 -1 0 0
2291 1 46.157616704302825 1.0132578193904413 6.913785562368039 0 0 0
1924 1 48.96573685309074 1.541752469757793 6.43659317757705 -1 0 1
1269 1 1.6000840300464398 3.392634531775152 6.9639635152813115 1 1 1
3732 1 0.8526294071903748 5.018314696747226 9.15435339459874 1 0 0
2286 1 4.240998945130708 4.16724903457497 6.700813819440229 0 1 0
2040 1 12.2131665392312 2.768055399512669 7.463036605931642 1 0 1
1821 1 12.165287740713378 6.039772571379197 8.113989655546266 1 0 1
864 1 17.338062683104376 6.434052599797094 7.200035313471697 0 0 0
2338 1 20.257090145781202 5.2909111031559215 7.644391191824227 0 1 0
3230 1 23.572964145539064 2.3892904399005586 7.778354499341411 0 1 1
612 1 26.2057960126293 4.1963453158776804 7.0080701507306085 0 0 0
1792 1 26.647844665169895 5.664141787365751 9.328843154893098 -1 0 1
669 1 30.9497515178689 3.4128171467983854 6.929457718070431 1 0 0
3652 1 33.89113302748544 6.213374004604438 7.134029052111052 0 0 0
2186 1 31.722566599319194 4.960664843978547 9.03686757818599 0 1 0
203 1 37.20663813769205 3.0352057344511705 7.570941052954396 0 0 0
2607 1 38.1444836730183 5.702031076587989 8.10035855495313 0 1 0
1437 1 41.591014588572776 6.052616968663914 11.117172289251378 1 1 0
3455 1 42.168815361519215 5.459018713372784 8.388031763283154 1 0 0
1954 1 44.94039756635814 5.391728125220503 8.635685650509663 0 0 1
274 1 44.89898617887848 3.2806533231762196 10.352907198445225 0 0 0
2992 1 47.616753533155695 2.838830424645677 10.448561776197488 -1 1 0
1638 1 48.59560688552806 5.318611246865902 9.624376232603073 -1 0 1
474 1 1.307722896632791 9.153837932753346 6.063902114113856 0 0 0
2933 1 4.139940857399391 9.515535673378196 6.60571908160567 0 0 0
3913 1 5.0121022733853895 6.932170311046457 7.498378145953754 1 0 1
3789 1 7.5486310986202545 6.9928850871054244 8.348030330040475 1 0 1
2149 1 15.158193615791868 5.799175560722506 8.722275725866396 0 1 0
1136 1 17.263646227332345 9.267290029568308 7.522386319912549 0 0 0
741 1 18.752555030922622 6.607415776010182 9.774461146411795 1 0 0
2111 1 24.01329513459391 6.713713076013129 9.252397719347028 0 1 0
1992 1 22.765846621019136 8.538336574049048 7.580003557685261 0 0 1
2527 1 27.948503136766316 7.79144165799482 9.7611923009657 0 1 1
1112 1 29.88813287511367 7.7566675499045665 6.3955617374840745 0 0 1
1977 1 30.696308002827212 7.775616965946483 9.493791615047005 0 0 1
74 1 36.00190568973966 7.462811236160388 8.598152099372168 0 0 0
2161 1 38.27752345480082 7.128404670777622 5.533723672431312 -1 1 0
1897 1 45.88423100940796 8.134495790711833 9.448891283822586 0 0 1
3430 1 44.84728179042365 9.846074479006306 7.869826834310128 -1 0 0
1054 1 48.300402024400185 7.554958802719786 8.011253647661702 -1 0 0
836 1 4.01458126277303 11.000287599070468 8.982918087712635 0 -1 1
2601 1 8.252535129316104 9.803937691414207 8.694378747746901 0 1 0
3829 1 11.820867211388293 8.730852110761365 8.479241161008341 0 1 1
2396 1 14.104605418101801 10.677911353129309 9.007575551796242 1 0 0
3112 1 14.838263225410639 10.26025699667621 6.305835183806593 1 0 1
3488 1 20.738516610288244 8.841281964764153 9.747814313352078 0 0 0
561 1 23.197112214752416 12.125359339067067 9.572473086755519 -1 0 0
511 1 26.03114729711607 10.608389026389741 11.160835457728687 0 0 -1
1021 1 31.992028881315093 10.425268092629207 10.015988733132136 0 0 0
3639 1 31.726885221961076 11.64276490818302 7.519149910388617 0 1 0
172 1 36.93609186632748 10.207398114067853 8.104775124440732 0 1 0
3721 1 36.06819364192094 13.42270905099178 8.085341565144072 0 1 1
2210 1 42.60948337612154 10.51496268987674 9.461330253140826 0 1 0
1548 1 41.98148458082858 13.30892852643393 10.344612053638665 0 0 1
3077 1 46.107242664390405 12.432612821626913 8.286106246215148 -1 1 0
547 1 49.79389806246352 12.591919575116927 6.290593496970052 -1 0 0
3300 1 -0.1102791524447603 9.317675602262929 8.562675019050006 1 0 0
945 1 2.651040256589564 15.676895944416538 8.017627052746642 1 0 0
2829 1 3.613832926292719 13.014437946309037 7.256814535319116 0 0 1
2562 1 3.838044792255751 16.520275899193063 10.520151730626582 0 1 -1
952 1 11.396759254785074 17.260567644250425 6.226179842864962 0 -1 1
2769 1 11.683184086410362 12.401287677817308 9.395080499431026 1 0 -1
472 1 11.496606661017466 16.83919295515188 8.823184525807235 1 -1 0
579 1 13.35389878963037 14.516065435023293 8.225664479425385 1 0 0
718 1 16.266464973223805 13.827845501863903 7.439751846796001 0 -1 1
689 1 15.19861821598306 15.024693768124639 10.349071473996817 0 0 0
25 1 16.618770828412934 16.38771573298236 6.50069911956493 1 0 0
1514 1 20.888668552677924 12.05542470361926 8.068650756800844 1 0 1
1935 1 18.722729769851334 13.871664051108361 8.920390453496335 0 1 1
3592 1 22.03471080438872 13.529701688593287 5.932665541646774 0 0 0
1798 1 26.844072671050633 14.38418806144528 7.618178241445988 0 0 1
1196 1 27.441334810169305 11.93688289561154 8.615747261422642 0 0 0
3660 1 31.662586008355703 14.293836165940492 8.601502582135806 0 0 1
3162 1 33.79965715087369 15.175845774710854 9.96293075669061 1 -1 0
3578 1 38.17527496567534 13.089911652268588 6.0387959526307515 -1 1 1
399 1 43.191687872618694 16.134163087476583 7.717707724226042 1 0 0
1095 1 44.451048367691754 14.368991725949813 9.494670864627833 -1 0 1
1103 1 47.36505218511851 13.713995578911792 6.34779368707543 -1 -1 1
1516 1 0.5480452386835296 14.958162246957825 9.65696140192244 1 0 0
1515 1 2.5591447900116604 17.710822301450445 5.889004764978798 1 0 0
1177 1 1.5223303296490132 18.7038228097036 8.640990359695314 1 0 1
4096 1 6.542984799439296 17.34325737721414 7.353873729976687 0 0 1
1595 1 8.934230129919305 18.28498061529789 8.004969785082212 1 0 1
3657 1 13.865485132878897 18.06516515868932 9.599867941666488 0 0 1
962 1 16.054718513733057 19.242541298362788 7.821519155539072 1 -1 0
3333 1 17.50318332724094 19.49039424589346 4.920959651463729 0 0 0
338 1 20.115317637072042 17.81745863764457 8.646156019262797 0 0 0
1876 1 21.355996172908984 15.375890398288279 9.222083626980881 1 0 1
830 1 22.082434300551757 16.118428143181678 6.08768590151323 0 0 0
1366 1 23.566807390980536 16.9801418714354 8.219453213575559 1 -1 0
3417 1 28.684567665039943 16.447658116737664 7.3073197151921585 0 1 1
4104 1 31.24601507299157 15.705775060414307 6.158223853593686 -1 0 1
183 1 36.1647996986282 18.216675809749873 7.882649311438369 0 0 0
1717 1 47.11470047802365 16.86269221947495 6.739953427616402 -1 0 1
2783 1 45.110273472884764 18.32241810507132 7.981293693844362 0 1 0
34 1 48.8098550908717 16.71213809116197 9.354972105581691 -1 0 0
363 1 2.3693909198344154 22.514015575255815 10.659467943570078 1 0 0
56 1 5.850695533452423 22.309689633607036 9.367033586712308 1 0 0
4132 1 8.96711590847398 20.09408860791674 10.162615802842682 1 0 1
732 1 11.514419060560124 21.50964319685721 6.796327489246855 0 -1 0
3442 1 10.82250789221161 22.18095175471722 9.42682025300882 1 0 1
1785 1 15.48760788048235 22.10352687648128 7.501664941094336 0 0 0
887 1 19.701358343780665 20.887548596255222 8.811522267528215 0 0 0
760 1 22.494030855020622 21.565139902218696 8.801620604973055 0 -1 0
4160 1 29.31329669633829 20.22329177626869 7.790797384002811 0 1 0
790 1 28.534397060882593 18.217866249067516 9.274082782132473 -1 -1 0
2447 1 33.37743485810563 19.09668393983153 7.610058432506467 -1 1 0
165 1 33.535072214265774 22.175094581868503 6.932373533158239 0 1 0
723 1 41.26273649152531 19.86619103397662 7.28949950948602 0 0 0
747 1 39.06671647808857 21.826768932920785 6.959020965207852 -1 0 1
1942 1 44.02520207413558 20.64376395394164 7.607869406639988 0 -1 0
2689 1 49.29820772986098 19.264751577690692 7.987852642046665 -1 0 0
3650 1 32.164721571172024 14.09998103829967 0.03292623363135844 0 0 1
3577 1 36.933464438251924 0.5784091075734082 10.938043266026227 0 0 0
1250 1 15.871107926618162 -0.13942590146976128 5.904033554097788 0 0 0
4119 1 19.61617619947634 14.301059906486012 0.33372926061864205 0 0 0
621 1 18.21332906520688 22.818019762978505 7.430283638110361 0 0 0
2427 1 23.434531361613576 22.507646438879778 6.1024066785506905 0 0 0
2631 1 27.720028943829362 22.55261383303033 7.472014525596101 0 0 0
3043 1 25.24255497662492 23.563294178608594 8.226450329818807 0 1 1
2581 1 31.117149787753267 21.548431483070388 9.414586417375801 0 0 0
2301 1 31.83904384459482 -0.10013266900500084 13.037329589580887 0 0 0
2719 1 34.98113429196106 21.95120488784071 9.365503189901034 0 1 0
776 1 7.8055639677608735 15.894389708769609 16.243438681172133 1 0 0
2438 1 39.11669869167003 24.805720813970485 6.94517283840351 0 0 0
2726 1 0.49895016300725337 24.299891691168177 6.637533395167337 1 1 0
3644 1 48.4678167142415 23.55132289026216 7.031567794660076 -1 0 1
3683 1 48.623610385683286 24.28422411391493 9.659245260485232 0 0 0
3132 1 48.518575643825805 6.297231983983838 16.13392417288939 -1 1 0
1096 1 0.8671188466798205 1.1236691404465875 10.12722190342803 1 0 1
326 1 4.293042711051404 0.3633390345684244 13.437709483568828 0 0 0
3718 1 8.54551184641785 2.2818877193731693 10.213033444669229 1 1 1
2539 1 17.894340468869746 22.85823080119313 13.482694544222655 0 0 0
4134 1 10.638913384391037 1.9074272496357225 11.763034411360763 1 1 1
2611 1 13.455208921599313 1.5308416857851705 9.391532304930994 1 1 0
2591 1 19.337793363670876 1.2804780131010067 10.308456854871274 0 1 0
1084 1 22.148462993500992 1.1277162026705474 12.273352168792226 0 0 0
3822 1 15.951004195311974 15.964031352567872 16.005217904869347 0 0 1
981 1 23.781973211880093 2.896437980774377 10.88661738351098 0 0 1
2817 1 28.819169268904016 2.734348262400155 10.591099970110038 0 0 0
1959 1 20.450696416364572 8.166597130812708 15.74885630500637 0 0 1
1018 1 33.41685080445346 2.219599503978956 13.198937346052471 0 1 0
2433 1 0.0927240458409545 17.82868330694782 15.607522703181186 1 1 -1
2733 1 38.0939126081034 2.7844522522363038 11.896414084032338 -1 1 0
2947 1 31.977497258301625 24.00743782690668 8.224199303884136 -1 0 0