
# Set production fixes - Nose/Hoover
#
fix                 2 all nph iso ${PRES} ${PRES} ${PCOUPL}
fix                 2 all nph iso 1 ${PRES} ${PCOUPL}
fix                 2 all nph iso 1 1 ${PCOUPL}
fix                 2 all nph iso 1 1 10000.0
fix                 3 all temp/csvr ${TEMP} ${TEMP} ${TCOUPL} 837492
fix                 3 all temp/csvr 215 ${TEMP} ${TCOUPL} 837492
fix                 3 all temp/csvr 215 215 ${TCOUPL} 837492
fix                 3 all temp/csvr 215 215 5000.0 837492

# Define Order parameter
#
compute             2 all orientorder/atom nnn NULL cutoff 3.5
thermo              200
thermo_style        custom step temp press vol etotal ke pe c_1[4]

# Run 1ns simulation
dump		    1 all custom 400 prod.${NAME}.dump id type x y z vx vy vz c_2[*]
dump		    1 all custom 400 prod.ice_215K_1atm_ML.dump id type x y z vx vy vz c_2[*]
run                 200000
Neighbor list info ...
  update every 1 steps, delay 0 steps, check yes
  max neighbors/atom: 2000, page size: 100000
  master list distance cutoff = 6.0032907
  ghost atom cutoff = 6.0032907
  binsize = 3.0016454, bins = 17 17 17
  2 neighbor lists, perpetual/occasional/extra = 1 1 0
  (1) pair sw, perpetual
      attributes: full, newton on
      pair build: full/bin/atomonly
      stencil: full/bin/3d
      bin: standard
  (2) compute orientorder/atom, occasional, copy from (1)
      attributes: full, newton on
      pair build: copy
      stencil: none
      bin: none
Per MPI rank memory allocation (min/avg/max) = 5.837 | 5.837 | 5.837 Mbytes
Step Temp Press Volume TotEng KinEng PotEng c_1[4] 
       0    215.16392   -20.781031    131491.92   -44310.612    2626.3806   -46936.993   0.10046699 
     200    215.99094    8.7323068    131491.42   -44303.355    2636.4755    -46939.83  0.099684237 
     400    213.74255   -13.834299     131493.9   -44298.477    2609.0307   -46907.508   0.10169563 
     600    216.08739    11.478858    131485.05   -44325.108    2637.6528    -46962.76   0.10153709 
     800    212.40766     11.90976    131467.67   -44335.062    2592.7365   -46927.798   0.10208719 
    1000    215.20871    18.291158    131484.72   -44343.547    2626.9273   -46970.474  0.097556623 
    1200    209.73193   -15.343004    131492.32   -44360.667    2560.0754   -46920.742  0.098216036 
    1400    208.41238    7.0035483    131483.72   -44353.421    2543.9685   -46897.389   0.10230254 
    1600    214.23586   -9.0224787    131500.55   -44356.817    2615.0523   -46971.869   0.10220786 
    1800    211.75418    12.621533    131508.17   -44359.788    2584.7599   -46944.548  0.096803038 
    2000    216.03998    24.790222    131493.33   -44328.462    2637.0741   -46965.536  0.098570188 
    2200    215.40512    18.732886    131508.47    -44306.75    2629.3248   -46936.074  0.097317667 
    2400    214.19509   -36.846258    131553.99   -44319.411    2614.5546   -46933.966   0.10027798 
    2600    213.28782    4.1326179    131493.46   -44350.553    2603.4801   -46954.034   0.09974354 
    2800    217.13033    65.024323    131451.74   -44362.817    2650.3834     -47013.2  0.094531526 
    3000    214.25619   -64.372678    131572.36   -44370.676    2615.3005   -46985.977  0.097386054 
    3200    211.64712    9.6417775    131518.02   -44332.225     2583.453   -46915.678  0.098232039 
    3400    209.83291     56.12417    131431.48    -44359.79    2561.3081   -46921.098    0.1005998 
    3600    211.65734   -52.497667     131535.3   -44379.832    2583.5778    -46963.41  0.099014263 
    3800    214.58173   -36.317208    131546.88   -44328.465    2619.2741   -46947.739  0.097050727 
    4000    212.93199    51.199682    131478.11   -44324.607    2599.1366   -46923.744  0.097796415 
    4200    213.11267   -16.258716    131544.02   -44336.614    2601.3422   -46937.956  0.099058232 
    4400    211.95157   -34.337067    131551.76   -44320.122    2587.1693   -46907.291   0.10272793 
    4600     215.2838    21.546402    131479.91   -44311.493    2627.8439   -46939.337   0.10008766 
    4800    215.17559    13.817848    131522.47   -44307.299     2626.523   -46933.822  0.094670618 
    5000    216.71434    -42.14303    131564.05   -44302.198    2645.3056   -46947.504  0.098325304 
    5200    213.22571    12.526259    131493.38   -44301.526    2602.7219   -46904.247   0.10063396 
    5400    217.13476    27.057464    131503.53   -44273.541    2650.4375   -46923.978  0.098259193 
    5600    218.69285   -21.592913     131593.3   -44262.126    2669.4561   -46931.582   0.09727237 
    5800    215.86903    0.8684293    131536.42   -44254.019    2634.9874   -46889.007    0.1001149 
    6000    220.33543      29.9879    131481.64    -44244.75    2689.5062   -46934.257   0.10026303 
    6200    220.70862   -22.704946    131568.87   -44239.596    2694.0615   -46933.657  0.098467611 
    6400    215.73066   -25.033485    131556.09   -44216.751    2633.2984   -46850.049   0.10240879 
    6600    216.03507    44.797114    131483.29   -44244.754    2637.0142   -46881.769   0.10014706 
    6800    216.85626    6.5984904    131521.56   -44269.984     2647.038   -46917.022  0.099070175 
    7000    217.46801   -26.323634    131547.41    -44278.73    2654.5052   -46933.235   0.10317344 
    7200    216.85719    44.182149    131480.48   -44238.993    2647.0493   -46886.043   0.10267443 
    7400    216.23238   -12.749816    131520.66    -44226.59    2639.4226   -46866.013   0.10233935 
    7600    215.68016   -47.003324    131583.68   -44253.489     2632.682   -46886.171  0.098876348 
    7800    213.93188     37.04981     131491.8   -44272.083    2611.3418   -46883.425  0.098092846 
    8000    220.60842    43.283638    131491.33   -44245.718    2692.8385   -46938.557   0.10256341 
    8200    215.30293   -60.769184    131613.58   -44271.318    2628.0774   -46899.396   0.10102212 
    8400    216.72832   -23.905654    131527.87   -44293.226    2645.4763   -46938.703  0.098121896 
    8600    217.51131    86.860299    131442.26   -44261.042    2655.0338   -46916.076  0.098864342 
    8800    219.17771   -72.508747    131625.37   -44218.182    2675.3746   -46893.556  0.098467401 
    9000    217.97993   -63.639896    131621.55   -44202.593    2660.7539   -46863.347  0.097764909 
    9200    217.57166    132.21526    131406.66     -44191.2    2655.7705   -46846.971   0.10328018 
    9400    219.26643   -15.814778    131572.77   -44226.694    2676.4575   -46903.151  0.098166269 
    9600    221.79664   -103.76129    131676.67    -44218.87    2707.3423   -46926.212  0.097111444 
    9800    221.12104    97.336502    131402.49   -44230.511    2699.0957   -46929.607   0.10166969 
   10000    216.67551    42.588237    131485.29   -44226.938    2644.8317    -46871.77   0.10319972 
   10200    217.64902   -172.78211    131740.71   -44225.474    2656.7148   -46882.189  0.098256578 
   10400    217.94244    65.799346    131448.83   -44215.808    2660.2963   -46876.104  0.098913698 
   10600    218.24554    126.00812    131406.19   -44203.094    2663.9961   -46867.091   0.10201133 
   10800    215.39591   -185.35722     131762.8   -44223.879    2629.2123   -46853.091    0.1008489 
   11000    216.88552   -4.3320059     131505.4   -44252.966    2647.3951   -46900.361   0.10300016 
   11200    218.45379    227.26192    131266.55   -44264.023    2666.5381   -46930.561  0.097894517 
   11400    217.95426    -162.5343    131719.83   -44281.954    2660.4406   -46942.394  0.093326685 
   11600    217.34135   -112.67282    131648.61    -44261.43    2652.9592    -46914.39  0.097891107 
   11800    214.59239    251.62016    131227.47   -44311.478    2619.4042   -46930.882   0.10173949 
   12000    214.70101   -44.924522       131585    -44311.65    2620.7301    -46932.38  0.097341567 
   12200    215.45464   -204.14932    131739.99   -44295.757    2629.9292   -46925.687  0.099600159 
   12400    216.05424    235.16425     131255.7   -44272.949    2637.2482   -46910.197  0.098156694 
   12600    217.46264    47.590936    131471.32   -44281.303    2654.4397   -46935.743  0.096672021 
   12800    216.31084   -265.34771    131805.23   -44286.816    2640.3804   -46927.196   0.10271257 
   13000    213.00723    163.39013    131331.97   -44272.499    2600.0552   -46872.554   0.10609364 
   13200    214.85139    167.53923    131335.99   -44253.299    2622.5657   -46875.865   0.10351055 
   13400    215.94765   -274.06139    131807.69   -44266.211    2635.9471   -46902.158   0.10318315 
   13600    219.41063    62.275548    131434.22   -44264.332    2678.2177    -46942.55   0.10110701 
   13800    213.61635    219.18523    131231.61   -44258.628    2607.4903   -46866.119   0.10607106 
   14000    219.65765   -227.17705    131766.83   -44269.345     2681.233   -46950.578   0.09991424 
   14200    215.39737   -72.505834    131592.43       -44283    2629.2302    -46912.23    0.1000182 
   14400    212.20161    311.45321    131181.25   -44303.372    2590.2213   -46893.594   0.10244798 
   14600    217.24085    -133.4382    131651.67   -44301.296    2651.7324   -46953.029   0.10159811 
   14800    214.92279    -203.1204    131721.58   -44284.283    2623.4372    -46907.72   0.10492022 
   15000    213.87162    255.46457    131204.88   -44321.732    2610.6062   -46932.338   0.10346622 
   15200    213.36731   -18.134636    131494.95   -44363.121    2604.4503   -46967.571  0.099479729 
   15400    213.46023   -240.54288    131756.62   -44365.882    2605.5847   -46971.466  0.098721412 
   15600    212.17336    200.41945     131260.2   -44397.144    2589.8766   -46987.021   0.10288728 
   15800    211.62549    121.08611    131358.28   -44356.965     2583.189   -46940.154   0.10530741 
   16000    211.23023   -256.15362    131778.71   -44347.017    2578.3644   -46925.382   0.10070929 
   16200    217.47873     107.7355    131394.21   -44311.467     2654.636   -46966.103  0.096770685 
   16400    213.75051    146.73742     131320.5   -44310.188    2609.1279   -46919.316   0.10429624 
   16600    209.71419   -187.51883    131741.46   -44322.021    2559.8589    -46881.88   0.10107241 
   16800    214.34827    -2.158631    131521.92   -44290.427    2616.4244   -46906.852   0.10303927 
   17000    216.49542    182.32531    131318.43   -44307.658    2642.6334   -46950.292   0.10286496 
   17200    217.17939   -77.890906     131622.2   -44295.851    2650.9823   -46946.833  0.099360996 
   17400    213.99216   -70.093164    131581.71   -44327.742    2612.0776    -46939.82   0.10001653 
   17600    212.05859    134.79687    131340.31   -44354.752    2588.4756   -46943.227   0.10071495 
   17800    209.69066   -31.372813    131517.31   -44367.477    2559.5717   -46927.049    0.1030101 
   18000    212.74773   -75.817147    131581.45   -44388.907    2596.8876   -46985.795  0.098374847 
   18200    208.08264    82.097756    131367.03   -44411.563    2539.9435   -46951.506   0.10143124 
   18400    212.70697    49.082932    131447.38   -44422.891      2596.39   -47019.281   0.10104682 
   18600    214.05068   -107.77287    131586.24   -44393.656    2612.7919   -47006.448   0.10241544 
   18800    213.53993    41.750926     131434.1   -44350.625    2606.5575   -46957.182  0.099929052 
   19000    209.10353    78.666868    131418.84   -44362.363    2552.4049   -46914.768  0.098716878 
   19200    214.63222    -72.88677    131564.82   -44348.441    2619.8904   -46968.331   0.10120009 
   19400    216.01315   -31.405643    131496.13   -44346.531    2636.7466   -46983.278   0.10462494 
   19600    213.53063     56.07771    131422.89   -44361.843    2606.4439   -46968.287    0.1008912 
   19800    213.07978   -14.142659    131524.16   -44356.879    2600.9407    -46957.82  0.099461358 
   20000    214.08149   -43.840056    131537.26    -44355.61    2613.1679   -46968.778  0.099777025 
   20200     214.4315     23.03593    131430.98   -44374.734    2617.4403   -46992.175   0.10025479 
   20400    211.64882    -5.871834    131467.69   -44357.379    2583.4738   -46940.852    0.1042561 
   20600    211.64112    -42.02672    131529.63   -44359.122    2583.3798   -46942.502   0.10525062 
   20800    211.20323    48.406992    131460.86   -44349.622    2578.0347   -46927.656   0.10128008 
   21000    215.24807    39.623804    131477.67    -44352.02    2627.4077   -46979.428  0.097743171 
   21200    211.62502    -42.64255    131534.41   -44343.399    2583.1833   -46926.582   0.10341277 
   21400    211.48298    24.159066    131469.92   -44340.389    2581.4495   -46921.839    0.1029913 
   21600    218.62381    34.074536    131476.54   -44309.198    2668.6134   -46977.812   0.09785547 
   21800    217.14392   -40.490606     131561.7   -44278.064    2650.5492   -46928.613   0.10028077 
   22000    216.51666    5.4791783    131486.08   -44284.457    2642.8926    -46927.35   0.10356751 
   22200    215.84383    45.503908    131444.91   -44253.313    2634.6798   -46887.993   0.10793407 
   22400    220.01794   -81.605533    131600.43   -44239.049    2685.6308    -46924.68   0.10675995 
   22600    219.54294   -28.600491    131545.34   -44242.379    2679.8327   -46922.211   0.10068712 
   22800    213.35556    91.132423       131399   -44275.338     2604.307   -46879.645   0.10003357 
   23000    216.07567   -50.689992    131561.84   -44285.982    2637.5098   -46923.492   0.10052744 
   23200    216.95931   -57.040871    131598.68   -44275.528    2648.2958   -46923.823   0.10001634 
   23400    218.97354    114.73823    131373.07   -44284.682    2672.8823   -46957.564   0.10471884 
   23600    213.42075   -12.159781    131502.47   -44292.209    2605.1027   -46897.312   0.10441033 
   23800    215.56268   -111.02625    131663.55    -44253.61     2631.248   -46884.858  0.096143656 
   24000    213.45975    79.831719     131394.8   -44275.422    2605.5788       -46881   0.10442862 
   24200    217.13717    78.065085    131425.71   -44268.015    2650.4669   -46918.481   0.10671136 
   24400    214.81639   -199.45876     131738.1   -44270.045    2622.1385   -46892.184    0.1020793 
   24600    214.96767    102.87907    131433.62   -44272.167     2623.985   -46896.152   0.10077775 
   24800    215.28535    181.39111     131320.1   -44218.077    2627.8627    -46845.94   0.10521501 
   25000     217.6916    -242.1799    131785.26   -44226.717    2657.2345   -46883.951   0.10410612 
   25200    216.29455   -32.131188    131539.78     -44246.2    2640.1816   -46886.381   0.10534692 
   25400    216.80689    249.63133    131186.99   -44284.644    2646.4353   -46931.079   0.10612456 
   25600    219.06525    -145.4958    131673.71   -44302.515    2674.0018   -46976.516  0.094922394 
   25800    216.86157   -140.89976    131685.42   -44280.687    2647.1028    -46927.79  0.099565502 
   26000    215.51728    299.10413    131176.75   -44268.342    2630.6938   -46899.036   0.10657967 
   26200    213.34284   -59.925044    131533.37   -44291.326    2604.1517   -46895.478   0.10562391 
   26400    211.70336   -251.58274    131760.96   -44306.537    2584.1395   -46890.676   0.10484579 
   26600    213.46234    199.62919    131236.19   -44311.982    2605.6103   -46917.592   0.10464794 
   26800    212.27452    86.368743    131390.48   -44314.849    2591.1113    -46905.96   0.10016136 
   27000    211.95858   -290.07359    131784.79   -44315.796    2587.2548   -46903.051   0.10763455 
   27200    214.47989     120.7126    131321.29    -44312.79    2618.0311   -46930.821   0.10794662 
   27400    215.69111    177.90869    131262.94    -44290.69    2632.8157   -46923.506   0.10340336 
   27600    213.68423   -252.16017    131766.36   -44296.066    2608.3188   -46904.385   0.10514947 
   27800    215.48315    6.3054592     131475.3   -44286.199    2630.2772   -46916.476   0.10381492 
   28000    213.61216    224.36319    131219.33   -44281.285    2607.4391   -46888.724   0.10373151 
   28200    216.07853   -168.16829    131688.67    -44290.74    2637.5447   -46928.285   0.10364669 
   28400    216.69268   -86.474641    131611.48   -44290.361    2645.0412   -46935.402   0.10227168 
   28600    214.03707    269.46962    131200.41   -44301.642    2612.6257   -46914.267   0.10345388 
   28800    214.93121   -73.500234    131558.74   -44312.585      2623.54   -46936.125   0.10616991 
   29000    213.13198   -195.09438    131685.16   -44341.957    2601.5778   -46943.535   0.10494267 
   29200     213.7589    219.11095    131250.49   -44366.635    2609.2303   -46975.866   0.09858674 
   29400    213.23716    18.459588    131440.88   -44367.697    2602.8617   -46970.558   0.10111593 
   29600    210.39892   -204.76852    131725.81   -44339.028     2568.217   -46907.245   0.10123437 
   29800    217.37105    115.91514     131365.3   -44285.175    2653.3217   -46938.497    0.1054678 
   30000    213.66807    107.45771    131366.44   -44276.149    2608.1216    -46884.27   0.10857133 
   30200    215.61835   -188.33755    131712.59   -44285.617    2631.9275   -46917.544   0.10228221 
   30400    216.07251    23.385995    131464.32   -44324.301    2637.4712   -46961.773  0.099540652 
   30600    217.20728    186.25313    131287.51   -44284.414    2651.3226   -46935.737    0.1055621 
   30800    215.40028   -158.45555    131662.26   -44258.708    2629.2656   -46887.974   0.10549718 
   31000    218.52828   -85.657184    131591.53   -44252.475    2667.4473   -46919.923   0.10277593 
   31200    217.63281    172.81301    131314.12   -44254.931    2656.5169   -46911.447   0.10620004 
   31400    216.55285   -61.703656    131588.83   -44252.234    2643.3344   -46895.568   0.10229387 
   31600    214.72217   -105.21633    131650.24   -44295.198    2620.9883   -46916.187   0.10067841 
   31800    216.29347    130.39354    131362.19   -44271.627    2640.1683   -46911.795   0.10539067 
   32000    216.79668    5.6965562    131517.98   -44254.013    2646.3107   -46900.324   0.10203782 
   32200    214.73392   -143.02468    131673.39     -44275.1    2621.1318   -46896.232   0.10163273 
   32400    216.75216    78.944984     131449.3    -44275.82    2645.7673   -46921.588   0.10166619 
   32600    215.43962    52.479882    131465.74   -44268.955    2629.7458   -46898.701   0.10693617 
   32800    212.96168   -86.653129    131646.56   -44262.327    2599.4991   -46861.826   0.10333716 
   33000    216.96669    11.081782    131509.72   -44255.655    2648.3859    -46904.04  0.099954743 
   33200    214.26108    96.313808    131425.81   -44255.308    2615.3601   -46870.668   0.10126132 
   33400    218.44025   -72.252116    131589.03   -44227.087    2666.3728    -46893.46   0.10396113 
   33600    218.33729   -28.528894    131559.44   -44179.343    2665.1161   -46844.459   0.10800815 
   33800    217.96226    54.370972    131455.71   -44201.563    2660.5382   -46862.102   0.10857356 
   34000    220.46272   -5.1394771     131535.3   -44229.007    2691.0599   -46920.067   0.10023253 
   34200     214.5413   -50.395192    131551.49   -44257.101    2618.7806   -46875.882   0.10340151 
   34400    217.03077    26.716877    131456.53    -44298.19    2649.1682   -46947.358   0.10352794 
   34600    216.88473   -6.2086096     131505.5   -44271.411    2647.3855   -46918.797   0.10540672 
   34800    214.08365   -67.982476    131579.11    -44299.76    2613.1944   -46912.954   0.10456977 
   35000    216.46258    48.720672    131477.83    -44323.66    2642.2326   -46965.892  0.098669296 
   35200    215.72461    6.6957051    131464.59   -44319.456    2633.2246   -46952.681   0.10196342 
   35400    214.88488   -38.626907     131558.5   -44296.624    2622.9745   -46919.598   0.10330727 
   35600     213.6926   -1.5102525    131510.88   -44290.937    2608.4211   -46899.359   0.10387552 
   35800    214.68039    90.223002    131453.45   -44289.632    2620.4784    -46910.11  0.098962168 
   36000    215.88135   -27.539066     131551.9   -44290.113    2635.1379   -46925.251  0.099207205 
   36200    214.75997   -55.522421     131549.1   -44299.742    2621.4497   -46921.191   0.10446891 
   36400    210.98378     50.96547    131436.28   -44317.163     2575.356   -46892.519   0.10478026 
   36600    213.02185   -28.721635     131536.1   -44299.193    2600.2336   -46899.426   0.10481549 
   36800    215.14744   -81.938713     131585.7   -44329.179    2626.1794   -46955.358   0.10029056 
   37000    212.20482     72.89708    131408.44   -44320.135    2590.2606   -46910.396  0.098721353 
   37200    214.10307    24.383524    131465.92   -44292.539    2613.4314   -46905.971    0.1016034 
   37400    217.77305   -61.718742    131608.94   -44286.225    2658.2286   -46944.454   0.10030803 
   37600    215.56189    52.268608    131454.01   -44304.596    2631.2383   -46935.834   0.10189819 
   37800    215.94919    66.121253    131426.26   -44279.903    2635.9659   -46915.869   0.10334727 
   38000    213.21235   -117.53923    131621.87    -44317.12    2602.5589   -46919.679   0.10108551 
   38200     213.9695   -2.3473211    131506.25   -44312.322     2611.801   -46924.123    0.1000527 
   38400    216.35309    141.76933    131393.63    -44288.01    2640.8961   -46928.906   0.10128517 
   38600    216.94008    -83.92134    131634.89   -44286.633    2648.0611   -46934.694  0.098833679 
   38800    214.86211   -36.705561     131561.8   -44321.616    2622.6965   -46944.312  0.099090221 
   39000    211.53886    125.65046    131328.78   -44339.397    2582.1316   -46921.529    0.1035506 
   39200    213.96549   -43.573386    131567.92    -44353.82     2611.752   -46965.572  0.098244933 
   39400    215.41445   -124.86356     131625.7     -44346.4    2629.4386   -46975.839  0.099294275 
   39600     213.7677     144.7341       131288   -44395.114    2609.3377   -47004.451  0.099486585 
   39800    210.68502   -5.6191236    131445.44   -44386.652    2571.7092   -46958.361  0.099601583 
   40000    213.68598   -189.39152    131664.47   -44397.933    2608.3402   -47006.273   0.09705421 
   40200    213.51605    134.84658    131308.92   -44381.755     2606.266   -46988.021   0.10391536 
   40400    212.53015    115.10246    131360.33   -44372.654    2594.2317   -46966.886   0.10039947 
   40600    212.25633   -193.76957    131702.08   -44392.786    2590.8893   -46983.675  0.097437568 
   40800    210.81832    42.507359     131384.4    -44402.83    2573.3363   -46976.166   0.10061344 
   41000    212.25863    165.11763    131271.08   -44375.322    2590.9174   -46966.239   0.10070485 
   41200    214.54577   -193.12082    131698.29   -44393.214    2618.8352   -47012.049  0.097896968 
   41400    211.99799   -31.407105    131499.19   -44372.453    2587.7359   -46960.189  0.099597109 
   41600    208.87472    256.20068    131200.79   -44366.558     2549.612    -46916.17   0.10125308 
   41800    211.35286   -145.04717    131629.98   -44364.872    2579.8612   -46944.733   0.09976297 
   42000    213.98355   -148.02151     131642.3   -44348.991    2611.9725   -46960.963   0.10272418 
   42200    213.14802    238.24402    131213.25   -44364.556    2601.7737    -46966.33  0.099206933 
   42400    212.62768   -7.2773779    131498.03   -44399.899    2595.4221   -46995.321  0.096013783 
   42600    208.20721   -217.11958    131685.66   -44419.723     2541.464   -46961.187  0.099934535 
   42800    212.47453    195.98942    131227.64   -44418.679    2593.5528   -47012.232   0.10049406 
   43000    211.55014    67.142008    131390.03   -44388.845    2582.2692   -46971.114   0.10326481 
   43200    208.04762   -266.35774    131747.88   -44391.779     2539.516   -46931.295   0.10291326 
   43400    215.26731    141.63738    131324.01   -44383.069    2627.6425   -47010.712  0.097180341 
   43600    213.25759    169.40064     131294.4   -44382.681    2603.1111   -46985.792  0.098257009 
   43800    211.46482   -241.36524    131744.07   -44358.217    2581.2278   -46939.444  0.099497105 
   44000    213.95515    24.846769    131446.01   -44372.776    2611.6258   -46984.402  0.099987696 
   44200    208.75581    195.86696    131206.68   -44412.862    2548.1606   -46961.022   0.10359922 
   44400    211.89942   -163.76344    131640.07   -44398.004    2586.5327   -46984.537  0.099266601 
   44600    211.55378   -100.74596    131552.14   -44347.747    2582.3137   -46930.061   0.10369095 
   44800    212.51109    221.03414    131214.68   -44321.135     2593.999   -46915.134   0.10555365 
   45000    215.27167    -104.0354    131582.82   -44342.616    2627.6958   -46970.312   0.10196429 
   45200    213.10451   -161.97165    131667.89   -44355.155    2601.2426   -46956.398   0.10058198 
   45400    211.77086    188.64632    131254.16   -44392.445    2584.9634   -46977.408  0.099707806 
   45600    205.39242    12.106012    131457.66   -44381.149    2507.1055   -46888.254   0.10225593 
   45800     215.5125   -208.09655    131714.05   -44360.935    2630.6355   -46991.571  0.098782289 
   46000    216.51282    121.06679    131341.71   -44358.357    2642.8458   -47001.203   0.10176413 
   46200    211.53166    111.15677    131350.07   -44376.911    2582.0436   -46958.955  0.099953326 
   46400    214.28823   -178.74498    131696.04   -44366.965    2615.6916   -46982.657  0.098071713 
   46600    210.58787    41.344988    131423.42   -44369.786    2570.5233    -46940.31   0.10438095 
   46800    212.63701    183.32594    131273.56   -44342.951    2595.5361   -46938.487   0.10407261 
   47000    214.55741   -148.79303     131657.4   -44330.045    2618.9773   -46949.022   0.10246083 
   47200    212.49587   -71.163274     131558.9   -44310.741    2593.8132   -46904.555    0.1045229 
   47400    218.26588    201.86641     131292.2   -44259.531    2664.2443   -46923.775   0.10210781 
   47600    217.42185   -88.445825    131610.98   -44241.898    2653.9418    -46895.84   0.10563636 
   47800    215.71955   -130.62694     131659.8   -44220.242    2633.1628   -46853.405   0.10666332 
   48000    219.86162    177.33501    131340.18   -44226.113    2683.7226   -46909.836   0.10358747 
   48200    217.88121   -13.426049    131542.11   -44227.768    2659.5489   -46887.317    0.1063206 
   48400    217.98796   -162.70817    131718.73   -44214.361     2660.852   -46875.213   0.10423369 
   48600    219.82482     115.7753    131392.41   -44257.876    2683.2735    -46941.15   0.10356026 
   48800     215.3332    65.183512     131438.5   -44218.129    2628.4469   -46846.576   0.10892162 
   49000    222.02568   -175.28391    131743.84   -44200.416     2710.138   -46910.554   0.10090441 
   49200    216.20559    46.871244    131473.78   -44227.354    2639.0956    -46866.45   0.10362157 
   49400    219.09736    155.48687    131343.85   -44236.655    2674.3938   -46911.049   0.10394528 
   49600    213.18114   -174.42576    131712.14   -44251.363    2602.1779   -46853.541   0.10649935 
   49800    215.33291   -30.098502    131560.21   -44236.736    2628.4433   -46865.179   0.10644156 
   50000    216.18602    186.97184    131311.63   -44235.679    2638.8568   -46874.536   0.10506692 
   50200    215.50827   -126.73365    131653.53   -44263.174    2630.5838   -46893.758   0.10429815 
   50400    218.69649   -88.148235    131622.55   -44262.479    2669.5006    -46931.98   0.10280391 
   50600    219.14019    184.64229    131278.48   -44277.934    2674.9166    -46952.85   0.10628359 
   50800     214.6675   -33.908086    131548.67   -44284.325    2620.3211   -46904.646   0.10543908 
   51000    214.63499   -179.98905    131723.93   -44245.547    2619.9242   -46865.471   0.10271404 
   51200    217.07821      170.209     131318.2   -44263.711    2649.7471   -46913.459   0.10388071 
   51400    220.79331    83.268867    131425.47   -44237.545    2695.0952    -46932.64    0.1036391 
   51600    218.18124    -216.5152    131790.98   -44239.073    2663.2112   -46902.284   0.10252585 
   51800     215.8415    98.170921    131391.55   -44237.902    2634.6514   -46872.553   0.10717321 
   52000    220.97801    205.78497    131292.01   -44203.567    2697.3497   -46900.917   0.10673306 
   52200    217.49667   -268.86371    131843.69   -44181.393    2654.8551   -46836.249   0.10696107 
   52400    220.22637   -17.775098    131543.37   -44172.423    2688.1749   -46860.598   0.10967698 
   52600     220.5051    304.91188    131168.92    -44200.62    2691.5773   -46892.197   0.10838475 
   52800    218.98739   -231.51718    131772.62   -44216.089    2673.0514    -46889.14   0.10587473 
   53000    218.70841    -174.0967    131701.68   -44220.128    2669.6461   -46889.774   0.10476712 
   53200     218.6692    375.98258    131088.75   -44226.416    2669.1674   -46895.584   0.10899299 
   53400    214.91786   -100.28941    131620.25   -44243.343     2623.377    -46866.72   0.10688068 
   53600    217.36917   -290.65764    131870.91   -44266.617    2653.2988   -46919.916   0.10008089 
   53800     218.3844    360.81546    131115.04   -44255.788    2665.6911    -46921.48   0.10256242 
   54000    220.11478    84.245782    131402.51   -44250.794    2686.8128   -46937.607    0.1032698 
   54200    218.43293   -413.82012    131966.67   -44253.658    2666.2834   -46919.941    0.1040332 
   54400     215.3618     191.1933    131255.16   -44272.319    2628.7959   -46901.115   0.11014653 
   54600    214.82505    215.25956    131210.25   -44268.629    2622.2441   -46890.873   0.11037512 
   54800    214.50938   -356.89587    131907.91   -44227.416     2618.391   -46845.807   0.10481411 
   55000     219.9511    34.362689    131476.74    -44230.26    2684.8148   -46915.074   0.10493486 
   55200    213.47439    283.13402    131161.76   -44252.951    2605.7574   -46858.708   0.10974878 
   55400    215.96435    -201.1889    131739.09   -44268.741    2636.1509   -46904.892   0.10260383 
   55600    214.08042   -82.736043    131619.97   -44292.104    2613.1549   -46905.259   0.10150229 
   55800    217.65142    263.55232    131205.45   -44272.456     2656.744     -46929.2   0.10223876 
   56000    215.23366   -73.636509    131599.05   -44262.166    2627.2319   -46889.397   0.10374519 
   56200    215.82339   -164.05151    131695.31   -44280.249    2634.4304    -46914.68    0.1042325 
   56400    218.98956    184.20352    131291.47    -44284.28     2673.078   -46957.358    0.1026838 
   56600    214.00089    33.508126    131471.44   -44287.792    2612.1842   -46899.976   0.10027854 
   56800    217.17665    -161.3248    131702.33   -44256.659    2650.9487   -46907.607   0.10265532 
   57000    219.61839    104.02844    131405.41   -44253.395    2680.7537   -46934.148   0.10310456 
   57200    214.68315    45.418135    131409.17   -44279.416    2620.5121   -46899.928   0.10665969 
   57400    216.36299   -145.88912    131644.26   -44295.139    2641.0169   -46936.156   0.10550086 
   57600    217.99576     56.54236    131458.27   -44269.746    2660.9472   -46930.694  0.099317856 
   57800    217.03406    126.23262    131372.73   -44280.063    2649.2083   -46929.271   0.10103549 
   58000    216.06977    -87.44317    131612.88   -44290.328    2637.4378   -46927.766   0.10431361 
   58200    212.58291   -51.901384    131524.98   -44318.952    2594.8756   -46913.828   0.10488892 
   58400    214.65991    115.15585    131332.44   -44314.095    2620.2284   -46934.323   0.10571259 
   58600    216.77059   -40.491939    131549.37   -44300.191    2645.9923   -46946.183   0.10195229 
   58800     217.1646   -76.880108    131580.43   -44323.582    2650.8017   -46974.383  0.099791421 
   59000    215.28232    129.69852    131336.95   -44340.314    2627.8258    -46968.14   0.10180314 
   59200    212.33561    31.488164    131483.09   -44340.274     2591.857   -46932.131   0.10242995 
   59400    215.86652   -134.18587    131647.36   -44300.377    2634.9568   -46935.333  0.099828123 
   59600    214.12003    73.933615    131408.21   -44297.978    2613.6384   -46911.617   0.10126995 
   59800    214.10829    81.516844    131421.98   -44289.027    2613.4951   -46902.522    0.1027724 
   60000    211.83211   -132.64143    131670.72   -44280.301    2585.7111   -46866.012   0.10402528 
   60200    215.34834   -8.2103911    131485.73   -44262.255    2628.6317   -46890.887   0.10554948 
   60400    218.62912      139.248    131357.31   -44241.025    2668.6782   -46909.703   0.10381207 
   60600    218.79696   -131.90526    131643.88   -44269.794     2670.727   -46940.521   0.10125838 
   60800    212.09645    -39.23423    131547.01    -44226.83    2588.9377   -46815.767   0.10803608 
   61000    215.74628    177.96396    131329.88   -44255.908     2633.489   -46889.398   0.10598943 
   61200    219.21411   -78.907276    131610.76   -44260.067    2675.8188   -46935.886   0.10181782 
   61400    218.09242   -105.80433    131636.05   -44258.027     2662.127   -46920.154   0.10327167 
   61600    213.34976    175.30085    131307.37   -44251.362    2604.2362   -46855.598    0.1050234 
   61800    216.39214   -25.218408    131521.08   -44253.008    2641.3727   -46894.381   0.10386018 
   62000    215.52188   -193.52055     131700.4   -44263.542      2630.75   -46894.292   0.10772524 
   62200    216.95964    156.55438    131298.62   -44267.626    2648.2999   -46915.925   0.10839262 
   62400    214.90458    68.364358    131414.63   -44244.684     2623.215   -46867.899   0.10857503 
   62600     220.6104   -253.13512    131784.08   -44260.973    2692.8626   -46953.835   0.10414831 
   62800     218.1535    159.56022     131360.8   -44238.921    2662.8726   -46901.793   0.10420502 
   63000    220.64333    194.22945    131302.76   -44221.183    2693.2646   -46914.447   0.10225928 
   63200    218.50303   -322.91849    131858.79   -44223.842    2667.1391   -46890.981   0.10283483 
   63400    220.51225    67.127517    131478.16   -44194.472    2691.6645   -46886.136   0.10335831 
   63600     221.2444    330.38058    131152.77   -44180.028    2700.6014   -46880.629   0.10839478 
   63800    220.93693   -284.50766    131871.93   -44199.712    2696.8483   -46896.561   0.10473796 
   64000    219.53463   -146.12814    131687.57   -44203.688    2679.7313   -46883.419   0.10791601 
   64200    217.88166    435.36132    131005.61   -44206.238    2659.5544   -46865.792   0.11111031 
   64400    215.43995   -193.59828    131727.44   -44195.551    2629.7499     -46825.3   0.10606564 
   64600     216.7268   -353.07544    131918.09   -44232.291    2645.4577   -46877.748   0.10616418 
   64800    215.41251    462.95151    130979.85   -44240.299    2629.4149   -46869.714   0.11024277 
   65000     220.6857    27.347917    131492.68   -44240.772    2693.7817   -46934.554   0.10542203 
   65200    215.39109   -463.69119    132073.71   -44253.884    2629.1535   -46883.038   0.10169323 
   65400     215.3576    322.22599    131142.71   -44269.261    2628.7448   -46898.006   0.10559081 
   65600    211.78017    220.22552    131246.44   -44290.017    2585.0772   -46875.094   0.10784194 
   65800    216.18699   -398.21142    131980.07   -44269.017    2638.8685   -46907.886   0.10167712 
   66000    215.05741     73.90295    131430.89   -44267.758    2625.0805   -46892.839    0.1040598 
   66200    217.12444    241.42803    131214.75   -44291.339    2650.3115   -46941.651   0.10275829 
   66400     218.3758   -211.07625    131744.53   -44287.526    2665.5861   -46953.112    0.1015188 
   66600    213.00726   -50.908828    131565.24   -44298.176    2600.0555   -46898.231   0.10698555 
   66800    212.90043    211.86989    131280.44   -44279.831    2598.7515   -46878.582   0.10541474 
   67000    216.93933   -95.358538     131610.9   -44294.773     2648.052   -46942.825   0.10234138 
   67200    212.56652   -124.61453    131628.98   -44309.426    2594.6756   -46904.101    0.1036855 
   67400    214.24831    133.28125    131330.88   -44333.194    2615.2042   -46948.398   0.10368317 
   67600     212.3727   -19.790688    131502.99   -44302.715    2592.3098   -46895.024   0.10821191 
   67800    219.11304   -111.75706    131660.17   -44266.298    2674.5852   -46940.883   0.10253278 
   68000    216.16538    89.971352    131416.78   -44263.509    2638.6048   -46902.113   0.10214228 
   68200    212.69384    31.811402    131447.04   -44314.549    2596.2297   -46910.779   0.10374242 
   68400    213.62937   -95.741043    131615.04   -44274.551    2607.6492   -46882.201   0.10673371 
   68600    212.10025    45.129168    131449.76   -44263.953    2588.9842   -46852.937   0.10868744 
   68800    219.30131    94.467667    131425.65   -44242.683    2676.8832   -46919.567   0.10382166 
   69000    214.38908   -106.59722     131627.4   -44274.147    2616.9226    -46891.07   0.10352165 
   69200      213.467    27.710115     131490.4   -44278.495    2605.6672   -46884.162   0.10337962 
   69400    211.82101    111.40247    131386.77   -44305.651    2585.5757   -46891.226   0.10596426 
   69600    215.54928   -62.609444     131578.7   -44314.895    2631.0844    -46945.98   0.10502691 
   69800    215.50702     -19.8399    131531.15   -44291.395    2630.5686   -46921.964   0.10048081 
   70000    216.84622    117.77687    131398.53     -44262.5    2646.9154   -46909.415   0.10114214 
   70200    218.29872   -44.301465       131564   -44261.145    2664.6453    -46925.79   0.10215591 
   70400     216.0544   -88.890674    131573.06   -44265.698    2637.2501   -46902.948   0.10801767 
   70600    218.58045    113.75273    131386.17    -44246.21    2668.0842   -46914.295   0.10666236 
   70800    217.63626   -49.950443    131579.04   -44263.006    2656.5589   -46919.565   0.10233603 
   71000    212.74419   -110.50403    131640.36   -44293.021    2596.8444   -46889.865   0.10166894 
   71200    213.74477    104.21962    131356.45   -44297.714    2609.0579   -46906.772   0.10719834 
   71400    217.06357    34.491006    131490.23   -44276.874    2649.5684   -46926.442   0.10334101 
   71600    214.84279   -167.62038    131696.87   -44261.007    2622.4607   -46883.468   0.10252874 
   71800    217.72471    103.42787    131403.31   -44270.201    2657.6386    -46927.84   0.10188841 
   72000    213.69688    106.74485    131386.62   -44293.797    2608.4733   -46902.271    0.1019404 
   72200    214.08341   -192.92787    131708.37   -44317.506    2613.1914   -46930.697   0.10392207 
   72400    214.14292    29.548711    131478.53    -44300.31    2613.9179   -46914.227   0.10440597 
   72600    216.57492    190.06551    131318.36   -44283.562    2643.6038   -46927.166   0.10226754 
   72800    215.21418   -181.97627    131713.05   -44333.338     2626.994   -46960.332  0.096986936 
   73000    212.49293   -28.382618    131554.09   -44335.314    2593.7773   -46929.092    0.0985648 
   73200    214.33762    259.10996    131204.33   -44349.777    2616.2945   -46966.072   0.10197796 
   73400    212.61377   -124.51663    131628.84     -44335.5    2595.2524   -46930.752   0.10120993 
   73600    212.66695   -182.59273     131689.6   -44324.056    2595.9015   -46919.957   0.10134986 
   73800    214.52963    294.28441    131181.27   -44324.616    2618.6381   -46943.254    0.1032732 
   74000    215.03216   -9.0532817    131494.55   -44350.184    2624.7723   -46974.956   0.10259336 
   74200    214.95393   -285.92315    131788.91    -44353.68    2623.8174   -46977.498   0.10343412 
   74400    214.23933    234.87979    131219.72   -44330.968    2615.0946   -46946.063   0.10454728 
   74600    213.83638    120.99269    131356.75   -44339.906    2610.1761   -46950.082   0.10405269 
   74800    212.56958   -345.21678    131877.27    -44348.16     2594.713   -46942.873   0.10238688 
   75000    216.58977    143.98543     131319.6   -44325.609    2643.7851   -46969.394   0.10242598 
   75200    215.13689    281.37812    131191.27   -44309.038    2626.0506   -46935.089   0.10251857 
   75400    211.98301   -338.97449    131869.82   -44305.371    2587.5531   -46892.924   0.10257458 
   75600    215.26466   -8.7317539    131515.81   -44286.224    2627.6103   -46913.834   0.10093562 
   75800    217.57884    342.22763    131116.49   -44266.517     2655.858   -46922.375   0.10675368 
   76000    213.36752   -239.94633    131758.41   -44263.258    2604.4529   -46867.711   0.10773335 
   76200    215.58977   -150.10717    131685.33   -44279.699    2631.5787   -46911.277   0.10565252 
   76400    215.70835     327.1799    131143.74   -44259.267     2633.026   -46892.293   0.10550033 
   76600    216.16412   -93.130984    131609.72   -44251.493    2638.5895   -46890.083   0.10151506 
   76800    216.65016   -233.55547    131773.92   -44247.414    2644.5222   -46891.936   0.10528549 
   77000    217.68482    249.54172    131215.67   -44254.356    2657.1517   -46911.507   0.10686439 
   77200     212.2433    53.482133    131441.69   -44288.227    2590.7303   -46878.958   0.10176843 
   77400    218.01247   -225.26285    131781.52   -44271.096    2661.1511   -46932.247   0.10288325 
   77600    217.52034    135.24121    131350.95   -44291.462     2655.144   -46946.606   0.10226728 
   77800    213.44675    113.36665    131356.84   -44298.136    2605.4201   -46903.556   0.10429241 
   78000    213.35854   -203.12619    131720.04   -44299.914    2604.3434   -46904.258   0.10574587 
   78200    214.56364     33.74692    131465.48   -44291.492    2619.0533   -46910.545   0.10153443 
   78400    214.33417    152.14296    131334.97     -44312.4    2616.2523   -46928.652    0.1031165 
   78600    211.41584    -120.9443    131626.33   -44316.858    2580.6299   -46897.488   0.10464334 
   78800    212.05765   -42.368401    131525.55   -44301.601    2588.4641   -46890.065   0.10786575 
   79000    213.21674    114.53264    131338.75    -44297.66    2602.6125   -46900.272   0.10718924 
   79200    213.29493   -37.427985    131539.09   -44300.227    2603.5669   -46903.794   0.10229854 
   79400    217.04757   -34.624344    131546.99   -44267.373    2649.3732   -46916.746   0.10130325 
   79600    212.78464    53.677003    131389.84   -44265.145    2597.3381   -46862.483   0.10904136 
   79800    215.67461   -11.790324    131503.72   -44280.406    2632.6143    -46913.02   0.10747231 
   80000     215.4046   -93.047141    131570.59   -44265.784    2629.3185   -46895.103   0.10760336 
   80200    218.57572    62.053552    131448.33   -44233.146    2668.0264   -46901.172   0.10291829 
   80400    220.69924    8.7569377    131489.81   -44224.534     2693.947   -46918.481   0.10436125 
   80600    219.70307   -20.762876    131545.16   -44237.926    2681.7873   -46919.714   0.10300644 
   80800    221.43368    53.444292    131468.14   -44201.754    2702.9119   -46904.666   0.10628622 
   81000    215.76804   -4.2317758    131497.29   -44240.747    2633.7547   -46874.501   0.10821519 
   81200    218.21731   -45.398232    131548.02       -44226    2663.6515   -46889.652   0.10337335 
   81400    221.43001    59.277322    131475.06   -44205.303     2702.867    -46908.17   0.10147869 
   81600    219.55815     18.81494    131505.71   -44217.899    2680.0183   -46897.918    0.1059383 
   81800    218.45203   -19.599326    131550.57   -44222.878    2666.5166   -46889.395   0.10539348 
   82000    221.69879    59.972546    131476.22   -44202.035     2706.148   -46908.183   0.10274611 
   82200    215.35195   -24.351548    131509.56   -44234.812    2628.6757   -46863.488   0.10694575 
   82400    218.16237   -48.710402    131557.69   -44241.371    2662.9809   -46904.352   0.10496514 
   82600     215.2759    35.333999    131480.35   -44260.144    2627.7474   -46887.891   0.10525694 
   82800    215.55519    53.030424    131468.09   -44289.527    2631.1566   -46920.683     0.104289 
   83000    215.45785   -29.651487    131542.77   -44279.667    2629.9684   -46909.636   0.10041169 
   83200    215.58212    2.9296511    131488.11    -44291.02    2631.4853   -46922.505    0.1012911 
   83400     217.0025    34.670145    131449.69   -44310.029     2648.823   -46958.852   0.10148032 
   83600    213.44827   -41.853248    131527.33   -44318.316    2605.4387   -46923.754   0.10249907 
   83800    213.29857   -13.327038    131506.65   -44279.922    2603.6114   -46883.533   0.10721317 
   84000     212.3314    21.071783    131458.02    -44299.78    2591.8056   -46891.586    0.1060959 
   84200    215.10538   0.42058654    131516.85   -44287.401    2625.6659   -46913.067  0.098696795 
   84400    218.05226   -33.224809     131539.2   -44300.339    2661.6368   -46961.976   0.10187687 
   84600    210.44061    18.271825    131461.39   -44292.794    2568.7259    -46861.52   0.10647596 
   84800    210.68506   0.47022753    131482.76   -44305.422    2571.7097   -46877.131   0.10327774 
   85000    219.50171    -29.16488    131549.53   -44276.961    2679.3295   -46956.291  0.099608287 
   85200    213.30796    10.977661    131531.92    -44254.37    2603.7259   -46858.096   0.10181015 
   85400     216.6384    35.649719    131497.98   -44241.478    2644.3787   -46885.857   0.10041337 
   85600    215.95588   -1.6821312    131537.72   -44247.434    2636.0476   -46883.481   0.10032668 
   85800     219.1341    9.5424362     131532.6   -44251.484    2674.8422   -46926.326    0.1005616 
   86000    218.75359    13.012429    131502.18    -44224.19    2670.1975   -46894.388   0.10107798 
   86200    214.17919   -21.748911    131544.88   -44231.332    2614.3605   -46845.692   0.10533831 
   86400    215.85087   -8.9726694     131544.6    -44230.05    2634.7657   -46864.816   0.10429073 
   86600    220.94833     35.71981    131484.05   -44219.286    2696.9875   -46916.273   0.10380556 
   86800    216.83405    -16.40237    131523.85   -44247.022    2646.7668   -46893.789   0.10311829 
   87000    218.97422   -26.263509    131529.13   -44259.627    2672.8907   -46932.517   0.10093301 
   87200     221.2727     90.98441    131448.79   -44243.167    2700.9469   -46944.114  0.098539799 
   87400    212.64814   -16.107802    131531.26   -44221.014    2595.6719   -46816.686   0.10791604 
   87600    216.27678   -59.073433    131571.21   -44257.098    2639.9646   -46897.062   0.10395652 
   87800    214.24333     82.14324    131419.78    -44267.06    2615.1434   -46882.203   0.10033775 
   88000    214.05111    23.420663    131483.12   -44237.813    2612.7971    -46850.61   0.10485352 
   88200    213.89914   -108.55527    131627.88   -44255.447    2610.9421   -46866.389   0.10252892 
   88400    218.37889    17.219514    131443.54   -44247.693    2665.6238   -46913.316   0.10453225 
   88600    217.61197    85.805112    131410.66   -44261.213    2656.2625   -46917.475   0.10123315 
   88800     215.1757   -125.87699    131619.75   -44258.974    2626.5244   -46885.498   0.10225299 
   89000    212.93926   -2.7534149    131478.52   -44268.711    2599.2255   -46867.937   0.10252884 
   89200    219.86823    145.54944    131350.51   -44249.997    2683.8033   -46933.801  0.099829532 
   89400    219.13516   -99.727695    131604.53   -44227.327    2674.8552   -46902.182   0.10362468 
   89600    217.30004   -75.586697    131551.52   -44247.308     2652.455   -46899.763   0.10313808 
   89800    215.29004    139.42931    131308.24   -44261.781    2627.9201   -46889.701   0.10304253 
   90000    213.46554   -84.968655    131525.34   -44271.996    2605.6494   -46877.645   0.10474928 
   90200    214.87287   -125.37498    131614.16   -44302.746    2622.8279   -46925.573   0.10266157 
   90400    212.46008    159.70167    131282.21   -44320.521    2593.3763   -46913.897   0.10188286 
   90600    215.42153    33.504555    131413.66   -44310.863     2629.525   -46940.388  0.098742242 
   90800     214.1979   -193.16193     131690.8   -44320.933    2614.5889   -46935.522  0.096642732 
   91000    214.62493    91.079207    131353.67   -44320.747    2619.8015   -46940.548    0.1018285 
   91200    211.94235    163.21027    131311.08   -44329.523    2587.0567    -46916.58   0.10055403 
   91400    211.17345   -227.77451     131725.1   -44324.296    2577.6713   -46901.967  0.098845131 
   91600    213.34994    10.583547    131465.13   -44328.993    2604.2384   -46933.232  0.098759865 
   91800    213.17851      234.767    131204.24   -44309.288    2602.1459   -46911.434   0.10019772 
   92000    215.09247   -187.03028    131688.16   -44320.584    2625.5084   -46946.093  0.097714939 
   92200    212.52531   -108.06581    131595.79   -44333.468    2594.1726   -46927.641   0.10100788 
   92400    214.11702    299.21339    131144.94   -44301.511    2613.6016   -46915.112   0.10291171 
   92600    213.84038   -134.13868    131598.92   -44342.018    2610.2249   -46952.242  0.099366024 
   92800    216.17803   -201.15303    131718.64   -44323.108    2638.7592   -46961.867   0.09822029 
   93000    215.61682    270.81774    131179.82   -44273.525    2631.9089   -46905.433    0.1045528 
   93200    214.24489   -21.209509    131506.13   -44275.372    2615.1625   -46890.535   0.10253139 
   93400    215.87828   -290.51849     131834.5   -44274.859    2635.1003   -46909.959  0.099846091 
   93600    213.77375    208.46148    131245.37   -44261.989    2609.4116     -46871.4   0.10263128 
   93800    216.36188    128.99329    131351.24   -44262.597    2641.0034     -46903.6   0.10203531 
   94000    215.43613   -291.18726    131855.49   -44264.193    2629.7033   -46893.897  0.097553828 
   94200    212.67149    85.405686    131374.57   -44319.606    2595.9569   -46915.563   0.10242037 
   94400    212.77184    238.24753    131203.49   -44308.399    2597.1819   -46905.581    0.1001205 
   94600    216.53621   -219.77796    131777.21   -44304.285    2643.1313   -46947.416  0.097792334 
   94800    213.41809   -53.109633    131529.45   -44344.547    2605.0702   -46949.617  0.099350346 
   95000     213.2034    288.16039    131158.92   -44349.875    2602.4496   -46952.324     0.100524 
   95200    211.67051    -142.7591    131634.14   -44350.201    2583.7386   -46933.939   0.10267496 
   95400    210.76859   -122.35085    131626.27   -44361.944    2572.7294   -46934.674  0.097739402 
   95600    216.41961    226.30706    131212.34   -44331.841    2641.7081   -46973.549  0.099738509 
   95800    211.86591   -13.605899    131506.86   -44307.511    2586.1237   -46893.635   0.10394649 
   96000    212.95906   -179.07962    131663.39   -44304.702    2599.4671   -46904.169   0.10432505 
   96200    210.57474    119.71721    131335.21   -44324.938    2570.3631   -46895.301   0.10160782 
   96400    215.73522    64.501286    131424.72   -44322.325    2633.3541   -46955.679   0.10106184 
   96600    215.14116   -129.88116    131620.96   -44331.598    2626.1028   -46957.701   0.10054406 
   96800    209.79803    48.243931    131405.48   -44367.899    2560.8822   -46928.781   0.10245562 
   97000    212.46479    84.920326    131370.51   -44357.836    2593.4338    -46951.27    0.1046294 
   97200    211.25988   -107.11345    131575.45   -44350.497    2578.7262   -46929.223   0.10414171 
   97400    215.29855    16.032924    131474.24   -44319.346    2628.0239    -46947.37    0.1016031 
   97600     214.9001    87.412278    131392.44   -44301.117    2623.1603   -46924.278   0.10426954 
   97800     214.6164   -68.114541     131552.6   -44297.536    2619.6973   -46917.234   0.10330302 
   98000    214.14372   -18.761406    131503.28   -44277.525    2613.9276   -46891.453    0.1056884 
   98200    214.91391    61.463543    131387.89   -44286.362    2623.3288   -46909.691   0.10904929 
   98400     215.5181    -38.42417    131544.13   -44237.362    2630.7038   -46868.066   0.10369634 
   98600    219.39448   -93.908452    131570.09   -44271.799    2678.0205    -46949.82   0.10449591 
   98800    218.81268    110.20223    131382.34   -44245.664    2670.9188   -46916.583   0.10569252 
   99000    218.67232    1.7805345    131517.48   -44248.023    2669.2056   -46917.228  0.099576701 
   99200    212.87053   -83.156024    131596.63    -44296.41    2598.3865   -46894.796    0.1034353 
   99400    215.20331    98.602425       131373   -44359.186    2626.8613   -46986.047   0.10382608 
   99600    213.99711    23.794174    131420.47   -44375.184     2612.138   -46987.322   0.10171925 
   99800    211.02025   -130.04623    131609.16   -44350.552    2575.8012   -46926.353   0.10381069 
  100000    213.00072    55.929336    131417.98   -44355.783    2599.9756   -46955.758   0.10269545 
  100200    215.07871    83.456993    131352.11   -44328.532    2625.3405   -46953.873   0.10277964 
  100400    214.71869   -87.429553     131607.5    -44313.86    2620.9459   -46934.806   0.10207272 
  100600    215.52151   -19.878874    131491.36   -44283.009    2630.7454   -46913.755   0.10661525 
  100800    215.61947    127.50265    131325.05   -44304.907    2631.9412   -46936.848    0.1042259 
  101000    214.93757   -82.328098    131572.93   -44299.037    2623.6176   -46922.655    0.1051619 
  101200    213.45815   -87.508513    131573.84   -44274.366    2605.5592   -46879.925   0.10570408 
  101400    213.66946    161.63392    131289.75   -44289.836    2608.1385   -46897.975   0.10592863 
  101600    214.86758   -13.619629    131479.12   -44296.913    2622.7633   -46919.676   0.10658089 
  101800     217.4258   -142.43769    131645.42   -44274.238    2653.9901   -46928.229   0.10396336 
  102000    215.27694    120.77826    131314.24   -44281.651    2627.7601   -46909.411   0.10645362 
  102200    214.01991    76.738186    131392.59   -44269.754    2612.4163    -46882.17   0.11015736 
  102400    214.63646   -203.85118    131710.41   -44232.904    2619.9421   -46852.846   0.10894209 
  102600    217.64994    75.095711    131386.51    -44235.75     2656.726   -46892.476   0.10708669 
  102800    218.47995    178.07637    131284.53   -44249.222    2666.8575    -46916.08   0.10647276 
  103000     217.2949   -207.06799    131765.11   -44243.789    2652.3922   -46896.181   0.10412564 
  103200    218.86115   -10.637711    131531.21   -44231.634    2671.5105   -46903.145   0.10434389 
  103400     216.8597    296.23339    131165.74   -44252.844      2647.08   -46899.924    0.1080707 
  103600    215.47279   -215.80773    131730.27   -44258.191    2630.1508   -46888.342    0.1047316 
  103800    218.80739   -174.69943    131714.21   -44255.471    2670.8543   -46926.325  0.099286924 
  104000    216.93931    370.82689    131078.48   -44263.757    2648.0517   -46911.808   0.10447483 
  104200    217.64334   -51.164598    131563.35   -44272.167    2656.6454   -46928.812  0.099271575 
  104400    215.08903   -353.66372    131891.93   -44285.396    2625.4664   -46910.863     0.103791 
  104600    217.12608    311.49787    131118.81   -44277.946    2650.3316   -46928.278   0.10525952 
  104800    216.41987    133.62419    131334.25   -44275.827    2641.7112   -46917.538   0.10211295 
  105000    211.43865   -443.89942    131974.87   -44295.784    2580.9084   -46876.692   0.10582472 
  105200    218.52411    194.00739    131290.37   -44295.062    2667.3964   -46962.458   0.10263236 
  105400     215.0712    297.89723    131151.94   -44290.006    2625.2488   -46915.255   0.10364155 
  105600    214.57157   -339.55246    131887.81   -44285.802    2619.1501   -46904.952    0.1026742 
  105800    213.47233   -19.631529    131522.12   -44300.852    2605.7323   -46906.584    0.1012693 
  106000     214.0821     331.3365    131122.85   -44271.411    2613.1754   -46884.586   0.10718499 
  106200    213.93995   -206.34685    131739.41    -44259.09    2611.4403    -46870.53   0.10335503 
  106400    216.49709   -141.05204    131666.68   -44281.211    2642.6538   -46923.865    0.1013522 
  106600    213.67055     293.6723    131165.93   -44281.992    2608.1518   -46890.144   0.10466948 
  106800    216.53872    -43.40005    131546.54    -44278.61    2643.1619   -46921.772   0.10067675 
  107000    214.71754   -210.36475    131710.51   -44246.752    2620.9319   -46867.684    0.1053093 
  107200    218.29153    217.37595     131270.6   -44239.199    2664.5575   -46903.757   0.10650801 
  107400    215.92186    34.512378    131437.31   -44244.506    2635.6323   -46880.138   0.10608323 
  107600    214.60518   -222.74462    131720.95   -44228.751    2619.5603   -46848.311   0.10565357 
  107800    215.24869    104.54979    131382.32   -44243.481    2627.4153   -46870.897   0.10368692 
  108000    217.79832     134.5329    131356.95    -44227.52    2658.5371   -46886.057   0.10398076 
  108200    216.29223   -169.00937    131700.44   -44251.118    2640.1532   -46891.271   0.10153412 
  108400    218.25261    19.211125    131490.81   -44249.888    2664.0824    -46913.97   0.10265598 
  108600    214.25434    162.55727    131314.71   -44233.405    2615.2779   -46848.683   0.10701425 
  108800    217.27674    -152.7916    131657.64   -44245.652    2652.1705   -46897.823   0.10233293 
  109000    214.59522   -77.806325    131557.63   -44270.841    2619.4388    -46890.28   0.10455893 
  109200    216.07562    219.31782    131250.64   -44277.031    2637.5091    -46914.54   0.10140584 
  109400    215.59614   -73.195849    131568.88   -44261.549    2631.6565   -46893.205    0.1037775 
  109600     216.0952   -138.51449    131643.98   -44236.233    2637.7482   -46873.981   0.10543547 
  109800    212.51566     171.7242    131286.64   -44274.161    2594.0548   -46868.216    0.1045016 
  110000     217.4175    11.325362    131458.17   -44228.074    2653.8887   -46881.963    0.1052722 
  110200    217.18084   -198.94921    131723.54   -44219.204         2651   -46870.204   0.10494433 
  110400    220.54898    114.75124     131363.1   -44255.937    2692.1129   -46948.049   0.09969349 
  110600    216.47399    128.80677    131320.38   -44308.976    2642.3719   -46951.348   0.10307158 
  110800    210.18399   -177.29125    131679.37   -44303.867    2565.5934   -46869.461    0.1049393 
  111000    212.61667    -6.593692     131466.9   -44305.315    2595.2878   -46900.603   0.10229906 
  111200    213.75649     186.4562    131271.09   -44292.852    2609.2009   -46902.053   0.10315294 
  111400    215.01092   -143.64959    131626.98   -44329.512     2624.513   -46954.025   0.10365008 
  111600    215.04456    -58.85819    131530.67   -44361.421    2624.9236   -46986.345   0.10165401 
  111800    209.01262    216.75433    131198.67   -44383.329    2551.2953   -46934.625   0.10453487 
  112000    211.59886   -80.645055    131535.76    -44383.82    2582.8639   -46966.684   0.10178699 
  112200    213.58245    -184.3569    131630.51   -44348.367    2607.0765   -46955.444   0.10299204 
  112400    214.96199    185.51679    131244.68   -44332.801    2623.9158   -46956.716   0.10581039 
  112600    214.29544    5.9537095    131470.01   -44315.252    2615.7795   -46931.031   0.10333978 
  112800    216.73167    -212.3609    131699.47   -44327.344    2645.5172   -46972.861    0.1017584 
  113000    213.57718    175.77448    131275.35   -44311.359    2607.0121   -46918.371   0.10486229 
  113200    217.20727    99.973968    131366.44   -44336.189    2651.3225   -46987.511   0.10005527 
  113400    213.38166   -249.39708    131750.05   -44321.619    2604.6256   -46926.245   0.10209303 
  113600     210.8347    94.432431    131367.24    -44324.27    2573.5363   -46897.806   0.10746584 
  113800    213.39254    182.04336    131271.55   -44312.891    2604.7583   -46917.649   0.10503984 
  114000    216.85301   -243.87344       131775   -44302.413    2646.9983   -46949.411   0.10088877 
  114200    213.07758    23.905414    131496.29   -44311.476    2600.9138    -46912.39   0.10280809 
  114400    213.36088    292.13852    131174.93   -44269.507    2604.3719   -46873.879    0.1074713 
  114600    216.30566   -183.79418    131739.95   -44252.939    2640.3172   -46893.256   0.10233233 
  114800    217.28293   -147.14197    131682.53   -44232.745    2652.2461   -46884.991   0.10687402 
  115000    219.17831    300.03462     131145.7   -44250.278    2675.3818    -46925.66    0.1077686 
  115200    215.55118   -95.661034    131612.14   -44271.298    2631.1077   -46902.405   0.10321375 
  115400    210.29761   -286.15015    131820.99   -44282.565    2566.9803   -46849.545   0.10608843 
  115600    214.92419    294.39136    131173.61   -44266.489    2623.4543   -46889.944   0.10737796 
  115800    219.80458    54.546481    131435.86   -44281.755    2683.0264   -46964.781   0.10535479 
  116000    215.61761    -332.0517    131892.07   -44272.587    2631.9184   -46904.505   0.10436462 
  116200     216.4235    177.85921    131297.48   -44284.916    2641.7555   -46926.671   0.10369541 
  116400     214.0135    205.77033    131267.77   -44321.035    2612.3381   -46933.373   0.10398766 
  116600    212.98644   -328.11772    131856.63   -44332.575    2599.8013   -46932.376   0.10359971 
  116800    216.61118    39.217301    131459.17   -44294.537    2644.0465   -46938.584   0.10460944 
  117000    218.21593    290.99267    131204.32   -44310.528    2663.6346   -46974.162   0.10254777 
  117200    212.89622   -231.18247    131763.14   -44307.397    2598.7001   -46906.097   0.10559165 
  117400    212.80743   -111.78322     131593.1   -44316.902    2597.6163   -46914.518   0.10465373 
  117600    210.00578    238.32806    131207.26   -44296.719    2563.4182   -46860.137   0.10952277 
  117800    212.84216   -113.92936    131625.17   -44270.898    2598.0402   -46868.939   0.10717393 
  118000    217.68511   -155.00673    131691.34   -44263.105    2657.1553    -46920.26   0.10257844 
  118200    214.90539    212.75576       131281    -44292.79    2623.2248   -46916.014   0.10233534 
  118400    215.80191    -4.573347    131483.02   -44318.756    2634.1681   -46952.925   0.10393663 
  118600    213.05059    -137.4182    131682.74    -44337.93    2600.5844   -46938.515   0.10289669 
  118800    209.88241    57.954977    131380.41    -44365.69    2561.9122   -46927.603   0.10537729 
  119000    212.12838    76.504138    131402.91   -44372.789    2589.3275   -46962.117  0.098693921 
  119200     211.8838   -133.99278     131630.2   -44374.179     2586.342   -46960.521   0.10066952 
  119400    213.51322    42.553112    131436.67   -44397.375    2606.2314   -47003.607   0.10083557 
  119600    212.13792    134.53432    131380.21   -44352.844    2589.4439   -46942.288   0.10273871 
  119800    211.83177   -114.86779     131628.2   -44347.622    2585.7069   -46933.329   0.10287508 
  120000    210.13592   -21.182331    131516.62     -44367.2    2565.0066   -46932.207   0.10290844 
  120200    212.91573    108.86942    131366.59   -44347.184    2598.9382   -46946.123   0.10091288 
  120400    212.26169   -79.354569    131579.06   -44374.171    2590.9547   -46965.126  0.097362098 
  120600     211.5684   -74.752157    131570.01   -44363.297    2582.4921    -46945.79   0.10223835 
  120800    211.43225    109.23469    131365.95   -44362.685    2580.8302   -46943.516   0.10078619 
  121000    215.23319    3.3159496    131499.28   -44354.339    2627.2261   -46981.565  0.099028007 
  121200    215.41383   -69.850398    131589.99   -44358.973    2629.4311   -46988.404   0.10113563 
  121400    211.06078    75.840654    131392.47   -44352.317     2576.296   -46928.613   0.10306521 
  121600    212.91921    32.009948    131439.65   -44346.153    2598.9807   -46945.134    0.1010021 
  121800    213.77325   -113.39331    131610.53   -44344.372    2609.4054   -46953.778  0.099762045 
  122000    214.27017    47.481875    131454.24   -44329.949    2615.4711    -46945.42   0.10053726 
  122200     217.8058    99.153078    131404.97   -44311.114    2658.6285   -46969.743   0.10145614 
  122400    216.70412   -96.511507     131627.4   -44281.399    2645.1809    -46926.58   0.10156469 
  122600     218.3599   -5.2849197    131553.93    -44222.62     2665.392   -46888.012   0.10108525 
  122800    219.08449    94.628303    131420.08   -44220.843    2674.2367    -46895.08   0.10357926 
  123000    219.91225   -31.421853    131595.86   -44248.226    2684.3407   -46932.567  0.097857292 
  123200    220.82825   -53.483428    131604.62   -44266.533    2695.5217   -46962.054  0.097760442 
  123400    214.64865    94.625841    131419.83   -44325.851    2620.0909   -46945.942   0.10224476 
  123600    214.10436   -28.287085    131531.38   -44294.946    2613.4471   -46908.393   0.10294816 
  123800    216.44918   -98.128507    131635.21   -44304.154    2642.0689   -46946.223  0.097421178 
  124000    214.76451     119.4074    131423.69   -44288.763    2621.5053   -46910.269  0.099869895 
  124200    217.75324    34.249961    131489.44   -44282.168    2657.9869   -46940.155   0.10009824 
  124400    217.41274   -174.83354    131712.18     -44297.2    2653.8305   -46951.031  0.099234934 
  124600    215.01821    62.237293    131432.57   -44307.268     2624.602    -46931.87   0.09835855 
  124800    216.04897    180.35061    131334.06   -44311.929    2637.1838   -46949.113  0.099333714 
  125000    214.12537   -203.53821     131747.8   -44320.135    2613.7036   -46933.839  0.099598285 
  125200    212.62664   -17.829445    131525.47   -44311.699    2595.4095   -46907.108  0.098670944 
  125400    212.36737    271.57919    131195.61   -44349.833    2592.2447   -46942.077  0.097798083 
  125600    210.31699   -206.90247    131714.03   -44358.257    2567.2169   -46925.474  0.097791164 
  125800    214.74222   -127.80625    131676.84   -44338.587    2621.2331    -46959.82  0.094436577 
  126000    212.68616    339.73285    131096.81    -44328.08     2596.136   -46924.216   0.10297055 
  126200     216.9886   -74.966655    131575.93   -44310.561    2648.6534   -46959.215   0.10129912 
  126400    212.93982   -314.01292    131851.13   -44331.097    2599.2322   -46930.329   0.10214965 
  126600    211.19824    300.28947     131147.8   -44337.192    2577.9739   -46915.166  0.098406982 
  126800    215.49783     95.59141    131393.46     -44324.5    2630.4564   -46954.956  0.096759963 
  127000    214.69888   -328.64021    131906.68   -44337.543    2620.7041   -46958.247  0.096702042 
  127200    214.94636    209.53438    131290.74   -44362.043    2623.7249   -46985.768  0.097163818 
  127400     210.5045    233.03654    131245.13   -44355.891    2569.5058   -46925.397  0.097653225 
  127600    214.17865   -322.73811    131871.24   -44353.211     2614.354   -46967.565  0.096173975 
  127800    214.79836    54.680343    131457.01   -44354.973    2621.9184   -46976.892  0.096990689 
  128000    215.29133    322.56187    131164.41   -44338.174    2627.9358    -46966.11  0.098004131 
  128200    213.99216   -220.37612    131771.89    -44314.95    2612.0776   -46927.028  0.096727325 
  128400    211.86832   -138.62106    131629.42   -44339.046    2586.1532   -46925.199  0.099148261 
  128600    213.61632    292.62845    131159.67   -44352.261    2607.4899   -46959.751   0.10013692 
  128800    214.68503   -101.45189    131600.39   -44394.984     2620.535   -47015.519  0.095750064 
  129000    209.51889    -188.2434    131683.94   -44407.225     2557.475     -46964.7   0.10244917 
  129200    210.94943    239.16366    131212.87   -44390.725    2574.9367   -46965.662    0.1011694 
  129400    212.05801     19.56326    131471.69   -44384.718    2588.4686   -46973.187  0.094502483 
  129600    214.18775   -232.92592    131730.66   -44371.728    2614.4651   -46986.193   0.09835702 
  129800      210.469    141.37837    131320.69   -44378.833    2569.0724   -46947.905   0.10214609 
  130000    212.35815    114.90141     131364.1   -44395.415    2592.1322   -46987.547   0.10081425 
  130200    212.10135   -189.09593    131713.73   -44397.029    2588.9976   -46986.027  0.096657287 
  130400    210.94162    39.510811    131439.48   -44393.871    2574.8414   -46968.713  0.098310492 
  130600    212.18706    133.29106    131321.51   -44362.054    2590.0437   -46952.098  0.099220859 
  130800    214.47261   -139.40682    131668.71   -44377.303    2617.9421   -46995.245  0.094672421 
  131000    211.91126   -63.023282    131511.94   -44394.982    2586.6773   -46981.659  0.099669658 
  131200    212.82971     186.1721     131292.4   -44371.151    2597.8882   -46969.039  0.098566349 
  131400    212.67162    -107.2429    131605.92   -44378.209    2595.9585   -46974.167   0.10061194 
  131600    213.86708   -98.018087    131613.07   -44368.275    2610.5508   -46978.826  0.097827055 
  131800    213.63945     142.9577    131323.31   -44351.317    2607.7722   -46959.089    0.1015256 
  132000    214.43075    7.7268995    131511.92   -44316.459    2617.4312    -46933.89    0.1001979 
  132200    213.80702   -141.31319     131673.2   -44330.751    2609.8177   -46940.569    0.1001307 
  132400    215.50111     108.6498    131387.92   -44335.928    2630.4965   -46966.425  0.099365423 
  132600    215.04203    74.364914    131425.48   -44307.411    2624.8927   -46932.304   0.10431709 
  132800    212.84908   -155.35782    131688.64   -44291.072    2598.1246   -46889.197   0.10187599 
  133000    215.57577    26.281333    131485.12   -44282.523    2631.4077    -46913.93  0.099255034 
  133200    219.87813    143.52116    131370.85   -44263.613    2683.9241   -46947.537  0.099605346 
  133400    218.22018   -121.05485    131663.78   -44246.189    2663.6865   -46909.876   0.10062018 
  133600    214.35004   -29.924786    131584.26   -44249.518    2616.4461   -46865.964   0.10020743 
  133800    216.66375    133.25821    131370.52   -44269.372    2644.6881    -46914.06   0.10471586 
  134000    217.39582   -41.573554    131568.72   -44236.629    2653.6241   -46890.253   0.10572722 
  134200     213.6665   -121.78095    131635.19   -44244.567    2608.1025   -46852.669    0.1068801 
  134400    215.80257    77.473255    131401.51    -44237.74    2634.1762   -46871.916   0.10696973 
  134600    216.52243    17.727877    131503.92    -44254.99    2642.9631   -46897.953    0.1030472 
  134800     216.9069   -106.06317    131643.32    -44278.27    2647.6561   -46925.926   0.10267201 
  135000     215.3057    34.923005    131438.08    -44329.71    2628.1111   -46957.821   0.10495772 
  135200      215.488    79.883667    131415.97   -44318.319    2630.3365   -46948.656   0.10199229 
  135400     211.5288   -105.55303    131620.73   -44329.727    2582.0088   -46911.736   0.10527332 
  135600    211.94564    4.5137371    131495.73   -44309.542    2587.0969   -46896.639   0.10432288 
  135800    213.15485    85.323247    131400.09   -44364.369     2601.857   -46966.226  0.099092026 
  136000    210.55164   -50.868122    131556.01   -44381.128    2570.0812   -46951.209  0.098917404 
  136200     210.6122   -27.611009    131508.37   -44377.286    2570.8203   -46948.106   0.10492657 
  136400    211.86479    88.024052    131389.04   -44354.298      2586.11   -46940.408   0.10369663 
  136600    214.18117   -48.156307     131544.4   -44313.056    2614.3847    -46927.44   0.10292606 
  136800     216.2427   -52.418761    131580.64   -44322.576    2639.5486   -46962.124   0.10252231 
  137000    213.09492    44.898658    131423.64   -44327.457    2601.1255   -46928.582   0.10260795 
  137200    220.38271     6.235697    131495.45   -44347.126    2690.0832   -47037.209  0.097982176 
  137400    212.67807   -64.296738    131587.45    -44319.75    2596.0373   -46915.787   0.10538103 
  137600    217.94947    68.415564    131464.19   -44314.009    2660.3821   -46974.391    0.1019003 
  137800    213.84537    41.725497    131462.53   -44287.507    2610.2857   -46897.793   0.10496735 
  138000    213.08424   -82.246666    131585.97   -44303.667    2600.9951   -46904.662   0.10291462 
  138200     214.8026    2.6567023    131504.66   -44334.796    2621.9702   -46956.766   0.10178976 
  138400    213.86142    60.471162       131443   -44317.386    2610.4817   -46927.867   0.10189818 
  138600    213.50667   -61.278871    131559.15    -44329.51    2606.1514   -46935.662   0.10165275 
  138800    218.26733    14.215914    131521.89   -44280.807     2664.262   -46945.069   0.10070522 
  139000    216.41421      67.3729    131438.64   -44288.313    2641.6422   -46929.955   0.10299045 
  139200    210.88082   -22.670161    131545.44   -44285.816    2574.0992   -46859.915   0.10620962 
  139400    215.83869   -42.624208    131560.03   -44307.428    2634.6171   -46942.046   0.10306206 
  139600    213.69994    88.792024    131422.65   -44295.067    2608.5106   -46903.578   0.10190845 
  139800    215.74811   -2.7483476    131497.82   -44263.035    2633.5115   -46896.546   0.10555985 
  140000    217.63678   -80.576685    131607.56   -44249.548    2656.5654   -46906.113   0.10254721 
  140200    214.79151    51.780127    131453.66   -44273.557    2621.8347   -46895.392   0.10497215 
  140400    217.99801    74.700098    131437.93   -44293.675    2660.9747    -46954.65   0.10532276 
  140600    212.75852   -85.741208    131578.52   -44294.381    2597.0193   -46891.401   0.10129306 
  140800    214.21166    19.388178    131449.76   -44289.016    2614.7569   -46903.773   0.10186939 
  141000    216.25135    78.765564    131413.07   -44318.633    2639.6542   -46958.287   0.10134254 
  141200    216.80589   -106.51464    131614.32   -44286.355    2646.4231   -46932.778   0.10196211 
  141400    219.62292      19.7747    131508.86   -44281.185     2680.809   -46961.994   0.10105699 
  141600    215.18525    137.48199    131364.92   -44267.275    2626.6409   -46893.916   0.10442315 
  141800    211.56569   -115.67263    131613.33   -44312.659    2582.4591   -46895.118    0.1033838 
  142000    215.25838   -41.933818    131568.53   -44312.812    2627.5335   -46940.346  0.098854422 
  142200    213.71836    164.27309    131326.48   -44324.253    2608.7354   -46932.988  0.098981759 
  142400    214.21257   -69.435906    131566.81   -44322.163    2614.7679   -46936.931  0.099587768 
  142600    211.53667   -111.99509    131643.28   -44300.059    2582.1048   -46882.164   0.10033883 
  142800    213.16087    182.49304    131303.69   -44318.118    2601.9305   -46920.048   0.10215168 
  143000    213.58121    39.018412    131467.61   -44340.647    2607.0614   -46947.708  0.098054484 
  143200    213.95738   -215.94766    131714.29   -44332.555     2611.653   -46944.208   0.10044181 
  143400    218.96798    146.34086    131351.79   -44315.609    2672.8145   -46988.424   0.10032555 
  143600    216.09272    113.58711    131385.81    -44300.59    2637.7179   -46938.308  0.099530826 
  143800    214.19983   -251.92547    131761.12    -44304.92    2614.6125   -46919.533   0.10230236 
  144000    213.93487     87.44445    131416.05   -44291.697    2611.3782   -46903.075   0.10207729 
  144200    216.05072     202.1592    131263.62   -44276.539    2637.2052   -46913.744   0.10151487 
  144400     214.6274   -242.57843    131771.03   -44273.469    2619.8315     -46893.3   0.10093512 
  144600     215.9745   -68.474454    131575.74   -44258.048    2636.2748   -46894.323    0.1023277 
  144800    216.06354    279.89649    131215.79   -44246.221    2637.3618   -46883.583   0.10145606 
  145000    216.07208   -167.49012    131693.59   -44277.242    2637.4659   -46914.707  0.098355263 
  145200    216.25615    -147.0203    131674.91   -44297.983    2639.7128   -46937.696  0.098396094 
  145400    214.39362    267.90358    131194.12   -44295.444     2616.978   -46912.422   0.10413258 
  145600    217.64746   -9.7385459    131560.19    -44312.68    2656.6957   -46969.376  0.097650598 
  145800    213.09251   -264.70374    131786.02   -44326.264    2601.0961   -46927.361  0.099181702 
  146000    211.01626    234.74427    131239.48   -44311.508    2575.7525    -46887.26   0.10049645 
  146200    215.89876    54.812997    131413.51   -44336.535    2635.3504   -46971.885  0.099312464 
  146400    210.95007   -292.89792    131825.77   -44300.735    2574.9445    -46875.68   0.10044099 
  146600    218.03416    151.60633    131372.89   -44266.054    2661.4159    -46927.47  0.098968602 
  146800    218.90663    176.41176    131323.31   -44240.571    2672.0657   -46912.636   0.10309168 
  147000    219.31812   -251.96762    131817.82   -44240.335    2677.0885   -46917.424   0.09918024 
  147200    221.19049    32.114035    131490.27   -44223.947    2699.9434   -46923.891  0.096930316 
  147400    219.70515    258.55873    131238.72   -44262.187    2681.8127       -46944   0.10028506 
  147600    216.20016    -206.3277    131723.14    -44282.98    2639.0294    -46922.01   0.10173239 
  147800    215.56404   -55.267544    131577.31   -44313.594    2631.2645   -46944.859  0.098524448 
  148000    212.55267    242.86565    131190.01   -44288.362    2594.5066   -46882.868   0.10415299 
  148200    216.87689   -106.27086       131617   -44327.985    2647.2898   -46975.275  0.095065256 
  148400    216.61688   -183.55141     131699.2   -44343.788     2644.116   -46987.904   0.09531071 
  148600    217.39698    238.85256    131245.22   -44322.612    2653.6382    -46976.25    0.1001629 
  148800    214.85267    10.144676    131488.58    -44332.91    2622.5813   -46955.491   0.10024912 
  149000    214.77301   -182.92375    131732.25   -44336.551     2621.609    -46958.16  0.095781593 
  149200     210.7382    120.70175    131345.16    -44351.29    2572.3584   -46923.648  0.098127667 
  149400    210.95025    78.467766    131383.51   -44366.183    2574.9467   -46941.129  0.098589085 
  149600    211.38127   -170.68828     131676.6   -44350.665     2580.208   -46930.873   0.10169048 
  149800    209.90217    66.403898    131439.61   -44360.187    2562.1534   -46922.341  0.099355668 
  150000    216.46878    116.73543     131353.3   -44318.563    2642.3082   -46960.871  0.097801163 
  150200    215.30271   -80.705948    131620.02   -44278.179    2628.0746   -46906.253   0.10015414 
  150400    212.06049   -57.023903    131549.52   -44279.431    2588.4988    -46867.93   0.10300569 
  150600    218.15528    123.68371    131382.84    -44288.45    2662.8944   -46951.345  0.098907833 
  150800    216.79361   -9.5233455    131551.06   -44281.835    2646.2732   -46928.108  0.098956317 
  151000    216.72911   -68.680589    131597.91   -44301.772    2645.4859   -46947.257  0.098491191 
  151200    215.96744    87.036478    131419.84   -44291.178    2636.1887   -46927.367  0.097655997 
  151400     215.5741     10.75255     131515.2   -44237.774    2631.3874   -46869.162   0.10062608 
  151600     217.5195   -102.12499    131638.05    -44226.76    2655.1338   -46881.893   0.10335419 
  151800    216.67047    47.564625    131477.38   -44202.983    2644.7702   -46847.753   0.10358616 
  152000    221.50601    88.091917    131470.98   -44221.979    2703.7948   -46925.774  0.096700771 
  152200    214.72499   -71.494293    131616.49   -44236.459    2621.0228   -46857.482   0.10048755 
  152400    216.62627   0.17746832     131510.3   -44265.749    2644.2306    -46909.98   0.10006434 
  152600    213.89678    66.055843    131432.86   -44257.908    2610.9133   -46868.821   0.10429351 
  152800    217.73864   -69.773811    131615.37   -44214.761    2657.8087   -46872.569   0.10337309 
  153000    213.86509   -46.733442    131587.04   -44251.959    2610.5265   -46862.486   0.10189418 
  153200    220.79919    105.18273     131413.4   -44211.086     2695.167   -46906.253   0.10315717 
  153400    216.48084   -53.878017    131572.18   -44245.977    2642.4555   -46888.433   0.10100965 
  153600    220.57824   -69.396658    131608.04   -44275.447      2692.47   -46967.917  0.098389904 
  153800    216.18415    115.69882    131395.53   -44279.088    2638.8339   -46917.922   0.10385099 
  154000    213.51097    31.623093    131497.96   -44303.095    2606.2039   -46909.299  0.098352515 
  154200    215.35015   -109.00305    131640.36   -44268.735    2628.6538   -46897.389   0.10001082 
  154400    217.79323    73.213393    131442.67   -44255.342     2658.475   -46913.817  0.099730308 
  154600    215.40214    53.258994    131460.18    -44269.58    2629.2884   -46898.869    0.1009923 
  154800    215.06618   -118.47638    131631.03   -44292.767    2625.1875   -46917.955   0.10020637 
  155000    216.82747    40.418937    131486.63   -44272.909    2646.6865   -46919.595  0.097733025 
[...]
  163000    214.48014    105.99229    131364.98   -44324.512     2618.034   -46942.546   0.10369861 
  163200    217.29397   -218.93101    131727.65   -44318.093    2652.3808   -46970.474  0.097405545 
  163400    213.70519    25.488451    131429.54   -44337.981    2608.5747   -46946.556   0.10013222 
  163600    215.51333    189.56928    131282.28   -44313.907    2630.6455   -46944.553  0.099217664 
  163800    216.92268   -188.36401    131698.79   -44359.769    2647.8487   -47007.618  0.095707446 
  164000    212.47034   -48.383097    131543.42   -44354.528    2593.5016    -46948.03   0.10019544 
  164200    213.49998    184.34695    131249.96    -44363.67    2606.0698    -46969.74   0.10101819 
  164400    211.85044    -87.32603    131609.39   -44330.495    2585.9349    -46916.43   0.10053328 
  164600    215.34821   -139.17734    131661.42   -44305.154    2628.6301   -46933.784   0.10152402 
  164800    212.57011    183.71897    131288.19   -44338.134    2594.7194   -46932.854  0.099822771 
  165000    214.25839   -11.792516    131486.57   -44330.693    2615.3272    -46946.02   0.10166303 
  165200    215.57332   -170.74375    131689.15   -44319.453    2631.3779   -46950.831  0.097375556 
  165400    212.28997    103.58624     131360.5   -44329.857    2591.2999   -46921.157  0.098343947 
  165600    216.79831    118.24695    131386.38   -44297.568    2646.3306   -46943.899  0.098082436 
  165800    216.60976   -164.77408     131681.1   -44300.084    2644.0291   -46944.113  0.099840363 
  166000    217.29299    50.702722    131462.46   -44274.171    2652.3689    -46926.54   0.10034004 
  166200    213.17799    126.35874    131340.67   -44306.481    2602.1395    -46908.62   0.10095835 
  166400    214.92403   -105.28733     131602.4   -44301.456    2623.4524   -46924.908  0.099915765 
  166600    214.60442   -44.627602    131523.58   -44300.906    2619.5511   -46920.458   0.10177982 
  166800    211.33625    111.32028    131334.87   -44347.686    2579.6584   -46927.345   0.10085379 
  167000    215.11974    -40.75445    131508.62   -44340.268    2625.8413   -46966.109   0.10179393 
  167200    213.42017   -63.135222    131557.05   -44313.307    2605.0956   -46918.403    0.1023359 
  167400     212.6166    77.270309    131394.53   -44332.229    2595.2869   -46927.516   0.10154864 
  167600    215.33036    30.502364    131453.91   -44329.773    2628.4122   -46958.185  0.098388048 
  167800    209.28257   -82.975965    131551.71   -44361.319    2554.5904   -46915.909  0.098395259 
  168000     211.3249    29.259726    131434.78   -44372.371    2579.5199    -46951.89   0.09933177 
  168200    209.59964    29.497331    131431.87   -44363.128    2558.4607   -46921.588   0.10196033 
  168400    214.66964   -78.669123    131546.51   -44347.319    2620.3472   -46967.666   0.10257043 
  168600    217.08916     3.760513    131478.41   -44316.338    2649.8809   -46966.219   0.10036561 
  168800    214.79369    57.959979    131426.12   -44364.893    2621.8614   -46986.754  0.096310538 
  169000    213.14037   -11.623317    131488.41   -44358.171    2601.6803   -46959.851  0.097881243 
  169200    214.91529   -4.3071592    131506.88   -44344.307    2623.3457   -46967.652  0.099070148 
  169400    211.70052   -7.7071622    131454.99   -44355.976    2584.1049   -46940.081   0.10276673 
  169600    215.71863     26.40991    131469.86   -44365.531    2633.1516   -46998.683  0.098522269 
  169800    212.44793   -20.396019    131498.43   -44363.291     2593.228   -46956.519   0.10055001 
  170000    212.76844    1.3849429    131474.42    -44391.76    2597.1403     -46988.9  0.099690786 
  170200    215.14131    33.089639    131453.82   -44395.161    2626.1046   -47021.265   0.09824709 
  170400    212.69653   -4.8999158    131462.39   -44386.156    2596.2625   -46982.419  0.098993262 
  170600     211.4725    3.5519712    131459.79   -44366.289    2581.3215    -46947.61   0.10153245 
  170800    211.32279   -13.005221    131457.05    -44389.79    2579.4941   -46969.284   0.10154218 
  171000    212.80844    4.1789563    131463.52   -44376.922    2597.6286    -46974.55   0.10047089 
  171200    213.85441   0.10576968    131462.83   -44391.829    2610.3961   -47002.225   0.10319113 
  171400    211.52072    5.3560403    131457.86   -44394.173    2581.9102   -46976.083   0.10272617 
  171600    210.51356     13.56601    131437.77   -44372.651    2569.6164   -46942.268   0.10016826 
  171800     210.8519   -15.993871    131462.11   -44350.555    2573.7462   -46924.302   0.10180209 
  172000     212.0121   -14.290516    131486.46   -44353.255    2587.9082   -46941.163   0.10374912 
  172200    210.95978    15.294811    131448.38   -44376.182    2575.0631   -46951.245   0.10679564 
  172400     214.3919    35.767057    131443.18   -44357.176    2616.9569   -46974.133   0.10297633 
  172600    213.46729   -32.945468    131513.98   -44332.382    2605.6709   -46938.053   0.10094491 
  172800    214.83218   -3.6695684    131484.37   -44338.029    2622.3312    -46960.36  0.099599394 
  173000    211.95832    52.501519    131417.08   -44345.442    2587.2516   -46932.694   0.10136263 
  173200     213.5966   -23.092007    131518.96   -44370.111    2607.2492    -46977.36   0.10075008 
  173400    211.99279   -53.460868     131510.4   -44371.413    2587.6725   -46959.086   0.10529403 
  173600    214.74648    96.757886    131371.11   -44337.819    2621.2851   -46959.104   0.10378518 
  173800    212.73983   -72.962917    131547.29   -44331.405    2596.7912   -46928.196   0.10317191 
  174000    215.46002   -81.762306    131596.07   -44306.851    2629.9949   -46936.846  0.099998359 
  174200    211.72616    125.60767    131363.15   -44297.944    2584.4178   -46882.361   0.10513772 
  174400    215.99528    1.0876792     131504.8   -44290.732    2636.5285    -46927.26   0.10207468 
  174600    213.16901   -128.71198     131672.9    -44293.58    2602.0299    -46895.61   0.10257493 
  174800    213.72248    102.82741    131413.45   -44281.714    2608.7857     -46890.5   0.10638149 
  175000    213.14436    73.527882    131438.31   -44305.098     2601.729   -46906.827    0.1024519 
  175200    214.83655   -162.55608    131711.06   -44307.672    2622.3845   -46930.056   0.10006391 
  175400    214.40709    18.971829    131489.66   -44319.307    2617.1424   -46936.449   0.10096092 
  175600    214.07513    162.50028    131324.27   -44324.927    2613.0903   -46938.017   0.10113883 
  175800    215.47416    -135.1349    131659.22   -44304.914    2630.1675   -46935.081   0.10395335 
  176000    216.29889   -59.922358    131594.94   -44310.486    2640.2345    -46950.72   0.10109413 
  176200    216.66186    167.94542    131330.35   -44273.279    2644.6651   -46917.944   0.10420772 
  176400    212.02681   -100.81162    131637.78   -44284.073    2588.0877    -46872.16   0.10564597 
  176600    214.77326   -133.94988    131660.85   -44276.043     2621.612   -46897.655   0.10277632 
  176800    213.04787    211.03965    131296.43   -44291.089    2600.5511    -46891.64   0.10123024 
  177000    213.80552   -62.725367    131551.97   -44286.405    2609.7994   -46896.204   0.10602065 
  177200    216.22513   -182.15119    131743.52   -44310.623    2639.3341   -46949.957  0.099656675 
  177400      208.527    171.83394    131294.88   -44355.484    2545.3675   -46900.851   0.10673853 
  177600    211.53502    69.746192    131388.42    -44350.87    2582.0847   -46932.955   0.10755575 
  177800    215.58585    -251.8222    131786.25   -44322.884    2631.5309   -46954.415  0.099850379 
  178000    215.50195     110.9677    131386.32   -44306.138    2630.5067   -46936.644  0.099567899 
  178200    212.76161    208.49211    131265.86   -44310.936     2597.057   -46907.993   0.10244032 
  178400    215.58632   -254.61499    131785.65   -44318.774    2631.5366   -46950.311   0.10305902 
  178600    216.86983   -30.850672     131508.9   -44308.282    2647.2036   -46955.486   0.10547642 
  178800    218.75663    314.59758    131157.72   -44298.045    2670.2347   -46968.279   0.10512387 
  179000    213.11977   -211.96507    131738.79   -44272.684    2601.4288   -46874.113   0.10472485 
  179200    216.63865   -170.62448    131701.24    -44294.94    2644.3817   -46939.322  0.099104768 
  179400    216.16694    329.85475    131122.57   -44284.741    2638.6239   -46923.365   0.10865899 
  179600    214.82237   -57.808783    131583.84   -44289.316    2622.2115   -46911.527   0.10452267 
  179800    214.25196   -311.06738    131845.36   -44298.881    2615.2488   -46914.129   0.10588824 
  180000    213.19518    284.26431    131172.95   -44288.449    2602.3493   -46890.799   0.10881898 
  180200    217.01067    84.454486    131403.82   -44253.397    2648.9227    -46902.32   0.10397822 
  180400    217.42898   -318.13777    131907.39   -44234.209    2654.0289   -46888.238   0.10077994 
  180600     215.5049     136.1553    131345.57   -44269.277    2630.5428    -46899.82    0.1067326 
  180800    215.67806    248.14072     131238.8   -44264.754    2632.6563    -46897.41   0.10322895 
  181000    212.03315   -329.72821     131852.5   -44291.215    2588.1651   -46879.381   0.10621606 
  181200    217.83427   -17.946613    131522.19   -44279.716    2658.9759   -46938.692   0.10517401 
  181400    216.79089    284.91125    131188.01   -44308.264      2646.24   -46954.504   0.10457215 
  181600    213.45221   -186.15124    131713.52   -44320.976    2605.4867   -46926.463   0.10338287 
  181800    210.78328   -120.21474    131638.38    -44315.29    2572.9087   -46888.199   0.10157625 
  182000    215.38956     243.4106    131226.38   -44298.013    2629.1348   -46927.148   0.10006896 
  182200    213.69988   -61.988796    131573.76   -44307.541    2608.5098    -46916.05   0.10231311 
  182400    215.48509   -158.28923    131674.89   -44312.652    2630.3009   -46942.953   0.10433237 
  182600    213.62206    183.81298    131291.76   -44296.355    2607.5599   -46903.915   0.10879996 
  182800    216.48733    28.140968    131474.03   -44276.414    2642.5346   -46918.948   0.10200229 
  183000    216.54607   -174.46804    131694.36   -44256.241    2643.2517   -46899.492   0.10150471 
  183200    217.76598    88.201293     131405.6   -44249.687    2658.1424   -46907.829   0.10098567 
  183400    215.61221      80.2251    131437.17   -44255.293    2631.8525   -46887.146   0.10334184 
  183600    215.18724   -162.33858    131675.05   -44283.055    2626.6652    -46909.72   0.10672684 
  183800    214.89243    40.626531    131473.59    -44290.28    2623.0667   -46913.347   0.10488526 
  184000    215.34109     132.0433    131376.25   -44312.139    2628.5432   -46940.683   0.10201253 
  184200    211.31631   -115.15102    131608.16   -44342.468     2579.415   -46921.883   0.10033497 
  184400    216.43017   -13.399474    131506.28   -44331.109    2641.8369   -46972.945  0.096891701 
  184600    212.87134    135.32817    131343.68   -44350.839    2598.3964   -46949.235   0.10272474 
  184800     212.2693   -83.909009    131556.08   -44336.961    2591.0476   -46928.009   0.10196335 
  185000    211.34756   -80.181654    131565.42   -44336.133    2579.7965   -46915.929   0.10299974 
  185200    211.55617    124.21112    131365.03   -44367.987    2582.3428    -46950.33   0.10076192 
  185400    212.19603  -0.67053703    131487.81   -44352.241    2590.1533   -46942.395   0.10035102 
  185600    211.56523   -96.838588    131586.28   -44357.859    2582.4534   -46940.312  0.099707252 
  185800    211.74674    72.662188     131403.1     -44325.1    2584.6691   -46909.769   0.10094643 
  186000    214.50413    60.206706    131455.95   -44321.211    2618.3269   -46939.538  0.097743115 
  186200    214.44298   -108.87999    131628.24   -44307.445    2617.5804   -46925.025   0.10327924 
  186400    213.40826    25.102992    131478.01   -44281.176    2604.9502   -46886.126   0.10382423 
  186600    215.54019    64.895094    131417.57   -44291.239    2630.9735   -46922.212   0.10614751 
  186800    214.11756    -81.52626    131600.11   -44310.621    2613.6082   -46924.229   0.09982548 
  187000      217.176   -5.8209434    131509.15   -44282.622    2650.9408   -46933.563  0.097927179 
  187200    215.71464      101.836    131394.81   -44306.235    2633.1029   -46939.338  0.098480261 
  187400    214.52443   -56.135276    131574.23   -44293.562    2618.5746   -46912.137    0.1025182 
  187600    214.12305   -40.131228    131554.46   -44324.508    2613.6753   -46938.184   0.10431237 
  187800    212.37717    125.62693    131367.99   -44324.599    2592.3643   -46916.963   0.10340313 
  188000    215.99947     -23.3786    131535.13   -44303.909    2636.5796   -46940.488  0.097369254 
  188200    215.64027   -103.37419    131626.89   -44284.174     2632.195   -46916.369  0.099556259 
  188400    216.87498    124.40297    131394.37   -44275.819    2647.2665   -46923.086  0.098623174 
  188600    212.60172     22.78618    131497.29   -44282.387    2595.1053   -46877.493   0.10348045 
  188800    214.55599   -135.21756    131663.07   -44289.642    2618.9599   -46908.602   0.10484584 
  189000    216.90396    86.107026    131399.99   -44289.618    2647.6203   -46937.238   0.10376823 
  189200    212.69269    74.817866     131435.1   -44291.269    2596.2157   -46887.484   0.10208025 
  189400    214.29915   -145.43081    131686.62   -44283.679    2615.8249   -46899.504  0.099258197 
  189600    217.12489    38.417225    131456.63   -44279.235     2650.317   -46929.552   0.10176397 
  189800    214.12243    126.96197    131348.54   -44309.627    2613.6677   -46923.295     0.103904 
  190000    215.51364   -143.73994    131643.58   -44326.808    2630.6495   -46957.457   0.10285647 
  190200    211.53639   -20.809151    131523.89   -44311.036    2582.1014   -46893.137   0.10582138 
  190400    215.84029    165.58594     131301.7   -44314.359    2634.6366   -46948.996   0.10048461 
  190600    216.56229   -81.910585    131582.13   -44278.999    2643.4496   -46922.448   0.10088868 
  190800    217.85317   -67.153048    131614.94   -44274.819    2659.2067   -46934.026  0.098396792 
  191000    214.35554    162.09876     131309.8   -44305.113    2616.5131   -46921.626   0.10152828 
  191200     215.8293     20.90939    131505.24    -44312.12    2634.5025   -46946.623   0.10268339 
  191400    210.84133   -188.60153    131688.72   -44318.884    2573.6172   -46892.501   0.10669087 
  191600    214.91387    121.83936    131350.21   -44279.586    2623.3283   -46902.914   0.10580028 
  191800     214.1942    42.187098    131424.03   -44306.757    2614.5438   -46921.301   0.10515825 
  192000     211.7488   -193.58324    131708.78   -44315.257    2584.6942   -46899.951   0.10033108 
  192200    216.66666    94.588808    131404.96   -44289.918    2644.7237   -46934.642   0.10018968 
  192400    216.08249    156.21619    131354.88   -44291.802     2637.593   -46929.395   0.10263361 
  192600    213.44214   -179.52865     131728.7   -44321.552    2605.3637   -46926.916   0.10446126 
  192800    213.38964    -16.98766    131505.85   -44303.279    2604.7229   -46908.002   0.10703503 
  193000    216.75885    222.85943    131269.25   -44296.307    2645.8489   -46942.156   0.10470567 
  193200    214.55298   -155.02131    131679.71   -44275.111    2618.9231   -46894.034   0.10149069 
  193400     216.4622   -78.074757    131620.86   -44264.309    2642.2279   -46906.537  0.097945972 
  193600    210.51544    204.81267    131266.23   -44281.642    2569.6393   -46851.282    0.1091435 
  193800    213.75289   -72.618497    131602.88   -44300.516     2609.157   -46909.673   0.10799555 
  194000    213.06032   -172.25882    131712.04   -44328.114    2600.7031   -46928.817   0.10327215 
  194200    219.73245    200.68947    131270.28   -44309.691    2682.1459   -46991.837   0.10440209 
  194400    216.20617    51.872537    131478.22   -44304.838    2639.1027    -46943.94  0.097907523 
  194600    214.74322   -210.31672    131777.66   -44304.891    2621.2453   -46926.136  0.097436294 
  194800    216.29039    167.11895       131338   -44309.094    2640.1307   -46949.225   0.10464918 
  195000    216.29376    149.71777    131366.14   -44294.233    2640.1719   -46934.405   0.10813136 
  195200    213.20194   -271.65369    131820.84   -44271.049    2602.4318   -46873.481   0.10954134 
  195400      213.671    48.571352     131470.5   -44288.092    2608.1574   -46896.249   0.10615349 
  195600    214.41186    224.87624    131279.41   -44293.039    2617.2006    -46910.24    0.1038113 
  195800    215.96552   -218.27399    131768.05   -44321.349    2636.1652   -46957.514   0.10069491 
  196000    214.48119   -34.103267    131585.82   -44309.072    2618.0469   -46927.118    0.1023527 
  196200    216.57191     252.6013    131252.35   -44282.268    2643.5671   -46925.835    0.1054491 
  196400    215.40958   -135.69452    131696.52   -44299.655    2629.3793   -46929.034   0.10531467 
  196600     214.3988   -145.44031    131677.06   -44334.369    2617.0412   -46951.411   0.10523004 
  196800    210.91211    225.29853    131228.71   -44324.544    2574.4812   -46899.025   0.10724208 
  197000    214.91661   -63.556269    131562.85   -44331.309    2623.3618   -46954.671   0.10176853 
  197200     213.5106   -208.43593    131726.43    -44357.09    2606.1994    -46963.29  0.099774036 
  197400    215.36837    207.04716    131250.19   -44353.114    2628.8761    -46981.99   0.10324288 
  197600    214.79312    70.568396     131452.1   -44304.094    2621.8544   -46925.948    0.1067871 
  197800    216.09192   -269.33993    131823.69   -44278.111    2637.7081   -46915.819   0.10853514 
  198000    215.02927    137.94391    131380.34   -44297.102     2624.737   -46921.839   0.10728951 
  198200    211.86971    160.04968    131335.96   -44315.431      2586.17   -46901.601   0.10421434 
  198400    213.85683   -226.65856    131785.89   -44270.586    2610.4256   -46881.012   0.10282308 
  198600    216.63641    11.110227    131520.61   -44253.783    2644.3544   -46898.138   0.10403773 
  198800    216.01108    206.78737     131294.7    -44281.03    2636.7214   -46917.752   0.10646913 
  199000    215.25185   -152.88955    131697.11   -44273.995    2627.4538   -46901.449   0.10810479 
  199200    215.98322   -82.792645     131614.3   -44280.639    2636.3813   -46917.021   0.10493376 
  199400    216.14004    185.58062    131300.43   -44285.898    2638.2955   -46924.194   0.10250839 
  199600     214.3014   -67.598499    131594.14    -44305.06    2615.8523   -46920.913  0.098816542 
  199800    215.14011   -107.21726    131656.19   -44288.656    2626.0899   -46914.746   0.10019695 
  200000    216.57066    155.38347    131335.34   -44291.775    2643.5519   -46935.327   0.10523321 
Loop time of 100.819 on 6 procs for 200000 steps with 4096 atoms

Performance: 856.986 ns/day, 0.028 hours/ns, 1983.763 timesteps/s
97.6% CPU use with 6 MPI tasks x no OpenMP threads

MPI task timing breakdown:
Section |  min time  |  avg time  |  max time  |%varavg| %total
---------------------------------------------------------------
Pair    | 65.1       | 66.89      | 69.022     |  18.9 | 66.35
Neigh   | 7.9947     | 8.1373     | 8.3857     |   5.7 |  8.07
Comm    | 13.213     | 15.485     | 17.329     |  42.2 | 15.36
Output  | 2.918      | 2.9196     | 2.9264     |   0.2 |  2.90
Modify  | 5.8439     | 5.8548     | 5.876      |   0.4 |  5.81
Other   |            | 1.532      |            |       |  1.52

Nlocal:        682.667 ave         713 max         665 min
Histogram: 2 0 1 1 0 0 1 0 0 1
Nghost:        1375.00 ave        1408 max        1353 min
Histogram: 1 2 0 1 0 0 0 1 0 1
Neighs:        0.00000 ave           0 max           0 min
Histogram: 6 0 0 0 0 0 0 0 0 0
FullNghs:      19374.0 ave       20222 max       18859 min
Histogram: 2 0 1 1 0 0 1 0 0 1

Total # of neighbors = 116244
Ave neighs/atom = 28.379883
Neighbor list builds = 8749
Dangerous builds = 0

Total wall time: 0:02:31
