
# Define the lattice
#
variable	    lattice_constant equal 6.36339
lattice		    diamond ${lattice_constant}
lattice		    diamond 6.36339
Lattice spacing in x,y,z = 6.3633900 6.3633900 6.3633900

# Define region
# multiples of lattice spacing
#
region 		    simbox block 0 8 0 8 0 8

# Create Atoms
#
create_box          1 simbox
Created orthogonal box = (0.0000000 0.0000000 0.0000000) to (50.907120 50.907120 50.907120)
  1 by 2 by 3 MPI processor grid
create_atoms        1 box
Created 4096 atoms
  create_atoms CPU = 0.001 seconds
mass                1 18.015

# Define potential
#
pair_style          sw
pair_coeff          * * ML_mW.sw mW
Reading sw potential file ML_mW.sw with DATE: 2019-02-27

# Add velocity/set timestep
#
velocity            all create ${TEMP} 120598 rot yes dist gaussian
velocity            all create 215 120598 rot yes dist gaussian
timestep            5.0

# Define output
#
compute	            1 all msd
thermo              100
thermo_style        custom step temp press vol etotal ke pe c_1[4]

# Neighbor lists
#
neigh_modify        delay 0 every 1 check yes

# Set fixes
#
fix                 1 all momentum 10 linear 1 1 1 rescale
fix                 2 all nve
fix                 3 all temp/csvr ${TEMP} ${TEMP} 500.0 928347
fix                 3 all temp/csvr 215 ${TEMP} 500.0 928347
fix                 3 all temp/csvr 215 215 500.0 928347
fix                 4 all press/berendsen iso ${PRES} ${PRES} 1000.0 modulus 20000
fix                 4 all press/berendsen iso 1 ${PRES} 1000.0 modulus 20000
fix                 4 all press/berendsen iso 1 1 1000.0 modulus 20000

# Run 0.5 ns equilibration
#
dump		    1 all custom 1000 eq.${NAME}.dump id type x y z vx vy vz
dump		    1 all custom 1000 eq.ice_215K_1atm_ML.dump id type x y z vx vy vz
run                 100000
Neighbor list info ...
  update every 1 steps, delay 0 steps, check yes
  max neighbors/atom: 2000, page size: 100000
  master list distance cutoff = 6.0032907
  ghost atom cutoff = 6.0032907
  binsize = 3.0016454, bins = 17 17 17
  1 neighbor lists, perpetual/occasional/extra = 1 0 0
  (1) pair sw, perpetual
      attributes: full, newton on
      pair build: full/bin/atomonly
      stencil: full/bin/3d
      bin: standard
Per MPI rank memory allocation (min/avg/max) = 4.800 | 4.800 | 4.801 Mbytes
Step Temp Press Volume TotEng KinEng PotEng c_1[4] 
       0          215   -952.95726    131927.58   -47062.006    2624.3797   -49686.386            0 
     100    141.72601    81.966277    130947.13   -46017.273    1729.9668    -47747.24  0.074012198 
     200    170.57514    95.655334    131095.35    -45393.88    2082.1113   -47475.991  0.081922425 
     300    191.33927    131.30336    131217.37    -44989.03     2335.567   -47324.597  0.086071097 
     400    207.10978    126.14751    131312.85   -44756.643    2528.0684   -47284.711  0.091323642 
     500     203.6727    -5.024569    131394.65   -44582.912     2486.114   -47069.026  0.096305176 
     600     211.0378   -22.795343    131406.71   -44376.322    2576.0155   -46952.337   0.10474196 
     700    205.59983   -91.609532    131430.04   -44350.274    2509.6373   -46859.912   0.11619308 
     800    210.16267   -31.605438    131453.34   -44291.466    2565.3333   -46856.799   0.11281744 
     900    208.57845   -20.389742    131461.29   -44285.372    2545.9956   -46831.367   0.11993925 
    1000    207.64294   -42.729531    131492.41    -44355.44    2534.5764   -46890.016   0.10719983 
    1100    215.98831   -10.367063    131464.42   -44302.367    2636.4435    -46938.81   0.11208854 
    1200    215.69883   -31.600676    131488.25   -44291.401    2632.9099   -46924.311   0.10295574 
    1300    220.85346    45.951171    131489.74   -44236.377    2695.8294   -46932.206   0.10823242 
    1400    215.34288   -8.1263646    131490.04   -44288.406     2628.565   -46916.971   0.10600806 
    1500    211.60692   -1.5734074    131450.15   -44325.611    2582.9623   -46908.574   0.11433179 
    1600    216.21993   -11.334563    131491.81   -44298.134    2639.2707   -46937.404   0.10721841 
    1700    218.53542    13.509314    131495.61   -44312.679    2667.5345   -46980.213   0.10257014 
    1800    209.01841   -6.9167645    131478.76    -44275.83    2551.3659   -46827.196    0.1077964 
    1900    207.34139   -60.033189    131487.43   -44222.876    2530.8955   -46753.772   0.11718074 
    2000    217.04191   -8.5704755    131507.98   -44195.679    2649.3041   -46844.983   0.10807511 
    2100     213.1929   -2.2661247    131474.32   -44301.222    2602.3215   -46903.544    0.1127881 
    2200    217.93838   0.66054931    131490.48   -44268.775    2660.2468   -46929.022   0.10675907 
    2300    216.35516    24.468161     131513.8   -44232.849    2640.9213   -46873.771  0.099835906 
    2400    215.00493   -24.303382    131508.87   -44253.186    2624.4399   -46877.626   0.10086837 
    2500    215.90036    20.739072    131500.87    -44271.44    2635.3699    -46906.81   0.10247119 
    2600    220.79345    47.025515    131490.04   -44289.795    2695.0969   -46984.892  0.091782721 
    2700    217.45108    52.533425     131511.6   -44297.067    2654.2986   -46951.365   0.10583307 
    2800    215.33726   -24.740664    131520.96   -44221.391    2628.4964   -46849.887  0.097851714 
    2900    218.22855   -17.240047    131532.34   -44229.856    2663.7887   -46893.645   0.10840789 
    3000    218.90413    52.153871    131509.52   -44264.483    2672.0352   -46936.518  0.096483228 
    3100    216.26564   -4.9169581    131509.13   -44247.335    2639.8286   -46887.164   0.10118609 
    3200    219.43148     25.76898    131500.61    -44313.56    2678.4721   -46992.032   0.10944012 
    3300    212.05109   -21.801556    131479.18   -44382.075     2588.384   -46970.459   0.10456618 
    3400    213.29259    5.7769848    131491.25   -44329.931    2603.5383   -46933.469   0.10717166 
    3500    215.84942    20.417768    131486.82   -44303.912    2634.7481    -46938.66   0.10610607 
    3600    213.10454     18.98941    131497.16   -44302.726    2601.2429   -46903.969  0.094178805 
    3700    212.20998   -16.371064    131502.08   -44278.902    2590.3235   -46869.225   0.11216187 
    3800    219.85316    12.068164    131502.14   -44265.392    2683.6194   -46949.011   0.10005883 
    3900    212.67207   -11.627401     131501.9   -44271.495     2595.964   -46867.459   0.11454363 
    4000    216.22537    40.903014    131491.35   -44299.405    2639.3371   -46938.742  0.097155414 
    4100    212.61939   -31.188865    131490.95   -44317.405     2595.321   -46912.726   0.10498891 
    4200    209.50541   -22.392394    131498.79   -44283.048    2557.3104   -46840.359   0.10837979 
    4300     211.1846    5.6024417    131485.83   -44373.361    2577.8074   -46951.168   0.10059725 
    4400    217.70801     6.543229    131498.49   -44295.472    2657.4347   -46952.907   0.11212903 
    4500    214.32224   -10.536169    131499.61   -44338.731    2616.1067   -46954.838   0.10336286 
    4600    213.64205   -8.1598222    131490.72   -44361.638     2607.804   -46969.442   0.10435301 
    4700    217.32381  -0.14008145    131501.78   -44290.208    2652.7451   -46942.953   0.10289474 
    4800    216.63686   -6.7490306    131529.91    -44224.73    2644.3599    -46869.09  0.098696878 
    4900    219.85828    8.3811917    131520.51    -44197.95    2683.6819   -46881.632   0.11121363 
    5000     217.1271    41.675889    131531.63   -44294.447     2650.344   -46944.791  0.092972094 
    5100    215.25677   -24.066794    131528.78   -44243.517    2627.5139   -46871.031   0.10411752 
    5200    218.66704    6.0390233    131524.95   -44292.193    2669.1411   -46961.334    0.0980529 
    5300    211.88384   -15.327361     131480.4    -44363.25    2586.3425   -46949.593  0.096987286 
    5400    215.85417     9.226325    131474.58   -44335.313     2634.806   -46970.119   0.10173752 
    5500     218.3181    19.957003    131481.73   -44313.676    2664.8818   -46978.558   0.10062439 
    5600    211.19469   -3.1212156    131464.27   -44333.928    2577.9304   -46911.858   0.10314971 
    5700    215.08229   -14.711451    131489.56   -44333.002    2625.3842   -46958.387    0.1020206 
    5800    214.54697    -17.73257    131506.84   -44296.836    2618.8498   -46915.686   0.10586109 
    5900    215.07802    17.044634    131497.96   -44348.113     2625.332   -46973.445  0.095779404 
    6000     214.2813    6.6429908    131493.25   -44330.472    2615.6069   -46946.079   0.10273791 
    6100    212.96409    16.899292     131484.5   -44382.891    2599.5285   -46982.419  0.094623633 
    6200    217.34781   -8.7934775    131481.78   -44369.904    2653.0381   -47022.942  0.096911764 
    6300    213.66461   -8.2800983    131506.95   -44286.684    2608.0793   -46894.763   0.10399703 
    6400    211.51534     -19.6449    131501.34   -44327.699    2581.8445   -46909.543  0.098944764 
    6500    211.32447   -19.481219     131477.6   -44333.902    2579.5147   -46913.416   0.10456818 
    6600    215.59436    19.855387     131478.6   -44335.997    2631.6347   -46967.631   0.09676687 
    6700    216.86567    11.893104    131478.28   -44376.005    2647.1528   -47023.158  0.094087196 
    6800    212.06333   -14.869316    131478.04   -44341.484    2588.5335   -46930.017   0.10784705 
    6900    212.17373    4.7748826    131500.39   -44290.647     2589.881   -46880.528   0.10440626 
    7000    212.64716    12.427466       131494   -44290.149      2595.66   -46885.809   0.10981892 
    7100    213.71174   -9.0933122    131499.48   -44296.998    2608.6546   -46905.652  0.099313806 
    7200    210.22065 0.0036945941    131484.29    -44374.27     2566.041   -46940.311   0.10443688 
    7300    212.83894   -30.321356    131468.39   -44408.431    2598.0009   -47006.432  0.098510944 
    7400    213.55502   -3.2779742     131479.6   -44327.621    2606.7416   -46934.363   0.10829391 
    7500    215.67029    31.010411     131487.5   -44281.315    2632.5615   -46913.877   0.10268366 
    7600    213.83415    20.235674    131514.81   -44267.362    2610.1488   -46877.511  0.097570678 
    7700    215.09023   -26.734581    131494.84    -44335.32     2625.481   -46960.801   0.10386977 
    7800    213.42038    29.021208    131485.73   -44371.497    2605.0982   -46976.595   0.09575368 
    7900    212.72268   -24.169495    131484.49   -44328.117    2596.5817   -46924.699   0.10172029 
    8000    216.41096     20.81132    131505.86   -44261.553    2641.6024   -46903.156   0.10817721 
    8100     216.1861   -13.435862    131524.35   -44241.162    2638.8577    -46880.02   0.10066669 
    8200    217.44943    14.253104    131519.12   -44255.382    2654.2784   -46909.661   0.10681496 
    8300    218.02901    3.3646489    131529.57   -44232.047    2661.3531     -46893.4  0.099943966 
    8400    218.36888     18.40046    131548.79    -44211.39    2665.5017   -46876.891   0.10265887 
    8500    215.68487   -3.6952945       131525   -44273.449    2632.7395   -46906.189   0.10115522 
    8600    215.16489   -2.7021915    131523.85   -44291.295    2626.3924   -46917.688   0.10337013 
    8700    215.80854   -6.7215792    131525.44    -44269.74    2634.2491   -46903.989   0.10030632 
    8800    216.54711    1.5187709    131521.33   -44297.179    2643.2644   -46940.443   0.10031802 
    8900    218.11543    15.875901    131517.13   -44339.821    2662.4079   -47002.229   0.09459738 
    9000    213.93878    22.162208    131522.85   -44285.633     2611.426   -46897.059  0.099022557 
    9100    213.66799    -0.386633    131511.99    -44323.53    2608.1206   -46931.651   0.10041546 
    9200    217.66403   -8.2799423     131526.3   -44249.717     2656.898   -46906.615   0.10430322 
    9300    212.82121   -28.086224    131504.93   -44353.561    2597.7845   -46951.345   0.10151857 
    9400    213.13151   -18.515763    131500.08   -44327.366    2601.5721   -46928.938    0.1077881 
    9500    212.75238    10.552846    131500.59   -44355.171    2596.9443   -46952.115  0.093819518 
    9600    213.47286   -10.743972     131491.2   -44350.669    2605.7387   -46956.408   0.10721714 
    9700    217.66932    8.2740062    131500.94   -44261.523    2656.9626   -46918.485  0.097493906 
    9800     221.2782     12.68392       131515   -44232.396    2701.0141    -46933.41   0.10399165 
    9900     217.1105    16.463915    131517.31   -44256.568    2650.1414   -46906.709  0.099892851 
   10000     212.1047   -32.660771    131505.77   -44296.788    2589.0384   -46885.826   0.10356589 
   10100    219.60319    7.5885415    131504.02    -44255.32    2680.5681   -46935.888  0.098757975 
   10200    217.99253    15.058577    131500.59    -44231.19    2660.9077   -46892.098  0.098930476 
   10300    221.06799   -14.584789    131504.28   -44232.764    2698.4481   -46931.212   0.10173004 
   10400    216.27278    13.847073    131493.37   -44225.883    2639.9158   -46865.799   0.10614411 
   10500    214.09311    22.081003    131498.05   -44265.199    2613.3099   -46878.509   0.10496846 
   10600    213.48109   -24.871174     131501.7   -44285.345    2605.8392   -46891.184   0.11001755 
   10700    217.21257     10.47831    131492.17   -44311.132    2651.3872    -46962.52  0.094828534 
   10800    210.52462    -13.93317    131480.87   -44396.097    2569.7514   -46965.849   0.10718758 
   10900    209.89222    14.894069    131467.32   -44382.308     2562.032    -46944.34  0.094720428 
   11000    207.70122   -14.145523    131456.37   -44385.179    2535.2877   -46920.467   0.11004386 
   11100     210.8039   -24.423571    131491.76   -44331.613    2573.1603   -46904.773   0.10520687 
   11200    212.07147   -11.652332     131486.2   -44401.059    2588.6329   -46989.692  0.096248499 
   11300    212.95832   -2.2649716    131480.82   -44340.968     2599.458   -46940.426    0.1002709 
   11400     214.1743    11.172434    131493.14   -44325.418    2614.3008   -46939.719  0.096322925 
   11500    216.07701   -15.127554    131491.54    -44253.99    2637.5261   -46891.516   0.10351968 
   11600    215.46148   -26.554368    131501.86   -44257.389    2630.0127   -46887.401   0.11028589 
   11700    224.48627    28.361313    131527.02   -44165.594    2740.1731   -46905.767  0.099686391 
   11800    217.24844    16.367622    131509.78   -44224.615    2651.8251    -46876.44   0.10368352 
   11900    218.03582    26.592128       131515   -44262.042    2661.4361   -46923.478  0.095435666 
   12000    218.62187  -0.39883648    131497.76   -44221.383    2668.5897   -46889.972   0.10559098 
   12100    216.91387    29.949803    131487.33   -44279.346    2647.7412   -46927.087   0.10056907 
   12200    216.06566   -1.5773522    131484.55   -44272.289    2637.3876   -46909.676   0.10719753 
   12300    218.36683     31.38836     131474.8    -44310.09    2665.4766   -46975.566  0.093160043 
   12400    218.19912   -1.6810295    131480.15   -44284.016    2663.4294   -46947.446   0.10277189 
   12500    218.44883   -4.1335762    131481.55    -44238.88    2666.4775   -46905.358  0.099686896 
   12600    214.19026    -21.78926    131502.08   -44239.002    2614.4956   -46853.498   0.10340291 
   12700    212.49546   -15.642911    131490.88     -44260.5    2593.8082   -46854.308   0.10623584 
   12800    213.86807   -4.9406653    131495.39   -44284.222    2610.5629   -46894.785   0.10348778 
   12900    216.58349   0.44296319    131479.92   -44315.983    2643.7084   -46959.692    0.1015163 
   13000    214.20084     12.64508    131471.34   -44312.089    2614.6249   -46926.714   0.10377346 
   13100    213.31284    1.0791066    131464.02   -44332.497    2603.7855   -46936.283   0.10414844 
   13200     212.3605   -5.1829395    131449.28     -44361.5    2592.1609   -46953.661   0.10557236 
   13300    212.42826   -6.9586027    131453.94   -44406.538     2592.988   -46999.526   0.10211032 
   13400    206.03547   -34.219574    131427.36   -44437.175    2514.9549    -46952.13   0.10949434 
   13500    212.47576    11.363077    131443.42   -44343.784    2593.5678   -46937.352   0.10099128 
   13600    215.62355    -37.17823    131451.25   -44330.335     2631.991   -46962.326   0.11010274 
   13700     214.4483    28.745421       131450   -44334.251    2617.6454   -46951.897  0.098077417 
   13800    212.36569   -4.2386581    131465.35     -44308.2    2592.2242   -46900.424   0.10428216 
   13900     213.9398   -6.5601671    131476.87   -44283.474    2611.4384   -46894.913   0.10634701 
   14000    222.18752    15.798167    131504.84   -44216.592    2712.1135   -46928.706   0.09990864 
   14100    215.90523    1.2142322    131486.26   -44278.043    2635.4293   -46913.473   0.10950811 
   14200     218.3275    32.873719    131508.56   -44278.586    2664.9965   -46943.582  0.095950233 
   14300    215.61619   -1.5881424    131510.23   -44307.157    2631.9011   -46939.058  0.098265445 
   14400    214.63815   -6.7296642    131480.06   -44335.037    2619.9628       -46955   0.10468596 
   14500    213.57527    19.651718    131483.48   -44337.303    2606.9889   -46944.292  0.095745642 
   14600    214.55344   -18.448803     131483.3   -44336.554    2618.9288   -46955.483   0.10743967 
   14700    214.10243    7.1622669    131487.19   -44300.578    2613.4236   -46914.002   0.10056179 
   14800    212.38097   -6.1181408    131507.35   -44279.309    2592.4107    -46871.72   0.10166154 
   14900    218.54993    33.970643    131499.14   -44260.571    2667.7116   -46928.283  0.097067208 
   15000    217.43427    55.329346    131492.32   -44314.126    2654.0934    -46968.22  0.095139901 
   15100     218.2067    10.127787    131474.08   -44326.915     2663.522   -46990.437   0.10327458 
   15200     213.4934    1.3169568    131491.72   -44295.098    2605.9895   -46901.087   0.10132238 
   15300    212.93439    1.2610073    131483.72   -44329.646     2599.166   -46928.812   0.10449729 
   15400    213.07724   -16.603264     131478.9   -44357.547    2600.9096   -46958.457  0.097322167 
   15500    215.46679    -5.446917    131495.29   -44301.132    2630.0776    -46931.21   0.10183112 
   15600    218.26383   -12.961234    131525.58   -44218.752    2664.2193   -46882.971   0.10732305 
   15700    214.27455   -38.009882    131521.26   -44210.452    2615.5246   -46825.977   0.11145291 
   15800    217.03491   -26.552907    131532.64    -44222.01    2649.2186   -46871.228   0.11141231 
   15900      218.211   -2.5986493    131529.21   -44226.049    2663.5745   -46889.623   0.10274009 
   16000    214.62609     -4.63741    131525.72   -44265.771    2619.8156   -46885.587   0.10192713 
   16100    218.10324   -16.232888    131507.31   -44315.704    2662.2591   -46977.963   0.10267847 
   16200    216.55207   -16.875521    131520.76   -44293.855    2643.3249    -46937.18   0.10162959 
   16300    211.60696   -5.6619301    131501.49   -44298.595    2582.9628   -46881.558   0.10910776 
   16400    214.94184   -16.110861    131507.88    -44316.04    2623.6698    -46939.71   0.10143163 
   16500    218.63201    7.7822216    131518.59   -44252.117    2668.7135   -46920.831   0.10130191 
   16600     217.6209    16.493213    131522.25   -44233.423    2656.3715   -46889.794   0.10182186 
   16700    214.26389   -4.1466219    131514.26   -44253.115    2615.3945    -46868.51   0.10709843 
   16800    216.99862    -10.88853    131507.68   -44284.082    2648.7756   -46932.858   0.10150814 
   16900    213.09223    27.931874    131495.07   -44295.915    2601.0927   -46897.008    0.1070255 
   17000    211.47829   -13.483185    131495.14   -44342.269    2581.3923   -46923.661   0.10085639 
   17100    217.33714    19.807306    131496.34   -44290.141    2652.9078   -46943.048   0.10144497 
   17200    211.91689    16.396803    131482.05   -44332.158     2586.746   -46918.904   0.10231094 
   17300    211.42932    1.4414924    131483.42   -44384.368    2580.7944   -46965.162  0.097470249 
   17400    213.83143    16.363624    131473.15   -44400.155    2610.1157   -47010.271  0.099131614 
   17500    210.94626    16.928057    131488.27   -44309.383    2574.8981   -46884.281   0.10200719 
   17600    213.93254   -13.263946    131501.89   -44326.247    2611.3498   -46937.597  0.098974451 
   17700    212.29937   -18.190039    131485.64   -44350.181    2591.4147   -46941.596   0.10616926 
   17800    210.47159    1.6432897     131480.1   -44346.599     2569.104   -46915.703  0.097066498 
   17900    215.00835    19.005749    131493.55   -44289.833    2624.4816   -46914.315   0.10600019 
   18000    217.46015    26.489468    131500.76   -44257.371    2654.4093    -46911.78   0.10078547 
   18100    214.92201   -13.784466    131501.18   -44228.816    2623.4277   -46852.243   0.11218727 
   18200    214.63757    5.7374599    131495.53   -44307.391    2619.9557   -46927.347   0.10257468 
   18300    217.29005   -27.363035    131503.41   -44265.683    2652.3329   -46918.016   0.10634617 
   18400    211.89748   -38.721975    131480.78   -44340.915    2586.5091   -46927.424   0.10599626 
   18500    215.73151    17.885541    131479.88   -44313.479    2633.3088   -46946.788   0.10077554 
   18600    216.44872   -4.2339596    131487.35   -44256.715    2642.0634   -46898.779    0.1068388 
   18700    213.92941   -50.836912    131489.09   -44283.966    2611.3116   -46895.278   0.10894171 
   18800    216.86804    6.2430386    131485.94   -44306.039    2647.1817   -46953.221   0.10148446 
   18900    217.40699    15.393738    131486.58   -44284.326    2653.7604   -46938.087   0.10737977 
   19000    218.12053   -14.497227     131506.3   -44269.285    2662.4702   -46931.756  0.098308859 
   19100    220.39543    20.603445    131493.52   -44245.167    2690.2386   -46935.405   0.10936209 
   19200    215.51875   -19.461437    131497.12   -44288.359    2630.7118   -46919.071   0.10125489 
   19300    218.87368    3.3040475    131513.33   -44182.264    2671.6634   -46853.928   0.11205503 
   19400    213.71369    1.9598603    131499.68   -44242.902    2608.6785   -46851.581   0.10690028 
   19500    216.05403   -17.718523    131499.51   -44220.191    2637.2456   -46857.436   0.10853662 
   19600    218.00111   -1.0578511     131495.9   -44237.992    2661.0125   -46899.004   0.10393254 
   19700    217.10582   -13.882758    131507.09   -44247.966    2650.0842   -46898.051   0.10764469 
   19800    218.27433     16.18653    131496.83   -44240.154    2664.3475   -46904.501   0.10437575 
   19900    218.69926     13.11109    131502.48   -44259.362    2669.5344   -46928.896   0.10390419 
   20000     218.3449  -0.16747334     131489.5   -44287.191    2665.2089     -46952.4   0.10283321 
   20100     214.6917     25.36539    131468.62   -44313.405    2620.6165   -46934.021   0.10344523 
   20200    213.25437    16.929894    131464.86   -44328.248    2603.0719   -46931.319  0.099616457 
   20300    218.96299    2.8432177    131480.58   -44276.145    2672.7536   -46948.899   0.10807875 
   20400     213.7734    -18.47746    131489.39   -44286.288    2609.4073   -46895.695   0.10359202 
   20500    211.81234    10.420135    131465.98   -44326.493    2585.4698   -46911.963   0.10955474 
   20600    211.98327   -4.6416918    131477.23   -44351.291    2587.5562   -46938.847    0.1006688 
   20700    213.45761   -2.1195447    131478.52   -44321.589    2605.5526   -46927.142    0.1078771 
   20800    215.33819   -4.1546935    131499.38   -44260.802    2628.5078    -46889.31   0.10462929 
   20900    218.34981   -32.946678     131500.4   -44272.975    2665.2689   -46938.244   0.10512165 
   21000    214.66232   -6.6058349    131491.19   -44301.759    2620.2579   -46922.017   0.10416582 
   21100    217.46877   -5.2072469    131487.46   -44267.016    2654.5145    -46921.53   0.10538325 
   21200    218.46378   -6.5168127    131504.62   -44264.299    2666.6601   -46930.959   0.10320827 
   21300    220.46483    13.254126    131515.45   -44235.519    2691.0857   -46926.604   0.10107844 
   21400    215.54359   -4.2306636    131511.51   -44271.094     2631.015   -46902.109   0.10204863 
   21500    217.92002    8.4531088    131511.31   -44227.671    2660.0226   -46887.694   0.10493649 
   21600    217.74875    10.404189    131514.02   -44213.894     2657.932   -46871.826   0.10182482 
   21700    213.82643   -20.985162    131498.04   -44287.529    2610.0546   -46897.583   0.10937276 
   21800    214.19468    19.664857    131489.36   -44300.128    2614.5497   -46914.678  0.099852615 
   21900    217.10198    19.464055    131493.99   -44303.034    2650.0374   -46953.072   0.10418966 
   22000    212.23043   -23.688594    131488.38   -44349.301    2590.5732   -46939.875   0.10210235 
   22100    214.17027    10.780175    131482.98   -44328.032    2614.2516   -46942.283   0.10350464 
   22200    210.82298   -5.0705397    131460.93   -44418.349    2573.3932   -46991.742   0.10364631 
   22300    210.09009    12.712776    131480.42   -44357.935    2564.4473   -46922.382    0.1016459 
   22400    214.90584   -35.256177    131492.51   -44276.212    2623.2303   -46899.442   0.10844056 
   22500    215.33426   -2.7009776    131493.65   -44283.171    2628.4598   -46911.631   0.10320527 
   22600    214.61502   -13.915243    131489.09   -44296.073    2619.6804   -46915.753   0.10211547 
   22700     213.0025   -15.055937    131470.31   -44333.352    2599.9973   -46933.349   0.10489714 
   22800    213.99635   -2.3738226    131484.97   -44283.119    2612.1287   -46895.248   0.10502411 
   22900    215.33923   -12.884218    131483.68   -44307.451    2628.5205   -46935.972   0.10499106 
   23000    216.13005   -1.5258953    131470.31   -44351.938    2638.1735   -46990.112    0.1018797 
   23100    216.25852    25.960197    131491.24   -44290.919    2639.7417   -46930.661   0.10474791 
   23200     214.6417    38.372119    131493.53    -44280.78    2620.0061   -46900.786  0.099206327 
   23300    215.83802   -14.590628     131513.2   -44289.572    2634.6089   -46924.181   0.10655224 
   23400    216.23611   -6.3394296    131512.08   -44271.719    2639.4682   -46911.188   0.10423618 
   23500    218.67758    3.4251063    131515.08   -44263.721    2669.2698   -46932.991    0.1009059 
   23600    212.98957   -25.259929    131522.88    -44216.71    2599.8395   -46816.549   0.11054298 
   23700    220.28907    6.5642789    131525.24   -44242.584    2688.9403   -46931.524  0.095081982 
   23800    214.43736   -2.6191107    131515.86   -44242.752    2617.5119   -46860.264   0.10772465 
   23900     211.9538   -16.070241    131495.18   -44310.941    2587.1964   -46898.137   0.10012765 
   24000    220.56358   -12.374744    131509.34   -44275.838    2692.2911   -46968.129   0.10267668 
   24100     216.6008    -4.460411    131510.12    -44247.84    2643.9197   -46891.759   0.10521043 
   24200    215.17762    16.447933    131521.83   -44296.587    2626.5478   -46923.135  0.098282447 
   24300    214.28171   -11.145135    131504.12   -44329.631     2615.612   -46945.243   0.10400219 
   24400    213.73183    14.215337    131493.29   -44360.708    2608.8999   -46969.608   0.09749569 
   24500    213.09941   -15.823469    131486.05   -44330.579    2601.1802   -46931.759   0.10610276 
   24600    211.11108    11.959779    131477.42   -44360.289    2576.9099   -46937.199   0.10250415 
   24700    210.99549   -17.246715    131492.62   -44369.115     2575.499   -46944.614   0.10104507 
   24800    213.71766  0.058278271    131492.52   -44345.585    2608.7269   -46954.312   0.10601744 
   24900    212.03594    13.037157    131495.34   -44357.005    2588.1992   -46945.205  0.095093433 
   25000    214.43194     -10.7188    131487.66   -44330.788    2617.4457   -46948.234   0.10851851 
   25100    213.41563    6.3419912    131478.12   -44364.005    2605.0402   -46969.046  0.095569264 
   25200    208.94723   -39.261452    131455.02    -44442.99    2550.4971   -46993.487   0.10478877 
   25300    210.96174    10.355435    131466.95   -44400.024     2575.087   -46975.111   0.10374203 
   25400    210.71352  -0.71724793    131487.83   -44357.893    2572.0571    -46929.95  0.099892027 
   25500     210.0928   -7.4464855    131496.38   -44319.855    2564.4804   -46884.335   0.10677612 
   25600    219.18493    26.252048    131510.07   -44214.135    2675.4626   -46889.597   0.10325314 
   25700    215.14043   -2.0888169    131497.21   -44299.053    2626.0938   -46925.146   0.10358349 
   25800    218.64227    16.555158    131493.28   -44215.894    2668.8388   -46884.733   0.10893576 
   25900    214.93484   -8.7134796    131525.14   -44224.043    2623.5843   -46847.627   0.10443561 
   26000    217.38956   -7.6304682    131514.15   -44246.526    2653.5476   -46900.074   0.10612759 
   26100    215.44671    13.208305    131531.72   -44262.878    2629.8324    -46892.71  0.098575038 
   26200    215.43555   -9.6064365    131511.48   -44287.208    2629.6962   -46916.904   0.10389094 
   26300    214.48255   0.87663337     131490.7   -44329.609    2618.0634   -46947.672  0.095953942 
   26400    213.04258   -3.8462806    131485.51   -44344.757    2600.4867   -46945.243   0.10402102 
   26500     221.2351    9.5381929     131493.6   -44273.804    2700.4879   -46974.292  0.099351916 
   26600      217.019    23.284191    131504.21   -44247.385    2649.0245   -46896.409   0.10221026 
   26700    220.22823    17.253889    131518.77   -44220.521    2688.1977   -46908.719   0.10252151 
   26800    216.28096   -29.161795    131509.61   -44266.453    2640.0156   -46906.468   0.10251595 
   26900    218.14179    8.9572041    131498.34   -44244.891    2662.7297    -46907.62   0.10339993 
   27000    216.87924   -14.396827    131501.28   -44241.962    2647.3184    -46889.28   0.10742681 
   27100    216.61154   -3.9785035    131499.93   -44233.029    2644.0508    -46877.08   0.10401542 
   27200    216.04897   -11.988506     131496.6   -44260.102    2637.1838   -46897.286   0.10592389 
   27300    221.75826    -23.29071    131506.26   -44188.998    2706.8739   -46895.872   0.10270941 
   27400    215.45196   -28.976151     131502.8    -44213.51    2629.8965   -46843.406   0.10860042 
   27500    217.18762   -7.3288958    131487.09   -44296.662    2651.0827   -46947.745   0.10149229 
   27600    211.24198   -16.710633    131470.76    -44375.56    2578.5078   -46954.067   0.10699697 
   27700    216.83805    0.4685328     131474.9   -44304.731    2646.8157   -46951.546  0.099626531 
   27800    217.38685    7.6615589    131486.97   -44245.726    2653.5146    -46899.24   0.10952225 
   27900    215.33666   -10.835155    131481.77   -44315.826    2628.4891   -46944.315   0.10085226 
   28000    210.09807   -17.505827    131465.01   -44354.767    2564.5446   -46919.312   0.10583018 
   28100    209.48803   -1.5082629    131461.35    -44341.27    2557.0983   -46898.368   0.10736844 
   28200    211.78537  -0.41269781    131472.75   -44325.201    2585.1405   -46910.342   0.10247207 
   28300    212.86595   -19.206949    131471.68   -44318.081    2598.3306   -46916.411   0.10808483 
   28400    213.09268   -19.964195    131492.07   -44310.926    2601.0982   -46912.024   0.10416476 
   28500    214.78037   -29.915715    131494.68   -44319.082    2621.6988   -46940.781   0.10085545 
   28600    213.09112    21.896116    131480.75    -44330.01    2601.0791   -46931.089   0.10372066 
   28700    218.32888    1.2593298    131497.17   -44326.829    2665.0134   -46991.843  0.094553245 
   28800    213.28225  -0.79113725    131485.83   -44343.126    2603.4121   -46946.538   0.10598558 
   28900    213.81602   -9.9382981    131491.14   -44318.092    2609.9275    -46928.02  0.098336616 
   29000    214.92256    6.2918812    131496.33   -44298.232    2623.4344   -46921.666   0.10452978 
   29100    218.03601    33.365693    131511.15   -44267.758    2661.4385   -46929.197  0.098061765 
   29200     221.7287    15.999761     131526.8   -44209.447     2706.513    -46915.96   0.10120867 
   29300     215.0603    29.347948    131521.22    -44228.44    2625.1157   -46853.556   0.10446125 
   29400    217.86144   -8.4014411    131511.27    -44264.51    2659.3076   -46923.817   0.10082992 
   29500    216.97177   -5.6176327    131510.93   -44253.624     2648.448   -46902.072   0.10715671 
   29600    215.32102    8.9917258    131501.56   -44247.162    2628.2982   -46875.461   0.10130206 
   29700    216.66757   -15.873737    131508.53   -44294.775    2644.7347    -46939.51   0.10074459 
   29800    210.20189   -12.780537    131486.05   -44367.784    2565.8119   -46933.596   0.10441367 
   29900    216.41342    10.470056    131499.34   -44326.503    2641.6324   -46968.135  0.094465632 
   30000    215.34716   -14.655889    131483.68   -44365.361    2628.6173   -46993.979   0.10606595 
   30100    216.08452     31.89595    131502.03   -44289.903    2637.6177   -46927.521  0.096677701 
   30200    212.62907  -0.61541992    131501.95   -44327.952    2595.4391   -46923.391   0.10373718 
   30300    213.39456    8.7497697    131490.48   -44321.425     2604.783   -46926.208   0.10133437 
   30400    214.74237   -6.3350074    131498.05    -44304.12    2621.2349   -46925.355   0.10097892 
   30500    207.71998   0.96461077    131462.52   -44385.704    2535.5167    -46921.22   0.10585981 
   30600    210.18883   -10.552732    131472.65   -44343.283    2565.6526   -46908.936   0.10352443 
   30700    211.73565    10.815999     131484.6   -44365.391    2584.5336   -46949.925   0.10344192 
   30800    214.84074   -5.1328014    131482.21   -44326.551    2622.4357   -46948.987   0.10037137 
   30900    215.51905   -13.143835    131505.03   -44279.513    2630.7154   -46910.229   0.10521268 
   31000    214.67591    2.6090884    131501.23   -44297.246    2620.4237   -46917.669    0.1030126 
   31100    211.69206   -29.412261    131495.27   -44305.123    2584.0016   -46889.124    0.1026758 
   31200    214.13951   -13.519779    131492.28   -44299.343    2613.8762    -46913.22   0.10485902 
   31300    215.31709     9.723926    131507.34   -44222.825    2628.2502   -46851.075   0.09956217 
   31400    215.49714   -10.467085    131500.17   -44284.591    2630.4479   -46915.039   0.10526075 
   31500    216.75405    12.206946    131503.35   -44252.318    2645.7903   -46898.109   0.10261916 
   31600    217.41137    27.947043    131497.05   -44271.229    2653.8138   -46925.043  0.099734939 
   31700    221.30942    14.733301    131502.91   -44270.108    2701.3952   -46971.504   0.10091398 
   31800    215.37388    2.9262493    131512.76   -44260.324    2628.9434   -46889.267   0.10145651 
   31900    216.59853   -0.8869098    131483.26   -44296.631     2643.892   -46940.523    0.1060094 
   32000    215.90365    36.283126    131492.28   -44289.608      2635.41   -46925.018  0.099243393 
   32100    216.72334      8.37336    131495.06   -44312.947    2645.4155   -46958.363   0.10124074 
   32200    214.32023   -23.588433    131478.67   -44389.965    2616.0822   -47006.048  0.097034621 
   32300     214.0327    1.9206262    131462.88   -44358.609    2612.5724   -46971.182   0.10178947 
   32400    210.33392    -16.87617    131471.66   -44371.014    2567.4236   -46938.438   0.10246685 
   32500    213.07542    5.6852425    131479.13   -44295.371    2600.8875   -46896.259    0.1033203 
   32600    217.98448    10.796003    131503.56   -44262.635    2660.8095   -46923.444   0.10471923 
   32700    211.81895   -17.170786    131497.99   -44331.473    2585.5505   -46917.024  0.098538572 
   32800    214.30741   -4.7857499    131506.63   -44242.851    2615.9256   -46858.777   0.10545082 
   32900    214.92286   -3.7796362    131503.38   -44278.389    2623.4381   -46901.827   0.10375805 
   33000     216.9788   -1.2410723    131505.28   -44274.569    2648.5338   -46923.103    0.1028752 
   33100    216.50001    18.452456    131497.22   -44282.546    2642.6895   -46925.236   0.10604622 
   33200    215.23877   0.22852796    131503.97   -44298.051    2627.2942   -46925.345  0.097972793 
   33300    212.10427    -17.83213    131496.96   -44279.186    2589.0332   -46868.219   0.10688849 
   33400    215.30624    3.8092266    131492.72   -44304.226    2628.1178   -46932.344  0.097998645 
   33500    210.37446   -24.004372    131474.55   -44345.184    2567.9184   -46913.103   0.10602322 
   33600     212.7152    -12.93473    131475.95    -44327.15    2596.4905   -46923.641   0.10305125 
   33700    214.39352    17.960687     131499.6   -44298.452    2616.9767   -46915.429  0.099730183 
   33800    220.06962   -22.621497    131521.67   -44199.081    2686.2616   -46885.342   0.10580936 
   33900    217.66987    19.488445    131519.43   -44186.595    2656.9692   -46843.564   0.10281806 
   34000    211.83496    8.1138931    131493.78   -44305.224    2585.7459    -46890.97   0.10663994 
   34100     215.0669    14.696748    131486.37   -44293.981    2625.1963   -46919.177   0.10195641 
   34200    215.30995   -10.202725    131489.43   -44326.014    2628.1631   -46954.177   0.10375644 
   34300    214.53189  -0.28832556    131476.31   -44354.386    2618.6657   -46973.051   0.10592809 
   34400    211.61586    6.2453321    131481.93   -44334.048    2583.0715   -46917.119   0.09870066 
   34500    215.47429    14.522771    131489.06   -44236.582    2630.1691   -46866.751   0.11257067 
   34600    216.05832   -11.645017    131509.13   -44209.374    2637.2979   -46846.672   0.10154034 
   34700    218.98922   -12.736299    131497.13   -44284.149    2673.0738   -46957.223    0.1059481 
   34800    214.43607   -5.6560865    131477.67   -44321.544    2617.4962    -46939.04   0.10157253 
   34900    213.18838    17.698442    131487.51   -44290.795    2602.2663   -46893.062   0.10163536 
   35000    216.83393     6.920438    131481.91   -44303.869    2646.7654   -46950.635   0.10409378 
   35100    216.59964   -16.716191    131483.98   -44277.157    2643.9055   -46921.063   0.10277816 
   35200    217.30764    14.578443    131495.06   -44243.194    2652.5477   -46895.741   0.10524729 
   35300    217.79165   -18.592959    131488.63   -44269.747    2658.4557   -46928.203   0.10296782 
   35400    212.02058   -5.2369347    131491.47   -44301.564    2588.0117   -46889.576   0.10354744 
   35500    216.72928    1.5699423    131475.37   -44310.568    2645.4881   -46956.056   0.10393475 
   35600    217.77896   -9.1709794    131479.28   -44298.622    2658.3009   -46956.923  0.099854081 
   35700    216.67992   -18.880453    131478.56   -44264.513    2644.8855   -46909.399   0.10924983 
   35800    221.85174    39.873612    131503.87   -44166.018    2708.0149   -46874.033    0.0964699 
   35900    216.19833   -7.7205894    131492.06   -44238.618    2639.0071   -46877.625   0.10899666 
   36000    217.37069    38.227088    131482.21   -44290.882    2653.3173   -46944.199  0.096114342 
   36100    215.64136   -14.931739     131472.2   -44321.033    2632.2084   -46953.242   0.10453314 
   36200    218.05195    6.8761456     131465.8   -44306.587     2661.633    -46968.22   0.10237344 
   36300    217.46973    20.760086    131456.13   -44304.671    2654.5262   -46959.198  0.099042071 
   36400    220.22419    7.7434371    131475.93   -44320.426    2688.1483   -47008.574   0.10117081 
   36500    212.48454   -1.9956585    131466.33   -44324.048    2593.6749   -46917.723    0.1033378 
   36600    215.55472     1.307855    131464.97    -44291.86    2631.1509   -46923.011   0.10549534 
   36700    213.84262    3.7913103    131467.74   -44331.036    2610.2522   -46941.288   0.10559632 
   36800    209.79007   -12.949273    131462.39   -44376.771    2560.7851   -46937.556   0.10008402 
   36900    213.18205    2.1531026    131464.56   -44333.986    2602.1891   -46936.175   0.10580967 
   37000     212.7652   0.45282188    131486.02   -44323.646    2597.1008   -46920.747   0.10114461 
   37100     216.0861   -13.707453    131464.11   -44346.188    2637.6371   -46983.825   0.10660364 
   37200    213.97504    10.894215    131473.18   -44351.702    2611.8686    -46963.57  0.098737886 
   37300    212.72584   -14.019069    131474.89   -44359.364    2596.6204   -46955.984   0.10361046 
   37400    211.42945   -16.658422    131464.23   -44379.778     2580.796   -46960.574  0.099198222 
   37500    215.80968    22.789137    131454.74   -44342.861     2634.263   -46977.124   0.10087064 
   37600    212.72438   -7.2176882    131459.03   -44360.923    2596.6025   -46957.526   0.10290225 
   37700    207.76966   -8.1300709    131433.11   -44439.203    2536.1231   -46975.326   0.10012585 
   37800     207.3218    12.614528    131415.87   -44455.239    2530.6564   -46985.896   0.10259291 
   37900    208.33691   -12.878082    131429.79   -44370.066    2543.0473   -46913.113   0.10288929 
   38000    216.16289    11.323982    131448.23   -44308.296    2638.5744   -46946.871   0.10105852 
   38100    214.59388    8.1147541    131447.28   -44305.403    2619.4224   -46924.825   0.10367977 
   38200     213.6645   -17.669424    131463.27   -44272.059     2608.078   -46880.137   0.10344578 
   38300    219.14544    7.8785285     131460.6    -44294.35    2674.9807   -46969.331   0.10288471 
   38400    217.34683    3.0081741    131472.49    -44269.77    2653.0261   -46922.796  0.098924908 
   38500    215.00423   -4.9930647    131466.95   -44290.619    2624.4313    -46915.05   0.10408809 
   38600    216.21236   -22.499276    131460.71   -44281.841    2639.1782   -46921.019   0.10078005 
   38700    217.76656   -17.349674    131470.37   -44265.717    2658.1495   -46923.867   0.10580855 
   38800    213.41992    24.572914    131454.66   -44297.444    2605.0926   -46902.537   0.10058024 
   38900    218.84912    18.758894    131483.16   -44227.632    2671.3636   -46898.995  0.099465832 
   39000    214.18233    11.478634    131473.29   -44261.668    2614.3988   -46876.067   0.10744351 
   39100    210.50079   -18.187767     131464.6   -44283.973    2569.4604   -46853.434    0.1025281 
   39200    215.21756    -4.947645    131451.71   -44367.425    2627.0353   -46994.461   0.10513925 
   39300    212.84965    10.923982     131429.6   -44392.099    2598.1316    -46990.23  0.099668155 
   39400    212.11114    22.176029    131465.29   -44273.259    2589.1171   -46862.376   0.10200056 
   39500    216.72799    14.448463    131477.21   -44295.222    2645.4723   -46940.694   0.10524412 
   39600    214.94098   -10.666899    131484.17   -44274.531    2623.6593    -46898.19   0.10138608 
   39700    218.45296    4.8496238    131480.74   -44283.039    2666.5279   -46949.566   0.10672498 
   39800    214.51764   -16.121235    131463.67   -44301.348    2618.4918    -46919.84   0.10354665 
   39900    216.64697   -2.8460085    131474.77   -44266.923    2644.4833   -46911.407   0.10492462 
   40000    214.45015    32.466963     131464.1   -44294.959    2617.6679   -46912.627   0.10314911 
   40100    215.54567   -21.029288    131467.17   -44316.416    2631.0404   -46947.457    0.1033405 
   40200    213.30727   -1.7234784    131457.27   -44297.779    2603.7176   -46901.497   0.10984244 
   40300    211.27848    10.407205    131451.31    -44342.62    2578.9532   -46921.573   0.10116606 
   40400     209.0145   -34.188377    131448.32   -44371.753    2551.3182   -46923.071   0.10778165 
   40500    214.50845    10.881381    131470.69   -44292.567    2618.3796   -46910.947   0.10095644 
   40600    214.89989   -14.273619    131480.82   -44302.698    2623.1577   -46925.856   0.10572421 
   40700    208.68425   -31.780946    131461.64   -44349.272     2547.287   -46896.559   0.10763926 
   40800    217.12616    -9.633353     131468.9   -44284.419    2650.3325   -46934.751  0.099709774 
   40900    210.80342    21.511282    131475.23   -44331.352    2573.1545   -46904.507   0.10348485 
   41000    216.07696     12.96841     131473.4   -44332.117    2637.5255   -46969.642  0.097890774 
   41100    212.47649    16.450916    131468.27    -44332.42    2593.5766   -46925.997    0.1010158 
   41200    219.22269    8.3054234    131481.87   -44260.581    2675.9236   -46936.504   0.10238483 
   41300    214.31797   -1.7601531    131478.18   -44297.677    2616.0546   -46913.731  0.099784091 
   41400    219.50275   -3.9232351    131478.21   -44282.546    2679.3422   -46961.888   0.10293042 
   41500     219.0789    21.095672    131475.75   -44258.897    2674.1685   -46933.065   0.10043872 
   41600    214.60405    -27.11915    131474.53   -44274.605    2619.5466   -46894.152   0.10739837 
   41700    213.32553    9.5329552    131463.03    -44349.36    2603.9404     -46953.3  0.099143985 
   41800    210.90939   -14.658342     131470.6   -44300.011     2574.448   -46874.459   0.10927597 
   41900    211.32176    8.2768094    131465.81     -44351.6    2579.4816   -46931.081  0.098799297 
   42000    216.07643    17.153514    131468.18   -44329.247    2637.5191   -46966.766   0.10159676 
   42100    213.03816   -7.9651766    131468.53   -44383.482    2600.4327   -46983.915   0.10177459 
   42200    214.47625    7.6125589    131467.74   -44340.452    2617.9866   -46958.438   0.10099106 
   42300    211.95059     12.66881    131466.25   -44324.989    2587.1573   -46912.147   0.10534173 
   42400    209.50763   -12.191327    131470.64   -44329.996    2557.3375   -46887.333   0.10259699 
   42500    216.73295    17.976258    131475.22   -44311.664    2645.5327   -46957.197  0.099839116 
   42600    212.31315    3.2744617    131455.64   -44320.011    2591.5829   -46911.594   0.10731708 
   42700    213.51104   -14.496992    131454.14   -44384.984    2606.2049   -46991.189  0.099871279 
   42800    210.01494    -10.56897    131446.94   -44322.873    2563.5299   -46886.403   0.11095731 
   42900    212.47506   -19.914519    131466.17   -44350.016    2593.5592   -46943.575   0.10181023 
   43000     218.2173   -18.513301    131470.96   -44337.875    2663.6514   -47001.526   0.10470217 
   43100    215.79747   -8.4781223    131459.67   -44298.688     2634.114   -46932.802   0.10159725 
   43200    211.96946   -12.918475    131477.77   -44313.543    2587.3877   -46900.931   0.10659622 
   43300    210.57574   -9.6127244    131452.25   -44344.599    2570.3753   -46914.975   0.10176487 
   43400    218.56256    -1.882231    131462.81   -44292.597    2667.8658   -46960.463   0.10388167 
   43500    216.16521    4.7107728    131476.65   -44298.362    2638.6028   -46936.965   0.10331971 
   43600    215.70101    1.7764081    131471.39    -44317.54    2632.9366   -46950.476  0.098615581 
   43700    207.96366    10.052906    131448.63   -44368.503    2538.4911   -46906.994   0.10307095 
   43800    208.46699   -2.7131923    131449.75    -44383.19     2544.635   -46927.825   0.10212598 
   43900    219.81567    12.383839     131453.6   -44325.815    2683.1617   -47008.977  0.098556706 
   44000    214.49078    5.0804327    131435.07   -44391.978     2618.164   -47010.142   0.10368372 
   44100    211.39724   -16.047212    131445.09   -44395.601     2580.403   -46976.004  0.095748585 
   44200    211.75746  -0.55126078    131445.71   -44332.266    2584.7999   -46917.066   0.10808291 
   44300    215.32727    11.397103    131442.45   -44334.981    2628.3745   -46963.355  0.098989824 
   44400    214.73038    1.4840241    131452.91   -44364.625    2621.0886   -46985.713   0.10321736 
   44500    213.95583   -13.001885    131472.58   -44353.982    2611.6341   -46965.616   0.10014586 
   44600    212.41335   -13.267201    131469.91   -44344.249     2592.806   -46937.056   0.10002744 
   44700    216.11221    14.902715     131466.5   -44329.148    2637.9557   -46967.104   0.10152145 
   44800     213.2715    8.5950416    131474.05   -44330.339    2603.2809    -46933.62  0.099351287 
   44900    212.67596    4.5870958    131484.08   -44310.653    2596.0115   -46906.664   0.10152982 
   45000    214.06429    2.9887471    131482.62   -44317.716     2612.958   -46930.674   0.09876523 
   45100    218.20366    1.5279083    131489.33   -44245.164    2663.4849   -46908.649    0.1013582 
   45200    215.87859     10.86066     131474.6   -44276.116    2635.1041    -46911.22    0.1044888 
   45300     214.6607   -3.9434584    131484.79   -44306.111     2620.238   -46926.349  0.097787429 
   45400    213.38061   -4.4066311    131477.54   -44317.973    2604.6128   -46922.585    0.1078842 
   45500    217.02424    8.3128365    131479.72   -44287.881    2649.0884   -46936.969  0.097881195 
   45600    219.38331     5.741731    131501.94   -44273.141    2677.8842   -46951.025   0.10505259 
   45700    214.16001   -5.1687132    131493.67   -44251.356    2614.1265   -46865.482   0.10402593 
   45800    213.47054   0.46761705    131500.47   -44292.077    2605.7105   -46897.787   0.10235493 
   45900    217.46417    7.4230987    131491.03   -44236.119    2654.4583   -46890.578   0.10577635 
   46000    216.57523    1.2939471    131501.91   -44261.055    2643.6076   -46904.663   0.10145921 
   46100    220.39265    8.8186933    131506.89   -44202.326    2690.2047   -46892.531   0.10333876 
   46200    213.57635   -4.1813629    131504.23   -44246.091    2607.0021   -46853.093   0.10541592 
   46300    213.79459    3.1614199    131500.85   -44221.764    2609.6659    -46831.43   0.10459413 
   46400    215.42635   -8.0658392    131499.92   -44270.323    2629.5839   -46899.907   0.10391569 
   46500    217.55746   -6.3243944    131506.54   -44219.054    2655.5972   -46874.651   0.10221768 
   46600    216.04129   -2.6087539     131490.9   -44295.491    2637.0901   -46932.582   0.10596436 
   46700    216.99701    20.323851    131509.46   -44243.869     2648.756   -46892.625  0.099522574 
   46800    216.84383    2.3699684       131508   -44238.076    2646.8862   -46884.962   0.10648432 
   46900    218.12436    20.221435    131513.54   -44262.657     2662.517   -46925.174  0.098904153 
   47000    212.67684   -1.0052778    131503.24   -44309.245    2596.0223   -46905.267   0.10187376 
   47100    212.64136   -3.4972192    131488.01   -44311.425    2595.5891   -46907.014   0.10063656 
   47200    217.37203    33.117664    131480.21   -44315.769    2653.3337   -46969.102  0.096967252 
   47300    211.82189  0.078807131    131479.29   -44361.833    2585.5864    -46947.42    0.1006257 
   47400    217.19066   -4.9709143     131487.3   -44326.878    2651.1198   -46977.998  0.099701246 
   47500    214.34732   -20.790238     131487.3   -44344.487    2616.4128     -46960.9   0.10071558 
   47600    212.15708   -18.018713    131494.21   -44323.127    2589.6778   -46912.805   0.10132987 
   47700    216.16411   0.83261066    131512.88   -44287.691    2638.5893    -46926.28  0.099499254 
   47800    214.99249    3.2881581    131508.14   -44316.916    2624.2881   -46941.204   0.10115658 
   47900    211.70185   -7.0178158    131497.75    -44353.63    2584.1211   -46937.752   0.10086055 
   48000    214.68027    27.693408    131498.59    -44320.51    2620.4769   -46940.987   0.10153693 
   48100    211.99189    20.442072    131489.29   -44357.161    2587.6615   -46944.823  0.095684377 
   48200    214.40458    3.2815112    131486.49   -44346.093    2617.1118   -46963.204   0.10331447 
   48300    216.90902    16.838577    131494.83   -44326.372     2647.682   -46974.054  0.096206553 
   48400    210.07003    12.529844    131500.51    -44328.94    2564.2024   -46893.142   0.10163445 
   48500    210.88092   -13.782293    131476.16   -44388.125    2574.1005   -46962.225   0.10141437 
   48600    212.73725    1.4278739    131477.08   -44386.104    2596.7596   -46982.864  0.096812606 
   48700    210.61644   -24.251891    131468.27   -44310.802    2570.8722   -46881.674   0.10632947 
   48800    212.80471    13.086231    131485.97   -44320.013    2597.5831   -46917.596  0.098879608 
   48900    214.98604   -22.007184    131485.06   -44306.523    2624.2093   -46930.732   0.10551077 
   49000    209.02316   -15.717127    131475.97   -44338.963    2551.4239   -46890.387   0.10384363 
   49100    213.07083  -0.89453648    131491.55   -44296.004    2600.8314   -46896.835   0.10260913 
   49200    216.35785   -9.5565112    131486.74   -44297.475    2640.9542   -46938.429   0.10615063 
   49300    210.62198   -19.990687    131479.79   -44337.597    2570.9397   -46908.537    0.1016014 
   49400    212.90591    24.040747    131473.58   -44374.143    2598.8183   -46972.961   0.10287422 
   49500    209.94723    14.652916    131481.98   -44314.397    2562.7034     -46877.1    0.1000246 
   49600    211.66515    13.838618     131478.6   -44333.944    2583.6731   -46917.617   0.10165998 
   49700    213.01073    5.5330504    131474.53   -44345.894    2600.0979   -46945.991    0.1002224 
   49800    214.16453    28.296561       131476   -44331.932    2614.1816   -46946.114  0.097658618 
   49900    216.30739    22.976556    131473.57    -44301.39    2640.3382   -46941.728   0.10548956 
   50000    215.49276    23.123728    131486.78    -44306.98    2630.3945   -46937.375  0.094155101 
   50100    217.88507    3.1769946    131501.95    -44219.23     2659.596   -46878.826    0.1044347 
   50200    216.70038  -0.69366664     131494.9   -44277.814    2645.1352   -46922.949   0.10001478 
   50300    216.29553    17.794501    131486.37   -44286.126    2640.1934    -46926.32  0.099074155 
   50400    213.22147    20.091043    131479.05   -44300.378    2602.6703   -46903.049   0.10450534 
   50500    214.83255   -0.7249675    131485.18   -44259.626    2622.3357   -46881.962    0.1009171 
   50600    220.58157    -5.440257       131503   -44181.051    2692.5107   -46873.562   0.10550771 
   50700    214.15414   -23.888378    131476.31   -44354.212    2614.0548   -46968.267   0.10086006 
   50800    211.35747   -8.7558784    131475.14   -44363.184    2579.9174   -46943.101   0.09824542 
   50900    211.63752    -16.87787    131467.43   -44364.627    2583.3358   -46947.963   0.10288322 
   51000    211.44658   -3.5746433    131477.33   -44339.574    2581.0051   -46920.579   0.09959453 
   51100    216.33161    7.2930313    131473.97   -44337.832    2640.6339   -46978.466   0.10109594 
   51200    212.09786    16.221141    131462.15   -44373.805     2588.955    -46962.76   0.09548843 
   51300    212.87944   -4.5610276    131458.73   -44386.261    2598.4952   -46984.756   0.10057077 
   51400    212.62327    1.7906529    131468.29   -44336.906    2595.3683   -46932.274  0.098586135 
   51500    212.70387   -18.740354    131467.17   -44361.458    2596.3522    -46957.81   0.10305432 
   51600    214.27533    8.2698517    131465.55   -44321.536    2615.5341    -46937.07   0.10119825 
   51700    217.50509   -9.2769616    131482.61   -44280.051    2654.9579   -46935.009   0.10089979 
   51800    215.89966    12.000856    131488.57   -44274.644    2635.3614   -46910.005   0.10119073 
   51900     216.1457  -0.80057067    131481.06   -44318.741    2638.3646   -46957.106     0.100207 
   52000    215.58418    25.238204    131466.79   -44318.299    2631.5104   -46949.809  0.099204301 
   52100    209.63004    12.206386    131463.93   -44374.677    2558.8318   -46933.509   0.10126596 
   52200    212.49041   -9.7762343    131455.15   -44397.633    2593.7466    -46991.38  0.096613186 
   52300    211.84924   -21.624463    131453.43   -44392.648    2585.9202   -46978.568  0.099755283 
   52400    206.42992    1.5046209    131443.46   -44449.067    2519.7698   -46968.837  0.095307071 
   52500    212.11293    17.788697     131443.3    -44358.69    2589.1389   -46947.829   0.10111052 
   52600    213.98938    16.338265    131485.64   -44303.806    2612.0437    -46915.85  0.098335234 
   52700     213.4202    1.1909065    131491.59   -44313.894     2605.096    -46918.99   0.10223666 
   52800    213.75174    7.0427211    131514.28   -44235.177    2609.1429    -46844.32   0.09872775 
   52900    218.03063    20.349112    131516.03   -44276.734    2661.3728   -46938.106   0.10007375 
   53000    218.37761    4.6201957       131515    -44253.07    2665.6082   -46918.678   0.10056405 
   53100     212.8673    17.542966     131488.5   -44338.231    2598.3471   -46936.578  0.098429196 
   53200    209.34222    14.623497    131488.06   -44375.992    2555.3185    -46931.31  0.099119284 
   53300    212.61001    5.9540689    131482.71   -44367.477    2595.2065   -46962.684  0.098603436 
   53400    211.28779   -13.204766    131494.42   -44307.497     2579.067   -46886.564   0.10062299 
   53500    217.25496    5.9982293    131504.02   -44282.668    2651.9047   -46934.573   0.10009086 
   53600    217.88661   -8.2573775    131502.18     -44345.6    2659.6148   -47005.215  0.094819917 
   53700    214.55819   -15.388012    131500.94   -44314.584    2618.9867    -46933.57   0.10119771 
   53800     216.4329    24.106361    131484.44    -44341.54    2641.8703    -46983.41   0.09310215 
   53900    212.90483   -10.292249    131491.38    -44346.67    2598.8052   -46945.475   0.10153498 
   54000    213.32999    22.174359    131487.11   -44367.243    2603.9948   -46971.238  0.095633652 
   54100     210.0633    3.8981895    131493.71    -44326.94    2564.1202    -46891.06   0.10094998 
   54200    217.19407    10.497802    131500.49   -44289.142    2651.1614   -46940.303   0.10025465 
   54300    218.94003    24.047364    131520.13   -44241.636    2672.4733    -46914.11  0.098541118 
   54400    220.98569     8.613378    131527.28   -44212.612    2697.4435   -46910.055   0.10280104 
   54500    216.60648    3.3870343    131527.79   -44260.431     2643.989    -46904.42  0.099135601 
   54600    214.68122    14.426083    131523.73   -44246.901    2620.4885    -46867.39   0.10272851 
   54700    214.99758    3.3880411    131512.37   -44270.912    2624.3502   -46895.262   0.10032865 
   54800    217.58993    3.4721831    131532.84   -44254.996    2655.9935   -46910.989   0.09521354 
   54900    216.96903    1.4027771    131534.54   -44262.612    2648.4144   -46911.026   0.10224735 
   55000    216.26268    7.8891465    131540.08   -44278.461    2639.7925   -46918.253  0.093993688 
   55100    216.24067   -13.354375     131535.8   -44280.144    2639.5238   -46919.668   0.10280913 
   55200    211.77615   0.96350782    131510.02   -44378.416     2585.028   -46963.444  0.093913861 
   55300    207.87203   -8.3992372    131491.82   -44415.481    2537.3727   -46952.854  0.095833826 
   55400    213.35222    6.6014725    131489.27   -44366.511    2604.2662   -46970.778  0.097460585 
   55500    213.52704    16.553322    131501.43   -44368.229    2606.4002   -46974.629  0.094916301 
   55600     218.3386   -1.8354266    131519.45   -44284.385    2665.1321   -46949.517  0.099475524 
   55700    213.00966   -9.5263976    131531.34   -44247.364    2600.0848   -46847.449   0.10137463 
   55800    220.03913   -1.1234232    131547.77   -44238.995    2685.8894   -46924.884  0.097606638 
   55900     217.3123   0.97660515    131535.25   -44263.747    2652.6046   -46916.351  0.097365792 
   56000    215.02746   -1.5962984    131542.01   -44267.388    2624.7148   -46892.103  0.096609793 
   56100     219.4404    17.661151    131533.78   -44254.906    2678.5811   -46933.487   0.10004109 
   56200    215.46262  -0.24281774     131531.8   -44271.123    2630.0266   -46901.149  0.095434713 
   56300    216.26254    2.4943017    131515.41   -44335.438    2639.7908   -46975.229  0.098938407 
   56400    213.36757    23.698371    131491.84     -44358.3    2604.4536   -46962.754  0.093785413 
   56500    207.06942     2.898273    131479.04   -44396.093    2527.5758   -46923.669  0.096974206 
   56600    210.14491    13.876478    131482.11   -44428.574    2565.1164   -46993.691  0.096842907 
   56700    211.05118   0.16460207    131478.97   -44387.717    2576.1787   -46963.896  0.096808737 
   56800    216.31854   0.68589522    131503.04   -44314.489    2640.4743   -46954.963  0.099603251 
   56900    209.88116   -12.777269    131505.12   -44396.854     2561.897   -46958.751  0.097158266 
   57000    210.73633   -13.603799    131494.08   -44412.107    2572.3355   -46984.443  0.096887157 
   57100    218.36329   -6.1083587    131509.63   -44325.458    2665.4334   -46990.892  0.099510491 
   57200    214.92399   -8.6233116     131528.1   -44303.341    2623.4519   -46926.793  0.095962188 
   57300     214.2841   -18.731522    131499.15   -44392.883    2615.6411   -47008.524  0.096142883 
   57400    216.24563    11.192643    131510.48   -44324.874    2639.5843   -46964.458  0.096683462 
   57500    213.23418   -18.312441    131518.89   -44321.367    2602.8254   -46924.192    0.0984724 
   57600    212.28984   -3.3247185    131495.35   -44373.926    2591.2984   -46965.225  0.095552038 
   57700    216.23825    -23.42066    131508.14   -44342.562    2639.4943   -46982.056  0.098918558 
   57800    219.24418    10.810413    131515.29   -44283.158     2676.186   -46959.344  0.095008866 
   57900    212.78278    6.1326348    131500.68   -44332.702    2597.3153   -46930.017  0.097785994 
   58000    217.62163   0.31943562    131509.96   -44281.108    2656.3804   -46937.488   0.10071737 
   58100    213.69273  -0.42709824    131497.32   -44330.058    2608.4226    -46938.48  0.098814634 
   58200    220.12486    13.662444    131514.55   -44216.809    2686.9358   -46903.745   0.10221236 
   58300    216.10695   -11.039576    131515.11   -44273.562    2637.8916   -46911.453   0.10068794 
   58400    211.01412   -22.056145    131496.97   -44301.808    2575.7264   -46877.534   0.10244963 
   58500    212.58564    22.443427    131492.73   -44316.054     2594.909   -46910.963  0.097433781 
   58600    213.63892   -1.0947381     131486.1   -44348.614    2607.7658   -46956.379  0.099813022 
   58700    214.18654   -16.873615    131486.37   -44315.531    2614.4503   -46929.981   0.10226807 
   58800    218.47424 -0.0075419611    131488.96    -44321.57    2666.7877   -46988.357  0.097634093 
   58900    217.67907    16.612408    131508.04   -44281.692    2657.0816   -46938.773  0.099857712 
   59000    221.19678    4.0354826     131524.6   -44222.926    2700.0201   -46922.946  0.096805378 
   59100    217.24247     26.47996    131515.12   -44232.445    2651.7523   -46884.197   0.10181439 
   59200    214.72091   -18.076994    131506.16   -44292.356    2620.9731   -46913.329     0.100216 
   59300    212.52474    6.9428722    131497.26   -44302.613    2594.1657   -46896.779  0.099346968 
   59400    216.59269    8.2032983    131513.19   -44291.036    2643.8207   -46934.856   0.10096364 
   59500    212.77616   -1.0924283    131510.34       -44366    2597.2345   -46963.234  0.093120012 
   59600    213.29148    19.421789     131490.8   -44317.335    2603.5248   -46920.859  0.099917194 
   59700    214.07474   -16.530654    131501.57   -44282.263    2613.0856   -46895.349  0.099389686 
   59800    215.79152    27.753413    131491.69   -44382.296    2634.0413   -47016.337  0.093696008 
   59900    211.36186   -3.8151165    131488.45   -44378.223    2579.9711   -46958.194  0.096685549 
   60000    215.08164   -6.2016448    131497.68   -44342.729    2625.3762   -46968.106  0.097061604 
   60100    211.88445   -3.8001263    131490.75   -44333.462      2586.35   -46919.812   0.10005436 
   60200    216.47884    24.941227    131492.26   -44305.253    2642.4311   -46947.684  0.095729242 
   60300    215.51954    11.262303    131518.79   -44267.158    2630.7214    -46897.88  0.099993226 
   60400    218.47049    9.3203515    131522.99   -44236.934    2666.7419   -46903.675  0.099963819 
   60500    214.43253   -6.6563616    131534.18   -44231.519    2617.4529   -46848.972   0.10222218 
   60600    216.27284   -17.050452    131521.79   -44301.283    2639.9164   -46941.199   0.10244705 
   60700    220.26869     17.51846    131531.17   -44197.274    2688.6915   -46885.965   0.10093089 
   60800    223.66625    14.288799    131541.52   -44201.264    2730.1635   -46931.427   0.10056228 
   60900    218.75431   -35.388107    131534.56   -44238.709    2670.2064   -46908.916  0.099779649 
   61000    216.18638   -6.8137436    131506.08   -44303.373    2638.8612   -46942.234    0.1002417 
   61100    215.01892    -6.034847    131508.11   -44259.931    2624.6106   -46884.542   0.10339994 
   61200    217.19394    21.354639    131517.86   -44272.744    2651.1599   -46923.904  0.098025535 
   61300    212.71618   -9.1788719    131510.53   -44288.523    2596.5024   -46885.025   0.10118788 
   61400    213.03094     -5.10918    131509.97   -44301.614    2600.3445   -46901.958  0.098206584 
   61500    218.75971    8.5919771     131504.7   -44295.137    2670.2723    -46965.41  0.097390786 
   61600    214.71528 -0.0044548177    131486.83   -44336.352    2620.9043   -46957.256    0.1008778 
   61700    211.48497   -4.8036355    131486.69   -44346.808    2581.4737   -46928.282  0.098735204 
   61800    213.24728   -6.5492902    131488.41   -44344.254    2602.9853   -46947.239   0.10025645 
   61900    211.99519    14.076025    131493.32   -44275.564    2587.7018   -46863.266  0.098473505 
   62000    216.78694    8.5966272    131509.47   -44299.016    2646.1918   -46945.208   0.09744637 
   62100    215.78127    14.728593    131491.13   -44312.274    2633.9162    -46946.19  0.096118475 
   62200    216.27262     3.926095    131496.48   -44249.252    2639.9138   -46889.166   0.10122943 
   62300    214.56073    4.7595239    131493.97   -44327.569    2619.0178   -46946.587  0.098029102 
   62400    213.22062    16.312031    131495.52   -44326.519    2602.6598   -46929.179  0.096500478 
   62500    213.80909   -9.5580353    131495.12   -44324.049     2609.843   -46933.892  0.096949524 
   62600     214.9612    4.9225589    131487.64   -44346.779     2623.906   -46970.685  0.096695253 
   62700    214.10989   -8.0516553    131478.37   -44337.979    2613.5146   -46951.494  0.098786424 
   62800    213.90299    23.864399    131473.32   -44340.668    2610.9891   -46951.657  0.097669954 
   62900    217.62707     24.29642    131491.74   -44302.485    2656.4468   -46958.932  0.096979624 
   63000    210.94473   -5.4534225    131482.78   -44335.695    2574.8794   -46910.574   0.10030102 
   63100    211.06869    6.4425176    131457.74   -44375.163    2576.3925   -46951.555  0.099760383 
   63200     214.9566    24.055343    131471.05   -44280.061    2623.8499   -46903.911   0.10022674 
   63300    212.75232   -24.557176    131465.83    -44347.12    2596.9436   -46944.063   0.10172825 
   63400     211.0126   -26.001617    131461.05   -44396.509    2575.7078   -46972.217  0.099719567 
   63500     214.6941    3.8627879    131461.55   -44360.755    2620.6457     -46981.4   0.09681588 
   63600    208.69084   -21.096907    131462.91   -44413.547    2547.3674   -46960.915   0.10119047 
   63700    213.29528   -15.195448    131458.81   -44421.658    2603.5712   -47025.229  0.096367087 
   63800    212.33697    14.967292    131448.03   -44436.406    2591.8736   -47028.279  0.097226624 
   63900    211.64058   -21.588544    131470.15   -44363.884    2583.3732   -46947.257  0.099712555 
   64000    216.17265    1.2058927    131473.82   -44307.342    2638.6935   -46946.036  0.099100166 
   64100    212.10443    -3.476613    131477.89    -44286.64    2589.0351   -46875.675   0.10416868 
   64200    213.89755    1.5822148    131492.21   -44263.049    2610.9227   -46873.972   0.10167776 
   64300    214.56107   -7.2040623    131486.76   -44271.739    2619.0219   -46890.761   0.10263016 
   64400    211.60752   -10.198031    131482.15   -44334.132    2582.9696   -46917.101   0.10106766 
   64500    213.55243    9.4838679    131480.75   -44320.573    2606.7101   -46927.283  0.097860047 
   64600    214.47449     10.16724    131480.76   -44368.588    2617.9651   -46986.553   0.10003048 
   64700    213.92805    1.8831174    131469.24   -44384.513     2611.295   -46995.808  0.096153688 
   64800    212.12757    20.679584    131471.28    -44328.97    2589.3176   -46918.287   0.10130873 
   64900    218.69046    9.0518122    131483.32    -44282.27     2669.427   -46951.697   0.09682176 
   65000    217.82321    34.304678    131499.92   -44265.189    2658.8409    -46924.03  0.096791449 
   65100    215.20302  -0.11301443    131490.01    -44303.26    2626.8578   -46930.118  0.099906945 
   65200    214.76773    14.681222    131480.53   -44319.914    2621.5444   -46941.459  0.096607186 
   65300     215.8521   -20.069921     131486.6   -44252.661    2634.7807   -46887.442   0.10390602 
   65400    213.77641   -17.685446    131480.13   -44291.087    2609.4441   -46900.531  0.099569231 
   65500    219.60674    38.690283    131489.94   -44239.932    2680.6115   -46920.543  0.099708345 
   65600    216.62558    1.2105845    131493.42   -44236.894    2644.2222   -46881.116   0.10347279 
   65700    216.72911   -16.445578    131506.78   -44242.204    2645.4859    -46887.69   0.10131405 
   65800    214.17793   -5.2342314    131490.61   -44275.848    2614.3451   -46890.193   0.10665584 
   65900    217.22803    1.0375209    131498.44   -44290.602    2651.5759   -46942.178  0.098322164 
   66000    218.62884    10.601888    131488.17   -44283.758    2668.6748   -46952.433   0.10064139 
   66100    211.13061   -4.9344811    131479.52    -44308.77    2577.1483   -46885.918   0.10156143 
   66200    211.27771   -2.8666214    131480.55   -44361.282    2578.9438   -46940.226  0.099159397 
   66300    216.33513    2.1066436    131476.17    -44352.54    2640.6769   -46993.217  0.099977523 
   66400    212.04606   -12.237661    131476.84   -44336.005    2588.3227   -46924.328   0.10077032 
   66500    211.74332   -11.941551     131489.1   -44317.249    2584.6273   -46901.877   0.10201192 
   66600    214.29528   -4.1766815    131486.35   -44347.709    2615.7776   -46963.486  0.097565389 
   66700    213.07322   -27.900513    131478.72   -44343.467    2600.8606   -46944.327   0.10195336 
   66800    213.26981    26.528787    131473.34   -44371.479    2603.2602   -46974.739  0.099499756 
   66900    213.28929    20.304413    131476.39   -44354.637    2603.4981   -46958.136  0.098427932 
   67000    213.14256   -6.5690278    131469.77   -44437.419     2601.707   -47039.126  0.098230265 
   67100    216.09547    10.337793    131481.51   -44307.352    2637.7514   -46945.103  0.097960897 
   67200    213.87969   -9.4238704    131481.02   -44347.311    2610.7047   -46958.016    0.1004213 
   67300    214.43899  -0.69318584     131485.4   -44345.145    2617.5318   -46962.676  0.097594359 
   67400    216.34365   -13.735961    131497.41   -44318.133    2640.7809   -46958.914  0.097158909 
   67500    214.54765   -6.2609571    131491.63   -44303.707    2618.8581   -46922.565   0.09998849 
   67600    219.49688    23.874362    131510.04   -44217.649    2679.2704   -46896.919  0.097284105 
   67700    214.80774    14.358752    131502.91   -44253.196    2622.0328   -46875.229   0.10008345 
   67800    214.90773   -4.2746361    131501.93   -44286.373    2623.2534   -46909.626   0.10046509 
   67900    216.81953    15.689947    131499.49   -44301.077    2646.5896   -46947.666   0.09737115 
   68000    217.43652     7.842883    131484.01   -44335.578    2654.1208   -46989.699  0.096858452 
   68100     213.0009    4.6179139     131476.9   -44338.923    2599.9778   -46938.901   0.10018154 
   68200    213.01965    26.659784    131478.92     -44344.2    2600.2067   -46944.406  0.098050861 
   68300    214.34974    6.9987256     131491.5   -44287.567    2616.4424    -46904.01   0.09986312 
   68400    219.44432    14.020402    131502.75   -44235.864    2678.6289   -46914.493   0.10032776 
   68500    217.97757    9.6043393    131507.06   -44261.317    2660.7252   -46922.042  0.099949413 
   68600    217.70622    2.7914057    131501.54   -44281.136    2657.4129   -46938.549   0.10107562 
   68700    216.57164     2.942224    131486.58   -44307.717    2643.5637   -46951.281  0.099671978 
   68800    216.51704   -19.976848    131491.05   -44303.596    2642.8974   -46946.494   0.10041654 
   68900    216.15295    27.196132    131484.72   -44297.781    2638.4531   -46936.234   0.09821668 
   69000    215.96627   0.39611674    131489.58   -44290.769    2636.1744   -46926.943  0.099436278 
   69100    209.85684   -16.966605    131481.53   -44372.737    2561.6001   -46934.337   0.10076448 
   69200    210.51909   -8.3607107    131484.06   -44352.534    2569.6838   -46922.218   0.10070156 
   69300    212.01134    4.3803294    131473.35   -44363.904    2587.8988   -46951.803   0.10045281 
   69400    212.51791     -17.0956    131472.33   -44407.933    2594.0822   -47002.016  0.096893951 
   69500     213.3043   -4.1811379    131472.16   -44359.784    2603.6812   -46963.465   0.10012869 
   69600     214.7477    15.318705    131516.59   -44220.822       2621.3   -46842.122   0.10134734 
   69700    217.40509   -11.633943    131506.22   -44279.502    2653.7372   -46933.239  0.098869624 
   69800    214.81819   -0.8880448    131487.15   -44319.318    2622.1604   -46941.478   0.10196101 
   69900    215.05547   -6.6740063    131488.07   -44366.708    2625.0568   -46991.765  0.095588559 
   70000    214.76621   -15.373757    131483.48   -44307.969     2621.526   -46929.495   0.10055377 
   70100    209.89883   0.83251657    131479.84   -44385.994    2562.1127   -46948.107  0.095081338 
   70200    217.17924     29.62107    131490.21   -44295.472    2650.9804   -46946.453  0.096619268 
   70300    213.81951    8.1259795    131504.37   -44330.522    2609.9702   -46940.492  0.099684978 
   70400    217.09701    -2.469195    131524.56   -44236.474    2649.9766   -46886.451  0.098337744 
   70500    214.71981    19.623708    131511.76   -44309.248    2620.9596   -46930.208  0.098007205 
   70600    213.98704   -5.8826083    131510.28   -44310.354    2612.0151   -46922.369  0.098283887 
   70700    216.05716    11.086189    131497.88   -44314.126    2637.2838    -46951.41  0.096500197 
   70800    211.36764   -1.3017213    131508.06   -44334.525    2580.0416   -46914.567  0.099541246 
   70900    211.84579   -30.136783    131500.61   -44356.877    2585.8781   -46942.755  0.097278683 
   71000    213.98281   -4.7747235    131498.69   -44330.085    2611.9634   -46942.049   0.10021694 
   71100    211.30169    8.5272111    131488.88   -44372.022    2579.2366   -46951.258  0.095594774 
   71200    216.81755    15.287641    131496.16    -44319.97    2646.5655   -46966.535  0.096792549 
   71300    212.38239    6.9846821    131477.92   -44393.447     2592.428   -46985.875   0.09491331 
   71400    213.83971    7.4813794    131486.37   -44346.544    2610.2167   -46956.761  0.095587747 
   71500     214.7546   -3.6622674    131495.72   -44315.877    2621.3842   -46937.261  0.099705885 
   71600    216.76344    12.665377    131498.87   -44305.492     2645.905   -46951.397  0.095611928 
   71700    213.71238    12.004447    131506.22   -44329.414    2608.6625   -46938.077  0.097996448 
   71800    212.47563   -6.7465878    131499.07   -44400.448    2593.5661   -46994.014   0.09577578 
   71900    209.74773    -19.64199    131473.14   -44404.048    2560.2683   -46964.316  0.096284913 
   72000    207.56021   -27.676421    131478.76   -44392.628    2533.5665   -46926.195    0.1024189 
   72100    215.01278    5.0568837    131505.85     -44294.9    2624.5357   -46919.436  0.096468059 
   72200    220.32792    3.7618718    131531.68   -44205.159    2689.4145   -46894.573   0.10170443 
   72300    218.56293   -26.286681    131550.67   -44163.316    2667.8704   -46831.187   0.10389316 
   72400    213.29117    8.9438404    131532.24    -44278.37     2603.521   -46881.891  0.096721135 
   72500    208.98975   -28.579548    131522.91   -44281.857     2551.016   -46832.873   0.10420586 
   72600    218.54745     6.073034    131540.52   -44232.535    2667.6814   -46900.217  0.097894912 
   72700    214.95536    1.7079113    131517.11   -44312.259    2623.8347   -46936.094  0.099305893 
   72800     215.2877   -7.2700368    131512.86   -44299.332    2627.8915   -46927.223  0.098699282 
   72900    214.98968   -6.0658575     131513.6   -44285.544    2624.2537   -46909.797   0.10072097 
   73000    214.99901    4.9379392    131495.07   -44314.511    2624.3676   -46938.879  0.098956258 
   73100    214.01506    10.372964    131497.24   -44300.565    2612.3571   -46912.922   0.10034788 
   73200     220.3214    25.483315     131514.1   -44235.601    2689.3349   -46924.936  0.097764874 
   73300    217.75131    22.198111    131524.01   -44199.944    2657.9633   -46857.907    0.1020429 
   73400    221.55191    9.1574503    131526.83   -44213.994     2704.355   -46918.349   0.10093668 
   73500    222.73016     21.57111    131528.02   -44198.056    2718.7372   -46916.794  0.099639032 
   73600    219.09636   -3.6068211    131522.36   -44226.682    2674.3816   -46901.063   0.10000326 
   73700    215.74553   -11.001857    131502.97   -44304.985      2633.48   -46938.465  0.098317147 
   73800    208.60419   -3.9386962    131491.01   -44364.192    2546.3098   -46910.502  0.098480833 
   73900    209.06993   -32.688458    131497.19   -44335.064    2551.9948   -46887.058   0.10000964 
   74000    215.69051   -8.4251823    131503.07   -44325.358    2632.8083   -46958.166  0.096620699 
   74100    223.35428   -3.6959925    131530.62   -44211.192    2726.3555   -46937.548  0.098503148 
   74200    217.87501     -13.6848    131539.98   -44288.498    2659.4733   -46947.971  0.095696882 
   74300    214.30271    14.336296    131510.66   -44327.214    2615.8683   -46943.083  0.098183831 
   74400    211.44582    8.2823452    131495.28    -44300.28    2580.9959   -46881.276  0.097945007 
   74500    213.37829    4.0115113    131491.46   -44350.372    2604.5844   -46954.956  0.099868876 
   74600    213.45467  -0.16548185    131509.48   -44316.339    2605.5167   -46921.856  0.096711181 
   74700    217.23505    19.510324    131517.16   -44275.816    2651.6617   -46927.478  0.098113951 
   74800    211.89121   -19.998596    131506.42   -44323.108    2586.4324    -46909.54   0.10111268 
   74900    216.03007    25.203775    131512.04   -44293.341    2636.9531   -46930.294  0.096836554 
   75000    213.92192   -14.638257    131503.41   -44331.885    2611.2202   -46943.105  0.099788037 
   75100    218.73816    23.948043    131523.25   -44263.595    2670.0092   -46933.604  0.097583646 
   75200    214.04795   -2.4012365    131530.06   -44272.127    2612.7586   -46884.886  0.099284249 
   75300     213.8039    3.2360074    131519.27    -44323.22    2609.7796       -46933  0.098935427 
   75400    214.24607   -1.1996609     131504.6   -44339.165    2615.1769   -46954.342  0.095811941 
   75500    212.27295    -9.300742     131492.4   -44351.338    2591.0922    -46942.43   0.10067473 
   75600    215.36056    18.036597    131509.04   -44295.025    2628.7809   -46923.806  0.096664166 
   75700    215.88285    17.735284    131523.12   -44237.105    2635.1562   -46872.262   0.10128139 
   75800    217.77924    6.8393986    131530.14    -44229.61    2658.3042   -46887.914   0.10040278 
   75900    214.17104    5.8822876    131516.41   -44274.434     2614.261   -46888.695  0.098852426 
   76000     212.4209   -11.907781     131518.9   -44263.405    2592.8981   -46856.304    0.1023473 
   76100    213.97522   -11.537961    131502.13   -44332.943    2611.8708   -46944.813  0.098702665 
   76200    209.47365   -8.3264066       131491   -44371.781    2556.9227   -46928.704  0.099193706 
   76300    214.74337    7.2792949    131501.62   -44339.198    2621.2471   -46960.445  0.096904989 
   76400    209.96883    17.442111    131484.71   -44344.848    2562.9672   -46907.815  0.098621597 
   76500    213.30043    10.258473    131496.47   -44311.677    2603.6341   -46915.311   0.10098662 
   76600    217.72861    19.895007    131493.93   -44304.004    2657.6862    -46961.69  0.095410442 
   76700    217.99749    20.853286    131497.71   -44279.459    2660.9683   -46940.428   0.10031261 
[...]
   81900    216.16931   -4.1797973    131459.98   -44350.617    2638.6528    -46989.27  0.097048518 
   82000     215.0922    20.365518    131469.15   -44303.437    2625.5051   -46928.942  0.099288956 
   82100    215.43825    2.5127747    131497.76   -44267.136    2629.7291   -46896.866  0.099243775 
   82200     217.1339    12.439852    131493.02   -44237.111     2650.427   -46887.538   0.10277466 
   82300    218.13859  0.006892745    131488.49   -44310.475    2662.6907   -46973.166  0.096723496 
   82400    216.70368    14.370165    131489.69   -44251.579    2645.1755   -46896.754   0.10158586 
   82500    214.86343    22.463598    131519.73   -44169.101    2622.7127   -46791.814   0.10067793 
   82600    218.00952   -17.744841    131517.86   -44211.926    2661.1152   -46873.041   0.10127465 
   82700    211.71417   -3.5496989    131489.63   -44299.444    2584.2715   -46883.716  0.098984935 
   82800     213.9357    30.234881    131477.24   -44297.837    2611.3884   -46909.225  0.097493417 
   82900    214.44516    9.2774689    131481.49    -44271.56     2617.607   -46889.167   0.10375126 
   83000    216.65655     22.79532     131497.8   -44243.656    2644.6003   -46888.256  0.099363208 
   83100    219.24792    -12.00731     131495.2   -44227.903    2676.2316   -46904.134   0.10294911 
   83200    216.49534   -22.596063    131494.89   -44272.456    2642.6324   -46915.089   0.10043984 
   83300    218.16584 0.0062082547    131490.82   -44293.952    2663.0232   -46956.975  0.096893663 
   83400    215.37961    3.2293512    131483.45   -44295.131    2629.0134   -46924.144   0.10242624 
   83500    210.47977   -3.6046453    131470.62   -44388.399    2569.2039   -46957.603  0.097018151 
   83600    212.55381   -7.1900144     131479.1   -44366.773    2594.5204   -46961.293  0.098671988 
   83700    213.23553   -28.825328    131481.04   -44366.547    2602.8418   -46969.389  0.099623681 
   83800    211.71461   -23.276681    131478.82    -44353.69    2584.2768   -46937.967  0.099061731 
   83900    214.17145   -8.5303659    131486.68   -44334.307    2614.2661   -46948.573  0.098109641 
   84000     212.4171     14.00081    131489.63   -44337.368    2592.8518   -46930.219  0.097066832 
   84100    215.54556     2.893281    131489.88   -44308.181    2631.0391    -46939.22   0.09867776 
   84200    214.77861    26.066719    131490.25   -44290.447    2621.6774   -46912.125  0.099651514 
   84300    216.63797    5.7515208    131482.61    -44336.12    2644.3734   -46980.494  0.097241431 
   84400    213.92673    10.097144    131487.19   -44330.576    2611.2789   -46941.855  0.097716836 
   84500    212.81499    8.1106947     131485.8   -44338.198    2597.7085   -46935.907  0.097929282 
   84600    214.87708   -9.4736611    131497.26   -44288.848    2622.8792   -46911.727   0.10051254 
   84700    213.38842   -6.6719526    131494.88   -44303.083    2604.7081   -46907.791   0.10091552 
   84800     214.8712   -8.7377519    131485.11   -44298.789    2622.8075   -46921.596   0.10073339 
   84900      215.372    4.4918277    131502.92   -44246.283    2628.9205   -46875.204   0.10223644 
   85000    217.65317    5.0459501    131506.72   -44300.996    2656.7654   -46957.762  0.095556392 
   85100    214.17703    4.9255491    131489.93   -44319.739    2614.3341   -46934.073   0.10004704 
   85200    212.99961    9.9503841     131503.3   -44305.216    2599.9621   -46905.178  0.099216804 
   85300    214.76981    5.2548188    131495.87    -44308.11    2621.5698    -46929.68  0.097755428 
   85400    209.03263   -6.8879195    131476.68   -44350.528    2551.5395   -46902.068   0.10275137 
   85500    213.59163    2.6718346    131485.81   -44318.439    2607.1886   -46925.627  0.097032197 
   85600    214.67453    17.285117    131477.41   -44339.984    2620.4069   -46960.391  0.097411338 
   85700    214.02374    17.475721    131487.97    -44334.03     2612.463   -46946.493  0.099564775 
   85800    215.48604    19.021414    131490.43    -44306.08    2630.3125   -46936.392  0.097527728 
   85900    213.87722    -3.122982    131495.02   -44269.755    2610.6746    -46880.43   0.10373849 
   86000    214.23373   -6.1778122    131497.16   -44314.194    2615.0263    -46929.22  0.097555791 
   86100    216.82252   -9.9358582    131498.45   -44287.917    2646.6261   -46934.543  0.098699153 
   86200    214.98159   -15.856242    131503.46   -44296.742     2624.155   -46920.897   0.10098623 
   86300    212.27612    6.0518659     131494.6   -44314.223    2591.1309   -46905.354  0.096660951 
   86400    211.93624   -9.6848331    131498.89   -44342.372    2586.9822   -46929.354  0.099616959 
   86500    210.57997   -25.065062     131493.9   -44379.002    2570.4269   -46949.429  0.098590626 
   86600    215.87374    15.713172    131499.22   -44282.197     2635.045   -46917.242  0.096701656 
   86700    216.45884   -19.635449    131514.45   -44293.637    2642.1869   -46935.824    0.1001525 
   86800    214.17664   -1.4883374    131514.09   -44341.223    2614.3294   -46955.553  0.095341649 
   86900     216.4287    3.2969925     131505.5   -44311.004     2641.819   -46952.823   0.10102146 
   87000    216.88978    28.498292    131496.26   -44282.353    2647.4471     -46929.8  0.097258684 
   87100    216.54461     13.83467    131496.31   -44312.373    2643.2339   -46955.607  0.098103896 
   87200    213.50438   -2.2965498    131495.89   -44283.229    2606.1235   -46889.353   0.10130313 
   87300    220.36314    17.953156    131503.93   -44263.068    2689.8444   -46952.913  0.098960714 
   87400    214.50675    11.019482    131491.64   -44298.977    2618.3589   -46917.336   0.10262074 
   87500    214.62839   -14.531239    131505.52   -44273.046    2619.8437    -46892.89   0.10114217 
   87600    213.31799   -9.7232581    131506.45   -44295.401    2603.8484   -46899.249   0.10044439 
   87700    218.26154   -20.623702    131500.89   -44288.859    2664.1914   -46953.051   0.10095878 
   87800    212.99449   -20.104764    131494.86   -44314.261    2599.8996    -46914.16  0.098573677 
   87900    213.77826     8.652488    131477.82   -44349.783    2609.4666    -46959.25   0.10201865 
   88000    210.74848   -2.7169609    131500.25    -44319.59    2572.4838   -46892.074  0.099093738 
   88100    216.19539    1.3219913    131494.29    -44294.18    2638.9712   -46933.151  0.099736504 
   88200    209.36406    9.5404441    131488.16   -44359.389     2555.585   -46914.974  0.099026361 
   88300    214.07719   -3.0921778    131497.43   -44341.335    2613.1155    -46954.45  0.095943715 
   88400    213.85672  -0.61351842    131506.61   -44294.862    2610.4243   -46905.286   0.10087108 
   88500    218.39285    -2.840702    131498.82    -44332.85    2665.7942   -46998.645   0.10072746 
   88600    211.55577    15.901725       131491   -44311.478     2582.338   -46893.816  0.098807596 
   88700    215.95525    7.5065051    131504.04   -44299.696    2636.0399   -46935.736   0.10160198 
   88800    212.00026   -17.116594    131509.43   -44329.014    2587.7636   -46916.778  0.098378735 
   88900    209.83719   -6.2769608    131493.43   -44329.523    2561.3603   -46890.883   0.10060266 
   89000    215.02621     3.262152    131504.24    -44288.28    2624.6996   -46912.979   0.10118716 
   89100    217.62301    8.9316429    131500.09   -44323.619    2656.3972   -46980.016  0.097407697 
   89200    215.33203    2.2604704    131499.64   -44286.256    2628.4326   -46914.688   0.10039684 
   89300    212.68246   -11.929312    131483.85   -44370.837    2596.0908   -46966.927  0.099753634 
   89400    215.30711    21.733521    131493.96   -44282.483    2628.1284   -46910.611   0.10022078 
   89500    213.74951    26.854117    131495.64   -44341.032    2609.1157   -46950.148  0.097746737 
   89600     214.6912     -2.09678    131487.04   -44408.329    2620.6104    -47028.94  0.096084797 
   89700    216.34626    13.804341    131490.16   -44331.278    2640.8127   -46972.091   0.10201283 
   89800    216.94259   -12.119683    131513.14   -44299.232    2648.0918   -46947.324  0.099924318 
   89900     215.5331   -29.517798    131498.91   -44281.674    2630.8869   -46912.561    0.1063259 
   90000    213.65338   -12.462498     131514.2   -44314.983    2607.9423   -46922.925   0.10021951 
   90100    215.71541    8.1782907    131511.83   -44274.067    2633.1122   -46907.179   0.10027542 
   90200    216.57173   -8.6884107    131497.81   -44318.828    2643.5649   -46962.393   0.10024021 
   90300     214.3932   -1.6691381    131488.71   -44332.795    2616.9728   -46949.768  0.098415101 
   90400    215.37877    16.857324    131489.33   -44303.176    2629.0031   -46932.179   0.10124645 
   90500    213.98029    2.9121918    131497.81   -44307.036    2611.9326   -46918.969   0.10173976 
   90600     218.7765    14.344498    131502.73   -44286.177    2670.4772   -46956.654  0.096173058 
   90700    212.87541   -10.553539    131495.34   -44319.407    2598.4461   -46917.854   0.10155294 
   90800    213.13544     2.406223    131493.75   -44351.739      2601.62   -46953.359  0.096970185 
   90900     213.8165    3.5958731    131486.36   -44294.761    2609.9334   -46904.694   0.10272127 
   91000    211.44198   -23.280002    131475.65   -44364.453     2580.949   -46945.402   0.10310171 
   91100    211.66489   -2.8187111    131464.74   -44406.092    2583.6699   -46989.762  0.098446313 
   91200    212.77181    12.599641    131469.58   -44403.553    2597.1815   -47000.735   0.09764369 
   91300    209.16698   -20.185827    131480.41   -44366.587    2553.1794   -46919.766   0.10111518 
   91400    213.65327    2.7180576    131509.47   -44320.826     2607.941   -46928.767  0.098701249 
   91500    218.38516   -5.0679902    131523.02   -44207.243    2665.7003   -46872.943    0.1038822 
   91600    217.33897   -10.859906    131531.28   -44244.769    2652.9301   -46897.699   0.10184598 
   91700     214.8872   -10.620364    131505.49   -44315.496    2623.0028   -46938.499  0.098263645 
   91800    218.38489    42.902213     131523.7   -44235.473    2665.6971    -46901.17  0.098320756 
   91900    218.24798    22.500465    131520.62   -44275.894    2664.0259    -46939.92  0.097973995 
   92000    213.01938    8.1968543    131514.47   -44283.009    2600.2035   -46883.213   0.10031009 
   92100    212.89171    29.785735     131507.1   -44316.874     2598.645   -46915.519  0.099896164 
   92200    215.87728    17.150828     131494.3   -44333.603    2635.0881   -46968.691  0.098579061 
   92300    217.03166    15.866859    131514.09   -44245.971     2649.179    -46895.15   0.10201313 
   92400    216.57342   -20.989201    131527.58   -44286.623    2643.5856   -46930.209  0.098586375 
   92500     214.6745   -18.687107    131523.62   -44268.693    2620.4065     -46889.1   0.10194882 
   92600    216.88437   -2.3402499    131535.95   -44226.067     2647.381   -46873.448   0.10077059 
   92700    216.84739   -7.6446521    131526.91   -44294.157    2646.9298   -46941.087   0.10053207 
   92800     218.2742   -22.410618    131513.82   -44287.693     2664.346   -46952.039   0.10125741 
   92900     214.5023     5.644686     131506.2   -44308.573    2618.3046   -46926.877  0.098619854 
   93000    213.94859   -1.9138133    131494.41   -44318.613    2611.5457   -46930.159     0.101052 
   93100     213.4966    21.532667    131497.55   -44311.101    2606.0286    -46917.13  0.096607564 
   93200    219.64351    7.8094193    131492.96   -44299.599    2681.0604   -46980.659  0.099877667 
   93300    212.98106   -20.549568    131485.94   -44347.199    2599.7356   -46946.934   0.10277123 
   93400    213.55342   -5.0037908    131478.68   -44381.188    2606.7221    -46987.91  0.096105656 
   93500      213.695    10.460605    131472.94   -44350.769    2608.4504    -46959.22   0.10195991 
   93600    217.52923    9.3752573    131488.34   -44330.157    2655.2525   -46985.409  0.096472738 
   93700    214.52837    13.380144    131489.98   -44317.666    2618.6228   -46936.289  0.099294212 
   93800     212.4266    3.8608801    131487.24   -44354.772    2592.9677   -46947.739    0.1023398 
   93900    209.79592    10.615017    131476.17   -44376.484    2560.8565    -46937.34  0.096203185 
   94000    212.17468    4.1871203     131455.2   -44379.144    2589.8927   -46969.037   0.10124048 
   94100    214.11837    6.2266471    131497.35   -44304.193    2613.6181   -46917.811   0.10029401 
   94200      214.889    22.457982    131500.91   -44266.413    2623.0248   -46889.438  0.098661112 
   94300    215.10628     1.254525    131498.39   -44291.059     2625.677   -46916.736   0.10134793 
   94400    213.80636   -3.7608115    131491.52   -44313.685    2609.8096   -46923.495   0.10015852 
   94500    217.47402    13.232424    131503.18    -44245.23    2654.5786   -46899.808   0.10274959 
   94600    211.50283   -3.4724123       131500   -44330.988    2581.6918    -46912.68   0.10245525 
   94700    214.41038    -14.85153     131496.5   -44334.566    2617.1825   -46951.748   0.10115057 
   94800    216.20769   -40.275533    131494.78   -44330.473    2639.1213   -46969.594    0.1030424 
   94900    212.03167   -13.037069    131487.27   -44366.511    2588.1471   -46954.658   0.10074213 
   95000    212.17056    -3.721693     131485.8   -44337.702    2589.8424   -46927.545   0.10180925 
   95100    213.33811   -6.3240262    131495.57   -44330.301     2604.094   -46934.395   0.10239777 
   95200    219.98921    48.726335    131496.66     -44307.4      2685.28    -46992.68  0.097140001 
   95300    212.50222   0.34682059     131494.5   -44324.616    2593.8908   -46918.506   0.10189373 
   95400    217.63361   -4.2641602    131495.37    -44301.18    2656.5266   -46957.706  0.098832985 
   95500    217.48312   -1.5670497    131499.09   -44267.266    2654.6897   -46921.956   0.10029703 
   95600    214.02251   -16.532779    131493.43   -44307.718     2612.448   -46920.166   0.10148789 
   95700    213.30286   -10.250364    131484.53     -44287.1    2603.6637   -46890.764   0.10282723 
   95800    214.60443    2.8462247    131489.44   -44297.936    2619.5512   -46917.487   0.10339373 
   95900    216.18017    13.321657    131497.31   -44307.559    2638.7854   -46946.344  0.096614576 
   96000    214.02015   -17.839505    131501.43   -44278.483    2612.4192   -46890.902   0.10515901 
   96100    214.85211   -22.114155    131525.35    -44222.25    2622.5744   -46844.824   0.10538783 
   96200    219.54841    -7.270068    131528.95   -44245.105    2679.8995   -46925.004  0.099730431 
   96300    218.45162    14.496233    131512.81   -44269.132    2666.5116   -46935.643   0.10301992 
   96400     216.4803    5.4624341    131516.97   -44299.647    2642.4488   -46942.096  0.099703322 
   96500    215.07491   -14.421816     131498.6   -44280.305     2625.294   -46905.599   0.10100939 
   96600    213.87502    10.284702    131507.18   -44316.006    2610.6477   -46926.654   0.10359334 
   96700    218.60776   -6.3113481    131498.64   -44299.362    2668.4175    -46967.78  0.095089963 
   96800    214.46406    14.739341    131492.64   -44311.389    2617.8377   -46929.227   0.10261823 
   96900    213.52648   -1.0621483    131507.31   -44349.215    2606.3933   -46955.609  0.098727048 
   97000    209.80936   -10.592824    131485.71   -44354.464    2561.0206   -46915.485  0.099855739 
   97100    214.51278   -8.6113387     131496.6   -44350.752    2618.4324   -46969.184   0.10078166 
   97200    213.44448   -21.400462    131490.14     -44339.3    2605.3923   -46944.692  0.099991896 
   97300     215.8118   -1.4627512    131517.78   -44240.844    2634.2889   -46875.133   0.10527552 
   97400     217.5836    -3.965972    131517.93   -44279.798    2655.9162   -46935.714   0.10056182 
   97500    218.34153    31.053322    131515.62   -44257.358    2665.1679   -46922.525  0.098833052 
   97600    219.64379    7.4975596    131510.32   -44248.294    2681.0637   -46929.357   0.10258064 
   97700    217.40888   -32.248827    131518.87   -44238.165    2653.7835   -46891.949   0.10200389 
   97800    218.05237    13.810622    131502.72   -44272.214    2661.6382   -46933.853   0.10158273 
   97900    216.29024   -13.087201    131504.97   -44265.842     2640.129   -46905.971  0.099825672 
   98000     214.5185 -0.0070389934    131501.13   -44300.124    2618.5024   -46918.626   0.10159627 
   98100    215.92883   -6.6657433    131510.71   -44299.601    2635.7174   -46935.318   0.10021754 
   98200     214.5325    3.1874714    131504.52   -44314.809    2618.6732   -46933.482   0.10013826 
   98300    215.23581   -19.069373    131519.46   -44246.624    2627.2581   -46873.882   0.10746571 
   98400    216.74617   -2.3787338    131508.56   -44277.293    2645.6941   -46922.987   0.10040768 
   98500    218.09495    9.0498582     131496.1   -44286.153     2662.158   -46948.311    0.1007958 
   98600    213.16022    3.5227042    131501.96   -44289.936    2601.9226   -46891.859   0.10450183 
   98700    214.64683    12.160183    131505.27   -44258.477    2620.0688   -46878.546   0.10080182 
   98800     219.7922    10.448057    131515.18   -44245.939    2682.8752   -46928.814   0.10388056 
   98900    214.69315    -9.728715    131504.89   -44311.174    2620.6341   -46931.808   0.10135769 
   99000    215.38756    20.169549    131490.77   -44295.888    2629.1104   -46924.998  0.098777816 
   99100    211.90213   -2.2648924    131484.11   -44344.967    2586.5658   -46931.533  0.099362502 
   99200    213.30035    4.7447517    131497.48   -44329.165    2603.6331   -46932.798  0.099125246 
   99300    216.75423    17.707584    131496.52   -44308.375    2645.7925   -46954.167  0.098236462 
   99400     214.2082     2.644377    131492.93   -44333.095    2614.7147    -46947.81   0.10129551 
   99500     212.8169   -3.9603527    131502.33   -44299.309    2597.7318   -46897.041   0.09856916 
   99600    215.53017    7.7689744    131502.19   -44284.658    2630.8511    -46915.51   0.10236453 
   99700    212.50144    16.258268     131490.8   -44325.871    2593.8813   -46919.752  0.098004345 
   99800    215.08762    8.8133268    131483.98   -44306.912    2625.4492   -46932.361   0.10160573 
   99900    209.91297   -3.2317573    131483.57   -44336.199    2562.2853   -46898.484    0.1019901 
  100000    215.16392   -21.429066    131491.92   -44310.602    2626.3806   -46936.983   0.10046699 
Loop time of 50.2388 on 6 procs for 100000 steps with 4096 atoms

Performance: 859.892 ns/day, 0.028 hours/ns, 1990.492 timesteps/s
97.7% CPU use with 6 MPI tasks x no OpenMP threads

MPI task timing breakdown:
Section |  min time  |  avg time  |  max time  |%varavg| %total
---------------------------------------------------------------
Pair    | 33.165     | 33.889     | 35.101     |  13.1 | 67.46
Neigh   | 3.9615     | 4.0458     | 4.1693     |   4.1 |  8.05
Comm    | 8.0619     | 9.376      | 10.117     |  26.9 | 18.66
Output  | 0.17452    | 0.17594    | 0.18214    |   0.7 |  0.35
Modify  | 2.0015     | 2.0226     | 2.0417     |   0.8 |  4.03
Other   |            | 0.7291     |            |       |  1.45

Nlocal:        682.667 ave         704 max         658 min
Histogram: 1 0 1 1 0 1 0 0 0 2
Nghost:        1375.50 ave        1406 max        1349 min
Histogram: 1 1 1 1 0 0 0 0 0 2
Neighs:        0.00000 ave           0 max           0 min
Histogram: 6 0 0 0 0 0 0 0 0 0
FullNghs:      19387.3 ave       19980 max       18636 min
Histogram: 1 0 0 2 0 0 1 0 0 2

Total # of neighbors = 116324
Ave neighs/atom = 28.399414
Neighbor list builds = 4323
Dangerous builds = 0

undump              1
unfix               2
unfix               3
unfix               4




################################################
#######         Run Simulation         #########
################################################

reset_timestep      0
log                 log.run_${NAME}
log                 log.run_ice_215K_1atm_ML
