
# Create simulation box of size 50 x 50 x 50 Angstrom
#
lattice	            sc 1
Lattice spacing in x,y,z = 1.0000000 1.0000000 1.0000000
region 	            all block 0 50 0 50 0 50 units box
create_box          1 all
Created orthogonal box = (0.0000000 0.0000000 0.0000000) to (50.000000 50.000000 50.000000)
  1 by 1 by 1 MPI processor grid

# fill box with 4175 randomly distributed atoms
#
create_atoms        1 random 4175 63782 all
Created 4175 atoms
  create_atoms CPU = 0.000 seconds
mass                1 18.015

# Define potential
#
pair_style          sw
pair_coeff          * * ML_mW.sw mW
Reading sw potential file ML_mW.sw with DATE: 2019-02-27

# Run minimization
#
minimize            1.0e-8 1.0e-8 10000 1000
WARNING: Using 'neigh_modify every 1 delay 0 check yes' setting during minimization (../min.cpp:187)
Neighbor list info ...
  update every 1 steps, delay 0 steps, check yes
  max neighbors/atom: 2000, page size: 100000
  master list distance cutoff = 6.0032907
  ghost atom cutoff = 6.0032907
  binsize = 3.0016454, bins = 17 17 17
  1 neighbor lists, perpetual/occasional/extra = 1 0 0
  (1) pair sw, perpetual
      attributes: full, newton on
      pair build: full/bin/atomonly
      stencil: full/bin/3d
      bin: standard
Per MPI rank memory allocation (min/avg/max) = 4.759 | 4.759 | 4.759 Mbytes
Step Temp E_pair E_mol TotEng Press 
       0            0    7792709.3            0    7792709.3    5898794.3 
     631            0   -45138.185            0   -45138.185   -130.57836 
Loop time of 7.34419 on 1 procs for 631 steps with 4175 atoms

100.0% CPU use with 1 MPI tasks x no OpenMP threads

Minimization stats:
  Stopping criterion = max force evaluations
  Energy initial, next-to-last, final = 
      7792709.32924456  -45137.9104522973  -45138.1854596308
  Force two-norm initial, final = 2.0191930e+08 4.4741522
  Force max component initial, final = 1.0948746e+08 1.0165594
  Final line search alpha, max atom move = 0.045182713 0.045930911
  Iterations, force evaluations = 631 1000

MPI task timing breakdown:
Section |  min time  |  avg time  |  max time  |%varavg| %total
---------------------------------------------------------------
Pair    | 7.0836     | 7.0836     | 7.0836     |   0.0 | 96.45
Neigh   | 0.16474    | 0.16474    | 0.16474    |   0.0 |  2.24
Comm    | 0.019083   | 0.019083   | 0.019083   |   0.0 |  0.26
Output  | 0          | 0          | 0          |   0.0 |  0.00
Modify  | 0          | 0          | 0          |   0.0 |  0.00
Other   |            | 0.07679    |            |       |  1.05

Nlocal:        4175.00 ave        4175 max        4175 min
Histogram: 1 0 0 0 0 0 0 0 0 0
Nghost:        3825.00 ave        3825 max        3825 min
Histogram: 1 0 0 0 0 0 0 0 0 0
Neighs:        0.00000 ave           0 max           0 min
Histogram: 1 0 0 0 0 0 0 0 0 0
FullNghs:     119936.0 ave      119936 max      119936 min
Histogram: 1 0 0 0 0 0 0 0 0 0

Total # of neighbors = 119936
Ave neighs/atom = 28.727186
Neighbor list builds = 26
Dangerous builds = 0

# Add velocity/set timestep
#
velocity            all create ${TEMP} 120598 rot yes dist gaussian
velocity            all create 205 120598 rot yes dist gaussian
timestep            5.0

# Define output
#
compute	            1 all msd
thermo	            100
thermo_style        custom step temp press vol etotal ke pe c_1[4] density

# Neighbor lists
#
neigh_modify        delay 0 every 1 check yes

# Set fixes
#
fix                 1 all momentum 10 linear 1 1 1 rescale
fix                 2 all nve
fix                 3 all temp/csvr ${TEMP} ${TEMP} 500.0 928347
fix                 3 all temp/csvr 205 ${TEMP} 500.0 928347
fix                 3 all temp/csvr 205 205 500.0 928347
fix                 4 all press/berendsen iso ${PRES} ${PRES} 1000.0 modulus 20000
fix                 4 all press/berendsen iso -650 ${PRES} 1000.0 modulus 20000
fix                 4 all press/berendsen iso -650 -650 1000.0 modulus 20000

# Run 0.5 ns equilibration
#
dump                1 all custom 1000 eq.${NAME}.dump id type x y z vx vy vz
dump                1 all custom 1000 eq.liquid_density_MLmW.dump id type x y z vx vy vz
run                 100000
Per MPI rank memory allocation (min/avg/max) = 4.009 | 4.009 | 4.009 Mbytes
Step Temp Press Volume TotEng KinEng PotEng c_1[4] Density 
     631          205    802.16775       125000   -42587.596    2550.5897   -45138.185            0   0.99914793 
     700     132.5348   -539.21246    126075.19    -41804.21    1648.9849   -43453.194   0.22882438   0.99062703 
     800    162.65758   -622.13362    126062.51   -41094.845    2023.7696   -43118.614   0.56087664   0.99072665 
     900    178.59942   -687.59503    126281.97   -40670.998    2222.1163   -42893.114    0.8986375   0.98900496 
    1000    188.57101   -704.67674    126535.15   -40418.072    2346.1818   -42764.254    1.2143339   0.98702609 
    1100    196.95528   -467.11792    126859.17   -40244.101    2450.4981   -42694.599    1.5162642   0.98450506 
    1200    199.94401   -752.75951    127155.87   -40306.425    2487.6836   -42794.109    1.9009734   0.98220782 
    1300    201.14209   -723.59163    127095.46   -40308.428      2502.59   -42811.018    2.3329767   0.98267468 
    1400    202.11262   -574.19346     127214.9     -40328.9    2514.6652   -42843.565    2.6869504   0.98175208 
    1500    204.43596    -622.1682    127496.26   -40306.836     2543.572   -42850.408    3.0112698   0.97958555 
    1600     208.8105   -637.89515    127676.67   -40247.424    2597.9997   -42845.424    3.3604664   0.97820134 
    1700    208.09879   -520.53424    127908.42   -40290.926    2589.1446   -42880.071     3.663804   0.97642904 
    1800    204.50216    -792.4107    127745.36   -40387.498    2544.3957   -42931.893    4.0049513   0.97767537 
    1900    209.48157   -614.49573    128010.27   -40411.224     2606.349   -43017.573    4.1726979   0.97565215 
    2000    206.29767   -585.10169    128239.76   -40389.246    2566.7353   -42955.982    4.3948357   0.97390613 
    2100    203.91678   -775.19752    128331.82   -40353.983    2537.1124   -42891.096    4.6849537   0.97320753 
    2200    206.28327   -549.19134    128585.03   -40400.577     2566.556   -42967.133    4.9847554   0.97129107 
    2300    210.50678   -475.91051    128911.75   -40415.393    2619.1046   -43034.497     5.257947   0.96882939 
    2400    206.09417   -665.11211    128993.52   -40451.383    2564.2034   -43015.586    5.4676292    0.9682152 
    2500    210.20204   -675.23445    129129.38   -40425.924     2615.313   -43041.237    5.7593254   0.96719656 
    2600    209.67072   -690.62341    129174.25   -40397.199    2608.7024   -43005.901    5.9829885   0.96686056 
    2700    210.10731    -702.6005    129271.91   -40428.484    2614.1343   -43042.618    6.1728855   0.96613015 
    2800    211.93298   -825.52556    129510.89   -40431.388    2636.8492   -43068.237    6.4124917   0.96434738 
    2900    209.98189   -720.96207    129472.28   -40526.204    2612.5739   -43138.778    6.5144715   0.96463499 
    3000    209.54854   -658.08443       129530   -40580.091    2607.1822   -43187.274    6.6414871   0.96420515 
    3100    205.67107   -631.67404    129681.99   -40575.796    2558.9391   -43134.735    6.8453115    0.9630751 
    3200    208.24428    -654.7317    129549.44   -40650.543    2590.9547   -43241.498    7.0588942   0.96406045 
    3300    205.54595   -582.75355    129478.76    -40673.08    2557.3824   -43230.463    7.3545067   0.96458674 
    3400    207.66004   -738.80091    129610.17   -40702.308    2583.6857   -43285.994    7.6254925   0.96360869 
    3500    203.29399   -696.13233    129765.43   -40735.223    2529.3637   -43264.587    7.6794209   0.96245577 
    3600     202.4312   -611.82893    129743.03   -40796.624     2518.629   -43315.253    7.8288317   0.96262193 
    3700    201.81616   -480.07343    129888.26   -40850.011    2510.9767   -43360.988      7.93844   0.96154566 
    3800    205.70672   -784.88052     129720.5   -40831.262    2559.3827   -43390.645    8.0754637   0.96278913 
    3900    202.36286   -648.71468    129905.52   -40857.375    2517.7787   -43375.153    8.1857052   0.96141789 
    4000    202.74842   -574.49408    129921.82   -40865.679    2522.5758   -43388.254    8.3068314   0.96129725 
    4100    202.84118   -638.41472     129998.9   -40841.164    2523.7299   -43364.894    8.4575814   0.96072728 
    4200    205.95924   -810.85304    130237.09   -40876.897    2562.5244   -43439.422    8.6734916   0.95897025 
    4300    205.16403    -674.3256    130268.58   -40888.977    2552.6306   -43441.608    8.7560528   0.95873843 
    4400    204.20698   -530.32674    130303.17   -40908.724    2540.7231   -43449.447    8.9752469   0.95848389 
    4500    205.84656   -763.72453     130478.5   -40934.428    2561.1225   -43495.551    9.0621814   0.95719591 
    4600    205.56911   -561.51849    130448.19   -40997.625    2557.6705   -43555.296    9.1826425   0.95741836 
    4700    210.28915   -533.94027    130510.43   -40930.217    2616.3968   -43546.614    9.1882076   0.95696178 
    4800    205.23442   -663.66456    130368.13   -40994.541    2553.5064   -43548.048    9.2988101   0.95800635 
    4900    210.92713   -681.66929    130551.07   -40897.735    2624.3345   -43522.069    9.4028132   0.95666387 
    5000    213.13305   -503.28737    130613.68   -40866.421    2651.7803   -43518.202    9.5840757   0.95620532 
    5100    207.35466   -722.04919    130616.11   -40953.254    2579.8862    -43533.14    9.7520654   0.95618753 
    5200    205.43634   -490.70144    130719.79   -41006.733    2556.0186   -43562.751    9.8523537   0.95542908 
    5300    207.55816   -741.88713    130745.31   -40983.853    2582.4181   -43566.271    9.8827594   0.95524258 
    5400    207.47477   -594.25984    130827.41   -41051.459    2581.3806   -43632.839    9.9456022   0.95464318 
    5500    204.27617    -637.3227    130869.29   -41063.081    2541.5839   -43604.665    10.197564   0.95433763 
    5600    206.56513   -485.13875    130914.33   -41078.585     2570.063   -43648.648    10.290273   0.95400935 
    5700    205.67477   -552.63206    130814.33   -41084.341    2558.9851   -43643.326    10.282767   0.95473858 
    5800      205.867   -527.05507    130905.36    -41106.21    2561.3769   -43667.587    10.398021   0.95407469 
    5900    203.24644   -572.22606    131109.82   -41148.032    2528.7721   -43676.804    10.368354   0.95258685 
    6000     202.8434    -695.3684    131372.88     -41147.1    2523.7575   -43670.857    10.504936   0.95067937 
    6100    206.43372   -614.79978    131438.84   -41120.137    2568.4279   -43688.564    10.613853   0.95020233 
    6200     202.1079   -626.74652    131457.63   -41177.414    2514.6065   -43692.021    10.708638   0.95006651 
    6300    204.99402   -664.14586    131399.23   -41154.551    2550.5153   -43705.066     10.72205   0.95048878 
    6400    205.85523   -634.53837    131507.98    -41142.29    2561.2304    -43703.52    10.796265   0.94970273 
    6500    208.57745   -557.00579    131503.05   -41093.136       2595.1   -43688.236     10.89871   0.94973839 
    6600     206.2916   -655.75394    131845.41   -41177.912    2566.6597   -43744.572    11.011563    0.9472722 
    6700    202.06041   -679.77012     131863.3   -41237.318    2514.0157   -43751.334    11.196546    0.9471437 
    6800     206.0451   -591.79665     131852.5   -41187.891    2563.5927   -43751.483    11.262558   0.94722126 
    6900    209.27247   -589.65895    132002.63   -41153.145    2603.7474   -43756.893    11.270192   0.94614396 
    7000    210.12916   -562.14308    132146.64   -41146.193    2614.4062   -43760.599    11.326755   0.94511291 
    7100    205.37577   -698.45845     132222.6   -41176.326     2555.265   -43731.591    11.244481   0.94456994 
    7200    208.03295   -644.83646    132082.91    -41236.58    2588.3254   -43824.906    11.312343   0.94556891 
    7300    203.42931   -639.46682    132105.76   -41293.457    2531.0474   -43824.504    11.378466   0.94540535 
    7400    203.02381   -608.78654    132288.86   -41330.668    2526.0022    -43856.67    11.477837    0.9440968 
    7500    202.53613   -697.13919    132254.06   -41308.032    2519.9345   -43827.966    11.491945   0.94434521 
    7600    204.85921    -501.9069    132384.29   -41378.417    2548.8381   -43927.255    11.577177   0.94341623 
    7700    202.34218   -599.63438    132665.12   -41287.395    2517.5214   -43804.917    11.572829   0.94141917 
    7800    204.41054   -579.05168    132689.22   -41273.177    2543.2557   -43816.432    11.477378   0.94124821 
    7900    205.43635   -595.18444    132857.67   -41339.799    2556.0187   -43895.817    11.461184   0.94005481 
    8000    207.50707   -569.84684    132714.64   -41326.708    2581.7825    -43908.49    11.537787   0.94106795 
    8100    205.53803   -544.61182    132840.74    -41407.76    2557.2839   -43965.044    11.721776   0.94017458 
    8200    200.94507   -489.72763    132772.55   -41430.197    2500.1387   -43930.336    11.811384    0.9406575 
    8300    198.35922   -655.59751    133003.22   -41410.447    2467.9658   -43878.413    11.960205   0.93902608 
    8400    206.87432   -787.24046    133008.51   -41357.075    2573.9099   -43930.985    11.952221   0.93898876 
    8500    207.98036   -529.77642    133136.28   -41285.342    2587.6711   -43873.013    12.043952   0.93808756 
    8600    205.16408   -659.73553    133146.72   -41320.148    2552.6311   -43872.779    12.107926   0.93801404 
    8700    205.96569   -448.74258    133213.34   -41309.867    2562.6047   -43872.472    12.058462   0.93754494 
    8800    204.49412   -694.60389    133424.04   -41338.149    2544.2957   -43882.445    12.073896   0.93606441 
    8900    200.27239   -747.90259    133413.07   -41402.056    2491.7693   -43893.825    12.126594   0.93614133 
    9000    200.85928     -627.341    133349.38   -41377.583    2499.0713   -43876.654    12.151617   0.93658845 
    9100    203.50215   -683.25289    133207.01   -41435.581    2531.9536   -43967.534    12.135788    0.9375895 
    9200    202.04715   -724.46849    133335.62   -41351.195    2513.8506   -43865.045    12.115889   0.93668515 
    9300    204.13455   -542.76477    133346.71   -41402.177    2539.8218   -43941.999    12.173418    0.9366072 
    9400    203.15575   -576.42397     133426.2   -41379.611    2527.6437   -43907.255    12.323828   0.93604919 
    9500    206.10015   -683.73606    133496.98   -41374.742    2564.2777    -43939.02    12.433258   0.93555294 
    9600    205.84308   -661.25158     133355.7   -41364.246    2561.0793   -43925.325    12.462782   0.93654406 
    9700    202.85976   -652.19357    133156.81   -41302.389     2523.961    -43826.35    12.470467   0.93794296 
    9800    206.25981   -742.58034    133338.83   -41381.547    2566.2642   -43947.811    12.469103   0.93666259 
    9900    203.57333   -608.25992    133306.99   -41440.991    2532.8393    -43973.83    12.461273   0.93688631 
   10000    204.86086   -690.84319    133341.68   -41438.943    2548.8586   -43987.802    12.642508   0.93664256 
   10100    203.39037   -670.19632     133447.4   -41409.263    2530.5629   -43939.826    12.762826   0.93590054 
   10200    198.77227   -666.40363    133514.81   -41457.298    2473.1049   -43930.403    12.797797     0.935428 
   10300    202.47758   -760.04244    133553.02   -41456.885     2519.206   -43976.091    12.695597   0.93516038 
   10400    205.38793   -651.99446    133428.04   -41395.778    2555.4163   -43951.195    12.766046   0.93603634 
   10500    204.81845   -502.56598    133399.33   -41365.693    2548.3309   -43914.024    12.937681   0.93623779 
   10600     206.7826   -625.00402    133475.03   -41327.161    2572.7686    -43899.93    13.157709   0.93570677 
   10700     213.3536   -526.28008    133611.63   -41317.252    2654.5244   -43971.777    13.088003   0.93475018 
   10800    212.50805   -629.92904    133597.62   -41323.101    2644.0041   -43967.105    13.092452   0.93484819 
   10900    203.02698   -695.48556    133567.36   -41361.247    2526.0416   -43887.289    13.103187   0.93505998 
   11000    207.16014    -594.9047    133707.36   -41365.321     2577.466   -43942.787      13.1303   0.93408087 
   11100    204.07491    -738.0791    133617.48    -41401.05    2539.0798    -43940.13    13.157473   0.93470924 
   11200    209.33604   -587.31029    133563.02   -41409.329    2604.5383   -44013.867      13.2345   0.93509036 
   11300    206.81617    -725.5916    133765.61   -41401.382    2573.1863   -43974.569    13.284816   0.93367411 
   11400    207.17597   -754.31167    133530.01   -41414.871    2577.6629   -43992.534      13.3852   0.93532148 
   11500    208.07291    -538.7071    133523.66   -41438.432    2588.8225   -44027.254    13.359067     0.935366 
   11600    208.03301   -801.01478    133573.21   -41441.593    2588.3261   -44029.919    13.434889   0.93501898 
   11700    208.00175   -643.96102    133488.41   -41345.829    2587.9372   -43933.766    13.414942   0.93561303 
   11800    204.24533   -606.34715    133518.55   -41410.719    2541.2002   -43951.919    13.506493   0.93540176 
   11900    206.10291   -664.17853    133450.82   -41423.171     2564.312   -43987.483    13.592045   0.93587655 
   12000    203.20333   -659.73573     133399.3   -41421.167    2528.2358   -43949.403    13.615043   0.93623798 
   12100    209.91467   -671.52187    133424.33   -41397.749    2611.7376   -44009.487    13.620966   0.93606237 
   12200    204.12003   -659.16767    133327.98   -41410.185    2539.6412   -43949.827    13.718401   0.93673883 
   12300    204.88038   -751.95275    133468.06   -41433.103    2549.1014   -43982.204    13.737493   0.93575563 
   12400    206.35828   -737.50103    133369.47   -41429.461    2567.4893    -43996.95    13.770677   0.93644741 
   12500    199.30403   -638.06432    133338.96   -41518.423    2479.7211   -43998.144    13.840378   0.93666166 
   12600    205.76397   -653.80858    133413.64   -41452.463     2560.095   -44012.558    13.936891   0.93613733 
   12700    205.42075   -795.06725    133519.68   -41440.938    2555.8247   -43996.763    14.065686   0.93539389 
   12800    208.97711   -626.69674    133544.77   -41421.498    2600.0725   -44021.571    14.172918   0.93521817 
   12900    205.21669    -720.1995    133635.89   -41462.171    2553.2858   -44015.456    14.215939   0.93458049 
   13000    207.96136   -587.36705    133573.39   -41415.074    2587.4347   -44002.509    14.382328   0.93501775 
   13100    211.20524   -593.69984    133689.96   -41432.879    2627.7948   -44060.673    14.315483   0.93420251 
   13200      210.058   -618.90583    133739.24   -41360.681    2613.5209   -43974.202    14.282285   0.93385826 
   13300    208.80948   -552.37041    133729.79   -41407.392    2597.9869   -44005.379    14.313874   0.93392421 
   13400    205.19591   -638.91601    133677.32   -41493.138    2553.0272   -44046.165    14.325164   0.93429082 
   13500     205.1543   -586.40038    133490.84   -41536.901    2552.5095   -44089.411    14.481588   0.93559598 
   13600    203.72761   -505.54207     133728.4   -41564.203    2534.7588   -44098.962    14.592458   0.93393391 
   13700    206.42439   -626.36402    133804.23   -41562.812    2568.3118   -44131.123     14.62817   0.93340464 
   13800    202.85717    -688.8132    133713.64   -41492.122    2523.9289   -44016.051    14.656495   0.93403701 
   13900      204.546    -587.7257    133622.12   -41516.149    2544.9411    -44061.09    14.528928   0.93467677 
   14000    206.42282   -658.23447    133534.19   -41502.291    2568.2924   -44070.584    14.465798   0.93529222 
   14100    204.97649   -647.34269    133524.98   -41500.344    2550.2972   -44050.641     14.41655   0.93535675 
   14200    200.97728   -762.10201    133460.27   -41544.461    2500.5395   -44045.001     14.33166   0.93581026 
   14300    200.64377    -712.5569    133424.75   -41591.585      2496.39   -44087.975    14.484149   0.93605939 
   14400    201.72183   -495.57997    133591.56   -41560.618    2509.8031   -44070.422    14.478861   0.93489059 
   14500    205.08275   -640.04461     133439.3   -41512.729    2551.6193   -44064.348    14.597399   0.93595733 
   14600    203.91749   -671.08506    133479.22   -41523.616    2537.1212   -44060.737     14.67984   0.93567741 
   14700    203.44223   -603.93829    133777.42   -41550.603    2531.2081   -44081.811    14.862499   0.93359171 
   14800    202.90265   -597.19066    133786.25    -41604.42    2524.4948   -44128.915    14.758756   0.93353008 
   14900    201.29609   -525.28122    133865.28   -41667.226     2504.506   -44171.732    14.826435   0.93297895 
   15000       201.18   -722.25238    134025.15   -41659.045    2503.0616   -44162.106    14.872904    0.9318661 
   15100    200.14289   -642.89487    133976.28   -41682.665    2490.1581   -44172.823     14.87067   0.93220597 
   15200     199.8838   -669.32503    134056.48   -41620.248    2486.9345   -44107.182    14.998569   0.93164827 
   15300    201.84381   -702.05433    133970.02   -41640.203    2511.3207   -44151.524    15.072019   0.93224955 
   15400    203.00004   -680.40135    133871.55   -41627.228    2525.7064   -44152.935    14.931176   0.93293527 
   15500    206.24035    -583.4462    133964.36   -41609.439     2566.022   -44175.462    14.882731   0.93228891 
   15600    204.72939   -614.44585    134111.68   -41560.256    2547.2229   -44107.479    14.819874   0.93126486 
   15700    199.24401   -742.76951    134011.38   -41641.664    2478.9743   -44120.638    14.762753   0.93196181 
   15800    200.97006   -665.14258     133944.8   -41655.754    2500.4496   -44156.203    14.937621   0.93242506 
   15900    202.06359   -632.86325    134077.35   -41668.984    2514.0553    -44183.04     14.92087   0.93150325 
   16000    205.63527   -650.40158    134035.52   -41608.715    2558.4937   -44167.209    14.761634   0.93179398 
   16100    205.89025   -612.68474    134122.43   -41551.929    2561.6661   -44113.595    14.836369   0.93119018 
   16200    201.88389   -690.10557    134066.57   -41615.595    2511.8194   -44127.414    14.829587    0.9315782 
   16300    205.13078   -585.98918    134229.38   -41622.776    2552.2169   -44174.993    15.143747   0.93044824 
   16400     204.6101   -455.79765    134246.75   -41539.374    2545.7387   -44085.113    15.046212   0.93032784 
   16500    206.61428   -635.28189     134293.8   -41531.121    2570.6744   -44101.796    15.136184   0.93000189 
   16600    209.39756   -612.15082    134317.68   -41527.908    2605.3037   -44133.211    15.166277    0.9298366 
   16700    204.80655   -719.36316    134347.19   -41567.356    2548.1828   -44115.538    15.138475   0.92963235 
   16800    205.83529   -563.44311    134333.77   -41559.743    2560.9824   -44120.725    15.174838   0.92972518 
   16900    207.77611   -613.19651       134182   -41529.575    2585.1299   -44114.705    15.241137    0.9307768 
   17000    206.63583   -672.10956    134124.28   -41553.448    2570.9426    -44124.39    15.240939   0.93117737 
   17100    208.13907   -652.31929    134219.34   -41496.273    2589.6457   -44085.919      15.3484   0.93051782 
   17200    210.17096   -527.52672    134163.66   -41506.411    2614.9263   -44121.337     15.38069     0.930904 
   17300    203.47211   -599.05531    134177.05   -41576.708    2531.5798   -44108.288     15.41379   0.93081113 
   17400     203.7616   -642.39442    134245.43   -41590.014    2535.1817   -44125.196    15.445098   0.93033697 
   17500    206.43129   -647.62837    134081.75   -41582.363    2568.3978   -44150.761    15.416035   0.93147274 
   17600    206.82466   -591.17323    134170.89   -41586.644    2573.2919   -44159.936    15.511938   0.93085387 
   17700    205.90534    -716.9223    134175.41   -41606.537    2561.8539   -44168.391    15.473588   0.93082252 
   17800    203.49784   -780.48055    134082.48   -41596.006       2531.9   -44127.906    15.445194   0.93146765 
   17900    207.29156   -631.12504    133984.86   -41569.546    2579.1011   -44148.647    15.417777    0.9321463 
   18000    207.48005   -623.60733    134237.08   -41518.344    2581.4463    -44099.79    15.504453   0.93039486 
   18100    206.14464   -564.94756    134321.43   -41624.625    2564.8312   -44189.457    15.480201    0.9298106 
   18200    209.50187   -589.83904    134465.55   -41640.859    2606.6016    -44247.46     15.60086   0.92881404 
   18300    209.76725   -696.07824    134357.26   -41578.453    2609.9033   -44188.356    15.681384   0.92956268 
   18400    204.49909   -714.24216    134345.37   -41629.153    2544.3574   -44173.511    15.668008   0.92964493 
   18500    206.76084   -698.61657    134499.16   -41608.169    2572.4979   -44180.667    15.705289   0.92858192 
   18600    204.32939   -622.11335     134481.1   -41644.356    2542.2461   -44186.602    15.702626   0.92870663 
   18700    204.85878   -747.37368    134514.98   -41621.646    2548.8327   -44170.479     15.82152   0.92847274 
   18800    208.05055   -672.02383    134436.18   -41605.615    2588.5444   -44194.159    15.814461   0.92901697 
   18900    204.62944   -696.16201    134389.58   -41633.712    2545.9792   -44179.691    15.784756   0.92933907 
   19000    209.38879   -629.76708    134520.05   -41601.948    2605.1947   -44207.142    15.876769   0.92843772 
   19100    205.79841   -726.47566    134504.15   -41647.032    2560.5235   -44207.556    15.827461   0.92854748 
   19200    204.60848   -700.01482     134347.7   -41631.703    2545.7185   -44177.422     15.82635   0.92962883 
   19300    208.67485   -758.34865    134480.88   -41568.118    2596.3119    -44164.43    15.837074   0.92870818 
   19400     210.5795   -529.26743    134576.73   -41578.052    2620.0093   -44198.061    15.872967   0.92804669 
   19500    205.25254   -682.73752    134575.28   -41571.128    2553.7318    -44124.86    15.898327   0.92805674 
   19600    209.28015   -662.85015    134521.44   -41617.479    2603.8429   -44221.322    15.936307   0.92842815 
   19700    208.84629   -625.67019    134274.59   -41599.758    2598.4449   -44198.203    15.950827     0.930135 
   19800    204.49133   -590.87869    134255.31   -41637.851    2544.2609   -44182.112    16.095473   0.93026853 
   19900    207.32503    -618.4124    134309.35   -41645.599    2579.5175   -44225.116    16.124337   0.92989427 
   20000    205.43234   -555.32797    134428.26   -41687.908    2555.9689   -44243.877     16.09275   0.92907167 
   20100    202.41924   -767.57661    134397.54   -41656.714    2518.4802   -44175.195    16.149267   0.92928406 
   20200    205.15375   -675.60931     134087.7   -41695.742    2552.5027   -44248.245    16.114156   0.93143137 
   20300    200.95455    -561.1479    134116.56   -41734.594    2500.2567   -44234.851    16.005506   0.93123093 
   20400    203.03349    -645.4225    134247.93   -41721.188    2526.1227   -44247.311    16.174331   0.93031971 
   20500    209.34756   -581.25743    134370.99   -41705.331    2604.6816   -44310.013    16.235562   0.92946767 
   20600    204.98607   -713.53003    134309.77   -41734.687    2550.4164   -44285.103    16.250728   0.92989136 
   20700    203.67712   -752.71396    134442.39   -41678.914    2534.1305   -44213.044    16.337702   0.92897407 
   20800    206.74344   -695.29252    134450.76   -41676.193    2572.2815   -44248.475    16.307561   0.92891624 
   20900    203.30628   -712.24425    134395.15   -41715.989    2529.5167   -44245.506    16.216606   0.92930058 
   21000    202.58062   -526.93637    134321.08   -41798.738     2520.488   -44319.226    16.169988   0.92981305 
   21100     200.1766   -530.47748    134332.95   -41817.135    2490.5775   -44307.712    16.314889   0.92973087 
   21200    203.78888   -726.45797    134284.37   -41790.043    2535.5211   -44325.564    16.342559   0.93006724 
   21300     201.2767   -562.41147    134334.35   -41807.636    2504.2648     -44311.9    16.278657    0.9297212 
   21400    201.37746   -680.90807    134309.29   -41769.121    2505.5184    -44274.64     16.18681   0.92989469 
   21500    204.96589   -518.76352    134307.16   -41756.047    2550.1654   -44306.213    16.315602   0.92990942 
   21600    204.47016   -515.81308    134503.97   -41702.136    2543.9975   -44246.133    16.338297   0.92854874 
   21700    206.57666   -690.32643    134482.28   -41686.228    2570.2064   -44256.435    16.367838   0.92869848 
   21800    207.15151   -605.41414    134487.17    -41679.57    2577.3586   -44256.928    16.426845    0.9286647 
   21900    204.99264   -750.83665    134587.54   -41700.344    2550.4982   -44250.842    16.435435   0.92797218 
   22000    203.99667   -701.72863     134405.6   -41730.815    2538.1064   -44268.922     16.48644   0.92922833 
   22100    210.15316   -497.68287    134434.31   -41680.588    2614.7048   -44295.293    16.614369   0.92902985 
   22200    204.87514    -672.1736    134539.98   -41709.076    2549.0362   -44258.113    16.386922    0.9283002 
   22300    205.79313   -698.63564    134542.92   -41689.711    2560.4578   -44250.169    16.423352   0.92827994 
   22400    205.00461   -734.38447    134441.59   -41665.921     2550.647   -44216.568    16.647287   0.92897958 
   22500    203.15358    -748.8491     134419.9   -41678.794    2527.6168    -44206.41    16.591498   0.92912949 
   22600    205.18189   -679.09947    134278.27   -41640.886    2552.8528   -44193.739    16.569593   0.93010947 
   22700     204.4418   -653.50409    134377.07   -41639.259    2543.6446   -44182.904    16.626158   0.92942563 
   22800    205.80562   -705.46121    134281.07   -41632.489    2560.6132   -44193.102    16.657275   0.93009008 
   22900    206.02107   -536.87407    134303.55   -41669.715    2563.2938   -44233.008    16.695432   0.92993437 
   23000    203.69113   -704.00368    134220.73   -41645.353    2534.3049   -44179.658    16.741226   0.93050822 
   23100    203.40023   -604.98182    134234.64    -41743.77    2530.6856   -44274.455    16.671028   0.93041176 
   23200    208.47734   -595.82123    134239.35   -41681.749    2593.8545   -44275.604    16.743679   0.93037917 
   23300    204.18455   -746.78017    134255.58   -41725.698     2540.444   -44266.142    16.854719   0.93026663 
   23400    205.34597   -723.59992    134358.21   -41670.678    2554.8943   -44225.572    16.801376   0.92955606 
   23500     203.7745   -675.41893    134403.18   -41699.022    2535.3422   -44234.364    16.787671   0.92924507 
   23600    204.58637   -751.41207       134315   -41680.836    2545.4433   -44226.279     16.63694   0.92985514 
   23700    203.91414   -672.65873    134372.83   -41703.339    2537.0795   -44240.418    16.712428   0.92945494 
   23800    200.99002   -707.79516     134217.3   -41769.131     2500.698   -44269.829    16.862927   0.93053201 
   23900    202.24228   -652.44106    134275.76   -41764.488    2516.2784   -44280.766    16.884959   0.93012686 
   24000    202.04203   -607.71737    134290.95   -41705.444     2513.787   -44219.231    16.968819   0.93002166 
   24100    203.02904   -718.42655    134248.14   -41691.726    2526.0672   -44217.793    16.901728   0.93031824 
   24200    201.37733   -624.24406    134164.49   -41749.398    2505.5168   -44254.914    16.944592   0.93089827 
   24300    203.93349   -543.19775    134265.71   -41713.825    2537.3203   -44251.145    16.870777   0.93019646 
   24400    200.69485   -624.45475    134228.88   -41753.495    2497.0255   -44250.521    16.883621   0.93045169 
   24500     206.4235    -672.1335    134246.95   -41714.814    2568.3008   -44283.115    16.892817   0.93032649 
   24600     202.6697   -664.62377    134109.62    -41706.69    2521.5964   -44228.286    16.994459   0.93127914 
   24700    202.08291   -686.73822    134065.57    -41701.86    2514.2956   -44216.156    16.953189   0.93158512 
   24800    206.81243   -749.71182     134047.6    -41701.64    2573.1398    -44274.78    16.988676   0.93171001 
   24900      206.589   -660.01077    134161.64   -41649.472    2570.3599   -44219.832    16.916455   0.93091803 
   25000     205.9691   -634.46553    134206.97   -41624.527    2562.6471   -44187.174    16.868604   0.93060362 
   25100    204.31876   -653.83596    134190.77    -41631.74    2542.1138   -44173.854    16.894023   0.93071593 
   25200    200.80231   -556.15963    134258.18   -41662.141    2498.3625   -44160.503    16.895891   0.93024864 
   25300    205.12977   -482.06381    134203.16   -41666.344    2552.2044   -44218.549     17.01058   0.93063001 
   25400    205.28114   -731.17871    134182.37   -41661.105    2554.0877   -44215.192    17.017208   0.93077422 
   25500    203.28469   -641.58877    133936.58   -41611.487     2529.248   -44140.735    16.981595   0.93248233 
   25600    202.32263    -705.0555    134012.75    -41670.49    2517.2782   -44187.768    16.974623   0.93195233 
   25700    200.91148    -569.6677    134133.78   -41694.406    2499.7208   -44194.127    16.904804   0.93111141 
   25800    204.51547   -707.12812    134208.32    -41666.58    2544.5613   -44211.141    16.964827   0.93059427 
   25900    208.67312   -638.83866    134123.38   -41641.437    2596.2903   -44237.727    17.066488   0.93118358 
   26000    211.15754   -521.83604    134181.22   -41576.812    2627.2012   -44204.013    17.241508    0.9307822 
   26100    207.56316   -698.70348    134188.65   -41655.038    2582.4804   -44237.518    17.270905   0.93073064 
   26200    204.56451   -679.07954    134145.93   -41662.798    2545.1714   -44207.969    17.215529   0.93102703 
   26300    206.91503   -685.93458     134083.2   -41642.027    2574.4163   -44216.443    17.125794   0.93146261 
   26400     202.6341   -698.44205     134097.9   -41641.524    2521.1534   -44162.678    17.256389   0.93136051 
   26500    207.47595   -558.72674    134135.09   -41685.074    2581.3952    -44266.47    17.116848    0.9311023 
   26600    210.03695   -645.56496    134254.59   -41734.502     2613.259   -44347.761    17.241786   0.93027355 
   26700    199.50153   -532.74876     134127.6   -41757.058    2482.1783   -44239.236    17.291062    0.9311543 
   26800     207.3005   -566.50856     134286.7   -41695.977    2579.2123    -44275.19     17.41911   0.93005107 
   26900    204.49235   -760.97685       134248     -41686.9    2544.2736   -44231.173    17.440998   0.93031917 
   27000    202.82552   -714.80315    134124.27   -41731.747     2523.535   -44255.282    17.517004   0.93117745 
   27100     203.4367   -641.92888    134176.08    -41742.48    2531.1393   -44273.619    17.379941   0.93081785 
   27200    203.59886   -692.40005    134164.54   -41743.626    2533.1568   -44276.782    17.536356   0.93089789 
   27300    201.32659   -507.91963    134201.42   -41756.237    2504.8855   -44261.122    17.617216   0.93064212 
   27400    203.67224   -662.60068    134132.23   -41714.082    2534.0699   -44248.152    17.561724   0.93112212 
   27500    205.86418   -575.62408    134257.53   -41652.552    2561.3418   -44213.894     17.57706   0.93025313 
   27600    203.82586   -617.64676    134295.51   -41680.183    2535.9812   -44216.164    17.624534   0.92999008 
   27700    202.70022   -698.89413     134407.9   -41682.076    2521.9761   -44204.052    17.596329   0.92921245 
   27800     204.4453   -744.67403    134441.94   -41612.931    2543.6882   -44156.619    17.636889   0.92897713 
   27900    203.67963   -654.64574    134448.38   -41644.762    2534.1619   -44178.923    17.805598   0.92893269 
   28000    204.86226   -595.76813    134482.76   -41687.904    2548.8759    -44236.78    17.998806   0.92869516 
   28100    202.28995   -786.38999     134405.5   -41663.306    2516.8715   -44180.178    17.960716   0.92922902 
   28200    207.09693   -517.66554    134281.42   -41718.428    2576.6795   -44295.107     17.87856   0.93008769 
   28300    205.60239   -648.70755    134343.41   -41695.725    2558.0846    -44253.81    17.911083   0.92965848 
   28400    202.14434   -570.37482    134226.65   -41753.298    2515.0599   -44268.358    17.863297   0.93046717 
   28500    200.90537   -586.74078    134289.48   -41763.937    2499.6448   -44263.582    17.936126    0.9300318 
   28600    202.16072   -637.18107    134417.51   -41718.839    2515.2637   -44234.103    17.939901   0.92914602 
   28700    205.69488   -540.09652    134462.87   -41727.247    2559.2354   -44286.482    17.923477   0.92883254 
   28800    205.42099   -593.15435    134586.83   -41690.698    2555.8276   -44246.525    18.104487   0.92797708 
   28900    207.95132   -592.15639    134643.32   -41657.112    2587.3098   -44244.422    18.162645   0.92758774 
   29000    204.44374   -847.01796    134585.14   -41710.606    2543.6688   -44254.275    18.114913   0.92798874 
   29100    207.86876   -534.88492    134589.59   -41653.462    2586.2825   -44239.745    18.046513   0.92795805 
   29200    204.75795   -663.24934    134558.44   -41611.209    2547.5781   -44158.787    17.943267   0.92817289 
   29300    202.81654   -683.12455    134526.39   -41674.644    2523.4234   -44198.067    18.120336   0.92839399 
   29400    202.56847   -631.78867    134421.73   -41724.208    2520.3369   -44244.545    18.166311   0.92911684 
   29500     200.3987   -809.90499    134532.32   -41740.886    2493.3408   -44234.227    18.332124   0.92835303 
   29600    206.31568   -736.97248    134438.44    -41659.58    2566.9593   -44226.539    18.360851   0.92900131 
   29700    202.24121   -555.38508    134452.61   -41684.872    2516.2651   -44201.137    18.250501   0.92890343 
   29800    203.63061    -635.4233    134407.99   -41682.636     2533.552   -44216.187    18.389171   0.92921182 
   29900    200.80219   -705.15259    134482.15   -41704.479     2498.361    -44202.84    18.387102   0.92869937 
   30000    200.86874   -637.08977    134530.09   -41691.781     2499.189    -44190.97     18.45332   0.92836847 
   30100    207.05643   -658.53688    134332.87   -41683.815    2576.1757    -44259.99    18.425141   0.92973142 
   30200    204.13661   -671.67407     134348.4   -41695.079    2539.8475   -44234.927    18.616861   0.92962394 
   30300     204.5451   -609.79287     134333.9    -41655.36    2544.9299    -44200.29    18.645243   0.92972431 
   30400     204.5141   -712.85181    134289.77   -41654.872    2544.5442   -44199.416    18.731674    0.9300298 
   30500    202.15318   -653.75737    134314.29   -41664.414    2515.1699   -44179.584    18.625071   0.92986003 
   30600    201.34018   -549.96798    134343.18   -41641.987    2505.0546   -44147.041    18.552092   0.92966008 
   30700    202.80479   -588.19758    134476.86    -41657.37    2523.2771   -44180.647    18.655596   0.92873594 
   30800     207.0852   -514.33977    134437.64   -41603.709    2576.5336   -44180.242    18.777652   0.92900688 
   30900    203.97377   -717.33115    134503.95   -41721.019    2537.8215   -44258.841    18.636231   0.92854885 
   31000    202.46546   -693.02677    134362.85   -41757.668    2519.0553   -44276.723    18.427812   0.92952395 
   31100    204.30792   -599.76999    134238.34   -41762.418     2541.979   -44304.397    18.540916   0.93038612 
   31200    200.08332   -447.07306    134279.51   -41772.519    2489.4169   -44261.936    18.653047   0.93010087 
   31300    204.95711    -689.3372    134395.77   -41733.202    2550.0561   -44283.258    18.767206   0.92929627 
   31400     206.6067   -756.74343    134392.42   -41701.402    2570.5801   -44271.982    18.826354   0.92931943 
   31500    202.30021   -694.35028    134417.17   -41739.701    2516.9992     -44256.7    18.825876   0.92914837 
   31600    206.79534    -689.2863    134543.59   -41679.159    2572.9272   -44252.087    18.838364   0.92827527 
   31700    207.14583   -681.55993    134449.39   -41724.892     2577.288    -44302.18    18.772426   0.92892567 
   31800    205.55049   -721.58955    134440.06   -41675.297    2557.4388   -44232.736    18.732766   0.92899014 
   31900    204.53858   -682.08985    134362.02   -41665.547    2544.8488   -44210.395    18.902373   0.92952972 
   32000    205.36481    -598.1869    134311.38   -41660.623    2555.1287   -44215.752    18.823866   0.92988018 
   32100    206.35142   -560.42124    134497.98   -41680.543     2567.404   -44247.947    18.856326   0.92859005 
   32200    208.96628   -634.37632    134548.02    -41670.28    2599.9378   -44270.218    18.888025   0.92824471 
   32300    204.88042   -534.22182    134707.26   -41639.286     2549.102   -44188.388     19.12394   0.92714744 
   32400    206.07107   -734.43511    134592.23   -41707.482    2563.9158   -44271.398    19.214272    0.9279398 
   32500    209.62975   -635.16707    134372.88   -41713.712    2608.1926   -44321.904    19.072978   0.92945462 
   32600    205.26198   -570.18182    134387.77   -41668.596    2553.8493   -44222.445    19.034764   0.92935165 
   32700    205.27935   -746.07702     134397.2   -41728.648    2554.0654   -44282.713    18.975453   0.92928642 
   32800    202.68423    -527.8187    134501.17   -41750.073    2521.7771    -44271.85    19.040346   0.92856807 
   32900    203.60969   -715.44618    134470.84   -41748.165    2533.2916   -44281.457    19.116078   0.92877748 
   33000    202.70493   -617.32849     134351.3   -41805.035    2522.0347    -44327.07    19.054967   0.92960389 
   33100    202.05759   -742.60552    134345.43    -41735.02    2513.9806   -44249.001    19.258308   0.92964448 
   33200    202.59212   -568.71141    134501.07   -41771.496    2520.6312   -44292.127    19.226779   0.92856878 
   33300    207.67905   -591.52132    134503.28   -41713.434    2583.9222   -44297.356    19.228962   0.92855351 
   33400    210.57894   -643.54457    134576.74   -41792.849    2620.0023   -44412.851    19.348136   0.92804667 
   33500    202.20772   -603.70028    134660.88   -41763.871    2515.8484   -44279.719     19.23725   0.92746674 
   33600    205.65478   -707.39356    134661.71   -41743.966    2558.7365   -44302.702    19.113777   0.92746107 
   33700     202.8412    -590.5654    134565.13    -41729.94    2523.7301    -44253.67     19.11874   0.92812671 
   33800    207.15598   -650.68526    134506.33   -41728.787    2577.4142   -44306.202     19.18598   0.92853246 
   33900    203.80617   -662.37741    134455.07   -41741.626    2535.7362   -44277.362    19.407809   0.92888641 
   34000     205.4493   -585.77876    134565.03   -41700.418    2556.1799   -44256.598      19.4485   0.92812739 
   34100    203.86137   -591.13379    134591.74   -41735.479     2536.423   -44271.902    19.386044   0.92794323 
   34200    201.98219   -562.43018    134566.89   -41731.139    2513.0424   -44244.182    19.461843    0.9281146 
   34300    200.48162   -611.22626    134583.39   -41780.345    2494.3724   -44274.717    19.506063   0.92800079 
   34400    202.40285   -556.00371    134514.63   -41710.908    2518.2763   -44229.184    19.654578   0.92847518 
   34500    203.39192   -700.05511    134606.85   -41727.681    2530.5821   -44258.263    19.665378   0.92783901 
   34600    205.19954   -682.43855    134561.02   -41723.391    2553.0724   -44276.464    19.610758   0.92815508 
   34700    201.48751   -690.63109    134723.27   -41802.572    2506.8876    -44309.46    19.745666   0.92703723 
   34800    208.34189   -695.77203    134686.48   -41798.467    2592.1692   -44390.636    19.627457   0.92729049 
   34900    207.20875   -659.19728    134669.39   -41788.788    2578.0708   -44366.859    19.606499   0.92740817 
   35000    203.77909   -638.42101    134597.73   -41865.172    2535.3994   -44400.571    19.709984   0.92790193 
   35100      204.045    -618.9063    134631.34   -41807.256    2538.7077   -44345.964     19.69028   0.92767023 
   35200    204.87003    -589.5008    134733.32   -41809.608    2548.9727   -44358.581    19.791576   0.92696808 
   35300    199.61349   -608.41222    134698.95   -41801.487    2483.5713   -44285.058    19.857304   0.92720466 
   35400       198.99   -714.42671    134598.35   -41820.534    2475.8139   -44296.348    19.855758   0.92789764 
   35500    205.57208   -582.87978    134619.07   -41736.681    2557.7075   -44294.388    19.967717    0.9277548 
   35600    200.79567   -607.12171    134922.51   -41766.697    2498.2799   -44264.977    19.915317    0.9256683 
   35700    206.93465   -594.84819    134731.86   -41748.914    2574.6604   -44323.574     19.81809   0.92697814 
   35800    203.06961   -672.26296    134640.52   -41780.684     2526.572   -44307.256    19.787935     0.927607 
   35900    202.88375   -648.76938     134583.8   -41741.306    2524.2596   -44265.566    19.780955   0.92799798 
   36000    208.33277   -628.26826    134694.74   -41717.759    2592.0557   -44309.815    19.869689   0.92723358 
   36100    204.11638   -549.02602    134749.63   -41748.975    2539.5959    -44288.57    19.826878   0.92685589 
   36200    208.03596   -582.74673    134850.33     -41777.3    2588.3629   -44365.663    19.980663   0.92616375 
   36300    202.27171   -759.43146    134778.08   -41843.343    2516.6447   -44359.987    19.832331   0.92666028 
   36400    204.62845   -655.97409    134722.14   -41784.959     2545.967   -44330.926    19.881343   0.92704501 
   36500    203.62207   -781.97775    134696.59   -41768.381    2533.4457   -44301.827     19.90776   0.92722089 
   36600    203.88724   -528.62672    134712.92    -41871.67    2536.7449   -44408.415    19.987694   0.92710852 
   36700    202.23414   -680.66371    134782.05   -41829.121    2516.1772   -44345.298     20.06195   0.92663297 
   36800    201.09355   -702.41124    134904.76   -41834.686    2501.9861   -44336.672     20.02305   0.92579007 
   36900     202.2232   -741.10295    134973.02   -41843.702     2516.041   -44359.743    19.988864   0.92532188 
   37000    205.02627   -676.22941    135068.45   -41790.211    2550.9166   -44341.128    20.137709   0.92466815 
   37100    205.48525   -693.25866    135048.03   -41780.491    2556.6271   -44337.119    20.131446   0.92480797 
   37200    205.24772   -720.39186    135076.85   -41829.816    2553.6718   -44383.488    20.036128   0.92461063 
   37300    204.18685   -677.55246    134997.31   -41850.253    2540.4726   -44390.725    20.137783   0.92515544 
   37400    203.37133   -598.01343    134982.45   -41883.393     2530.326   -44413.719    20.254054   0.92525729 
   37500    203.09821   -599.76599    135041.35   -41897.253    2526.9278   -44424.181    20.296209   0.92485366 
   37600    206.18862   -632.04382    135001.73   -41861.423    2565.3785   -44426.801     20.25428   0.92512509 
   37700    204.49534   -675.26052    135081.14   -41876.272    2544.3108   -44420.582    20.110171    0.9245813 
   37800    199.09258   -767.02029    135009.08    -41967.51    2477.0902     -44444.6    20.184791   0.92507478 
   37900     204.5068   -515.26262    135047.94   -41928.023    2544.4534   -44472.476    20.287657   0.92480859 
   38000    204.72461   -660.32603    134963.28   -41911.339    2547.1634   -44458.503    20.094868   0.92538871 
   38100    201.97591   -687.40476    135133.99   -41870.649    2512.9643   -44383.613    20.308382   0.92421965 
   38200    206.61997   -717.37198    135068.13   -41883.204    2570.7452   -44453.949    20.405214   0.92467032 
   38300    207.40046   -648.97403    135213.66   -41828.429     2580.456   -44408.885    20.509922   0.92367512 
   38400    205.30535   -620.16797    135231.79   -41893.955    2554.3889   -44448.344    20.510404   0.92355129 
   38500    205.62779   -778.71801    135295.06   -41921.799    2558.4006   -44480.199    20.376776    0.9231194 
   38600    206.26515   -633.64217    135061.89   -41880.265    2566.3306   -44446.595    20.274854   0.92471307 
   38700    204.32375    -632.9718    135255.19   -41892.412    2542.1759   -44434.588     20.33567   0.92339148 
   38800    204.56259   -569.81501    135179.37   -41913.078    2545.1475   -44458.225    20.404987   0.92390941 
   38900    207.17226   -577.68895    135365.93   -41863.934    2577.6168   -44441.551     20.45935   0.92263606 
   39000    203.11958    -664.2006    135203.12   -41895.731    2527.1937   -44422.925    20.484568   0.92374714 
   39100    207.47865   -592.66714    135218.14   -41869.242    2581.4288   -44450.671    20.520622    0.9236445 
   39200     206.0684   -701.54762     135367.4   -41888.006    2563.8827   -44451.889    20.624381   0.92262607 
   39300    204.95514   -634.61385    135336.74   -41875.509    2550.0316    -44425.54    20.556753   0.92283505 
   39400    207.03019   -690.37444    135241.29   -41843.968    2575.8491   -44419.817    20.585154   0.92348637 
   39500    208.65548   -519.07554     135218.9   -41807.925    2596.0709   -44403.996    20.552584    0.9236393 
   39600    207.91274   -569.43175    135304.55   -41839.737    2586.8297   -44426.566    20.412785   0.92305462 
   39700    206.80348   -687.00126    135331.43   -41798.323    2573.0284   -44371.351    20.644619   0.92287128 
   39800    203.61551   -652.81012    135371.99   -41864.385    2533.3641   -44397.749    20.628448   0.92259477 
   39900    200.81115   -565.96242    135426.11   -41921.828    2498.4725   -44420.301    20.717597   0.92222611 
   40000    196.69593   -550.87967    135324.58   -41934.274    2447.2713   -44381.545    20.667163   0.92291803 
   40100     204.3814   -777.72675    135263.79   -41850.932    2542.8932   -44393.826    20.388187   0.92333278 
   40200    206.97059   -600.70408    135270.32   -41872.523    2575.1076   -44447.631    20.541381   0.92328819 
   40300    206.43507     -663.554    135224.17    -41863.93    2568.4447   -44432.375    20.621232   0.92360329 
   40400    203.47099   -718.36763    135196.04   -41786.618    2531.5659   -44318.184    20.733769   0.92379545 
   40500    209.08835   -795.15375    135316.92   -41793.499    2601.4565   -44394.955    20.864284   0.92297024 
   40600    209.96112   -696.64978    135272.55   -41842.786    2612.3154   -44455.101    20.708082   0.92327299 
   40700    204.83332   -666.10177       135082   -41899.269    2548.5159   -44447.785    20.695779   0.92457538 
   40800    204.15829   -525.82887    135202.17   -41931.924    2540.1172   -44472.041    20.588287   0.92375357 
   40900     203.0006   -730.28928    135088.15   -41964.036    2525.7134   -44489.749      20.6386   0.92453328 
   41000    203.66782   -619.88067    135150.23     -41881.2    2534.0148   -44415.215    20.760672   0.92410861 
   41100    204.96972   -665.51565    135194.35   -41861.869    2550.2129   -44412.082    20.661676   0.92380705 
   41200    205.24362   -689.52134    135090.88   -41866.698    2553.6208   -44420.319    20.613201   0.92451462 
   41300    200.78274   -610.21083    135115.87   -42011.331     2498.119    -44509.45    20.646115    0.9243436 
   41400    201.22266    -627.0163    135219.81   -41967.181    2503.5925   -44470.774     20.76389   0.92363306 
   41500     203.3402   -689.02318       135284   -41963.814    2529.9387   -44493.753    20.908698   0.92319485 
   41600    204.88769   -585.86703    135183.55   -41927.919    2549.1924   -44477.111    20.984402   0.92388083 
   41700    206.19215   -652.90915    135121.34   -41921.594    2565.4223   -44487.016    20.836427   0.92430617 
   41800    203.77162   -655.52649    135169.33   -41931.593    2535.3064   -44466.899     20.80659   0.92397806 
   41900    207.29806   -626.25309    135219.71   -41917.333     2579.182   -44496.515    20.800806   0.92363379 
   42000    209.34677   -669.87296    135333.23   -41908.191    2604.6718   -44512.862       20.818   0.92285898 
   42100     209.9672   -654.93968    135339.57   -41898.247    2612.3912   -44510.638    20.868442   0.92281576 
   42200    209.06542   -717.65206    135373.67   -41854.556    2601.1713   -44455.727    20.941055   0.92258332 
   42300    203.86494   -728.47983    135404.35   -41843.681    2536.4674   -44380.148    20.940067   0.92237431 
   42400    205.23367   -594.39166    135348.37   -41884.685    2553.4971   -44438.182    21.006791   0.92275576 
   42500    204.93049   -647.36644    135334.61   -41875.732    2549.7249   -44425.457    21.054926   0.92284958 
   42600    202.25141   -699.95499    135395.89   -41893.002    2516.3921   -44409.394    20.896804   0.92243191 
   42700      205.024   -591.71949    135325.85   -41896.178    2550.8884   -44447.067    20.862611   0.92290931 
   42800    207.59306   -698.14794    135448.55   -41863.743    2582.8523   -44446.595    20.939288   0.92207327 
   42900    202.87172   -647.01123    135397.92   -41929.517    2524.1098   -44453.627    20.975092   0.92241809 
   43000    202.03075    -635.9045    135453.11    -41946.55    2513.6467   -44460.196    21.027412   0.92204229 
   43100    205.45974   -646.37187    135511.43   -41921.187    2556.3097   -44477.497    21.125485   0.92164541 
   43200    204.40927   -633.56456     135686.7   -41882.412    2543.2399   -44425.651    21.102251   0.92045491 
   43300    203.24451   -800.77195    135674.92   -41896.663    2528.7481   -44425.411    21.237443   0.92053487 
   43400    207.11245   -568.90171    135580.65   -41849.143    2576.8727   -44426.015    21.243301   0.92117488 
   43500    205.23702   -651.76078    135711.51   -41856.909    2553.5387   -44410.448    21.334908   0.92028663 
   43600    211.64297   -637.06297    135650.87   -41778.241    2633.2409   -44411.482    21.312848   0.92069805 
   43700    206.04405   -610.51133     135716.1   -41797.543    2563.5797   -44361.123    21.321744    0.9202555 
   43800    206.92977   -670.26266    135768.43   -41803.731    2574.5997    -44378.33    21.434518   0.91990084 
   43900    207.13114   -649.59871    135618.34    -41841.79    2577.1052   -44418.895    21.338724   0.92091886 
   44000    203.52895   -587.14297    135546.93   -41869.111    2532.2871   -44401.398    21.279228   0.92140406 
   44100    206.95235   -619.12525    135660.16   -41884.826    2574.8806   -44459.707    21.334087   0.92063498 
   44200    203.76712   -734.91523    135587.47   -41919.922    2535.2504   -44455.172    21.227082   0.92112853 
   44300    202.01212   -693.62218    135663.59   -41922.828    2513.4148   -44436.243    21.150291   0.92061173 
   44400    204.69106     -701.635    135577.69   -41888.573    2546.7459   -44435.319    21.215122   0.92119502 
   44500    203.42433   -717.27082    135558.64   -41928.993    2530.9854   -44459.978    21.228811   0.92132444 
   44600    202.08722    -763.8874    135467.13   -41972.807    2514.3492   -44487.157    21.339401    0.9219468 
   44700    205.14852   -657.13239    135327.24   -41951.495    2552.4375   -44503.932    21.212279   0.92289989 
   44800    205.11994   -720.31083    135333.62     -41921.6     2552.082   -44473.682     21.34328   0.92285637 
   44900    206.65186   -701.96181    135311.68   -41887.604     2571.142   -44458.746    21.124998   0.92300601 
   45000    207.59449   -544.28821     135293.6   -41878.263    2582.8701   -44461.133    21.224259   0.92312931 
   45100    202.28092   -659.93764     135426.3   -41843.046    2516.7592   -44359.805    21.327627   0.92222481 
   45200    202.61686   -622.82227    135441.79   -41897.141    2520.9389    -44418.08    21.422915   0.92211934 
   45300    205.16251   -761.14118    135495.75   -41898.083    2552.6117   -44450.695    21.500511    0.9217521 
   45400    205.85215    -735.6808    135403.43   -41899.404    2561.1921   -44460.596    21.413669   0.92238058 
   45500    207.13549   -705.27783    135358.94   -41912.994    2577.1593   -44490.154    21.245457    0.9226837 
   45600    205.80372   -555.74812    135330.45   -41905.871    2560.5895   -44466.461    21.287245   0.92287796 
   45700    206.64985    -717.9048    135450.04   -41911.016    2571.1171   -44482.133    21.283493   0.92206315 
   45800     207.6159   -628.67295    135430.88   -41877.935    2583.1366   -44461.072    21.358829   0.92219357 
   45900    208.22653   -637.28122    135484.72    -41826.01    2590.7339   -44416.744    21.396192   0.92182714 
   46000    212.36587   -681.89316    135381.46   -41818.022    2642.2352   -44460.257    21.436259   0.92253026 
   46100    214.62573    -636.1649    135535.34   -41783.891    2670.3521   -44454.244     21.47208   0.92148285 
   46200    210.84341    -702.7803    135658.02   -41770.226    2623.2929   -44393.519    21.578616   0.92064954 
   46300    210.17158    -686.3935    135625.59   -41795.405     2614.934   -44410.339    21.622021   0.92086967 
   46400    207.23124   -521.39265    135596.56   -41838.085    2578.3506   -44416.435    21.545679   0.92106678 
   46500    207.78853   -691.84116    135505.86   -41860.645    2585.2843   -44445.929    21.436179   0.92168333 
   46600    208.10581   -832.97778    135417.74   -41840.916    2589.2319   -44430.148    21.303112   0.92228312 
   46700    201.90708   -717.12827    135527.25   -41904.503    2512.1079   -44416.611    21.531812   0.92153785 
   46800    202.58225   -674.91023    135595.59   -41946.913    2520.5083   -44467.422    21.490771    0.9210734 
   46900    203.29002   -748.68437    135526.23   -41888.094    2529.3143   -44417.408    21.547483    0.9215448 
   47000    205.36119   -625.21207    135591.79   -41863.382    2555.0836   -44418.466    21.624308   0.92109923 
   47100    207.23292   -761.48504    135624.38   -41834.889    2578.3716   -44413.261     21.52788    0.9208779 
   47200    208.28193   -397.99728     135683.3   -41887.776    2591.4232     -44479.2    21.574486   0.92047798 
   47300    205.05548   -518.96575    135721.29   -41907.338      2551.28   -44458.618    21.671584   0.92022032 
   47400    202.83956   -749.59466     135627.7   -41862.108    2523.7098   -44385.818    21.723729   0.92085534 
   47500    205.95578   -657.95305    135588.86    -41803.03    2562.4815   -44365.512    21.665709   0.92111913 
   47600    207.32798   -629.36449    135469.02   -41776.656    2579.5543    -44356.21    21.635694     0.921934 
   47700    207.00466   -642.82492    135376.85    -41823.29    2575.5316   -44398.821    21.712813   0.92256164 
   47800    211.97456   -671.47706    135488.44   -41840.754    2637.3666    -44478.12    21.769716   0.92180184 
   47900    203.70529   -710.75662    135468.31   -41918.617    2534.4811   -44453.098    21.737665   0.92193882 
   48000    201.07161   -636.45579     135508.9   -41929.925    2501.7131   -44431.638    21.656122   0.92166265 
   48100     204.4633   -688.45479    135499.38   -41898.558    2543.9122    -44442.47    21.674406   0.92172738 
   48200    203.34028   -739.02486    135365.54   -41927.519    2529.9397   -44457.459    21.473861   0.92263874 
   48300    203.14842    -527.4773    135543.52   -41913.822    2527.5526   -44441.374    21.620005   0.92142727 
   48400    208.53101   -613.94304    135622.27   -41839.923    2594.5222   -44434.445    21.740032   0.92089219 
   48500    205.45508   -668.02884    135548.56   -41909.303    2556.2519   -44465.555    21.751746   0.92139295 
   48600    206.01597   -740.77759    135435.57   -41895.971    2563.2304   -44459.201    21.649761   0.92216164 
   48700    207.90302   -691.41287    135388.24   -41871.286    2586.7088   -44457.995    21.685838   0.92248406 
   48800    203.40623   -578.76164    135415.28   -41894.433    2530.7601   -44425.193    21.620488   0.92229985 
   48900    208.04429     -588.451    135430.98   -41889.897    2588.4665   -44478.364    21.690621   0.92219293 
   49000    203.54748   -559.97168    135351.65   -41922.342    2532.5177    -44454.86    21.616502   0.92273341 
   49100    202.47693   -617.70331    135390.71     -41925.9    2519.1979   -44445.098    21.831801   0.92246719 
   49200    201.39848   -690.30954    135412.71   -41931.753      2505.78   -44437.533    21.972443   0.92231737 
   49300    209.75193   -578.20434    135509.72   -41890.336    2609.7128   -44500.049    21.842889   0.92165706 
   49400    208.55462   -672.48348    135427.26   -41864.852     2594.816   -44459.668     21.76245   0.92221826 
   49500    208.03445   -660.02521    135439.64   -41892.624    2588.3441   -44480.968    21.877954   0.92213393 
   49600    209.12889   -652.33643    135299.98   -41884.937     2601.961   -44486.898    21.648081   0.92308578 
   49700    202.99464   -702.60161    135387.82   -41903.899    2525.6392   -44429.538    21.706478   0.92248693 
   49800    203.21988   -599.54891    135498.08   -41946.719    2528.4416    -44475.16    21.635943   0.92173622 
   49900    206.15247    -728.3141     135297.3   -41838.941    2564.9287    -44403.87    21.642679   0.92310412 
   50000    208.34135   -631.80012    135384.06   -41889.734    2592.1625   -44481.897    21.810033   0.92251256 
   50100     207.9704   -609.93303    135472.53   -41900.736    2587.5471   -44488.283    21.876656   0.92191011 
   50200    207.52238   -638.02028    135526.47   -41942.887    2581.9729    -44524.86     21.84396   0.92154319 
   50300    204.53158   -620.56622    135489.27   -41922.016    2544.7617   -44466.778    21.807111   0.92179618 
   50400    206.33827    -593.4451    135508.24   -41947.975    2567.2404   -44515.215    21.762861   0.92166712 
   50500    204.96306   -651.97147    135568.58   -41984.401    2550.1302   -44534.531    21.785073   0.92125689 
   50600    201.18438   -729.43203    135538.73   -41999.832    2503.1161   -44502.948    21.818607    0.9214598 
   50700    201.45074   -680.64105    135472.94    -42014.63    2506.4302    -44521.06    21.804162   0.92190729 
   50800    203.62097   -641.67992    135476.77   -42006.595     2533.432   -44540.027    21.837222   0.92188125 
   50900    205.11341   -666.54541       135661   -41936.788    2552.0007   -44488.789    22.005897   0.92062931 
   51000    202.52999   -706.94641    135692.66   -41960.755    2519.8581   -44480.613    21.936073   0.92041448 
   51100    204.52666   -651.59021    135732.11   -41985.328    2544.7005   -44530.028    21.864077   0.92014695 
   51200    203.43743   -648.03295    135802.04   -41950.268    2531.1485   -44481.417    21.851903   0.91967313 
   51300    203.07629   -547.01693    135698.59    -42017.88    2526.6551   -44544.535    21.854845   0.92037427 
   51400    201.11765   -749.21364    135536.12   -42014.948    2502.2859   -44517.234    21.851762   0.92147752 
   51500    200.58055   -610.82612     135584.5   -42025.231    2495.6034   -44520.835     21.92614   0.92114877 
   51600    205.45098   -826.49381    135604.52   -41962.726    2556.2008   -44518.926    22.011518   0.92101274 
   51700    204.11586    -551.0586    135556.04   -41956.174    2539.5894   -44495.764    21.989258   0.92134217 
   51800    202.88451   -724.45192     135538.5   -41994.581     2524.269    -44518.85    22.006578   0.92146135 
   51900    200.10719   -657.76439    135528.44   -42032.916    2489.7139    -44522.63    22.040146   0.92152975 
   52000    202.48315   -580.62408    135504.11   -42042.704    2519.2754   -44561.979    22.008511   0.92169526 
   52100    202.53788   -815.49342    135484.96   -41985.038    2519.9562   -44504.994     21.83787   0.92182548 
   52200    205.72161   -680.53419    135468.74   -42008.755    2559.5679   -44568.322    21.928434   0.92193589 
   52300    200.44008   -744.30566    135486.43   -41991.557    2493.8557   -44485.413    21.974328   0.92181553 
   52400     202.9966   -585.57621    135568.66   -41946.067    2525.6636    -44471.73    21.993113   0.92125638 
   52500    207.35548   -666.83534    135513.15   -41942.546    2579.8964   -44522.443    22.054177   0.92163376 
   52600    205.28198    -739.1029    135678.69   -41969.319    2554.0981   -44523.417    21.992434   0.92050926 
   52700     201.9588   -611.90919    135644.84   -41992.846    2512.7515   -44505.597    21.979459     0.920739 
   52800    202.05305   -612.41824    135651.12   -41962.357    2513.9241   -44476.281    22.095418   0.92069638 
   52900    205.09362   -607.25198    135642.45   -41954.007    2551.7545   -44505.762    22.034894   0.92075519 
   53000    201.08493   -560.48882    135626.39   -41933.435    2501.8788   -44435.313    22.101332   0.92086423 
   53100    206.74731   -675.00086    135627.32   -41986.698    2572.3296   -44559.028    22.120834   0.92085791 
   53200    207.97855   -565.06754     135608.8   -41977.279    2587.6486   -44564.927    22.130845   0.92098369 
   53300     203.2267   -620.48888    135607.04   -41957.151    2528.5265   -44485.677    22.188511   0.92099564 
   53400    202.13879   -693.49942    135690.35   -42040.992    2514.9908   -44555.983    22.101842   0.92043016 
   53500    205.09434   -583.74992    135756.03   -42043.974    2551.7635   -44595.738    22.079385   0.91998486 
   53600    203.09234   -663.70535       135757    -42052.76    2526.8548   -44579.615    22.083984   0.91997828 
   53700    201.01092   -661.10851    135624.53   -42070.499    2500.9581   -44571.457    22.065879   0.92087688 
   53800    206.28109   -726.52832    135734.97   -41960.846     2566.529   -44527.375    22.116521   0.92012757 
   53900      204.301   -556.27995    135689.27   -42020.892    2541.8929   -44562.785    22.199812    0.9204375 
   54000    202.96599   -548.05525    135611.79   -41994.419    2525.2828   -44519.702    22.210304   0.92096339 
   54100    203.76035   -676.85324    135756.54   -41999.376    2535.1662   -44534.542    22.308811   0.91998141 
   54200    204.93885   -598.03798    135723.97   -41986.091    2549.8289    -44535.92    22.201283    0.9202022 
   54300    202.43293   -664.71017    135684.05   -41957.875    2518.6505   -44476.525    22.140851   0.92047289 
   54400    206.36097   -610.60663    135809.27   -41988.259    2567.5228   -44555.782    22.224994   0.91962421 
   54500     205.1275   -736.69234     135618.9   -41989.646    2552.1761   -44541.822    22.209889   0.92091507 
   54600    207.58261   -681.94164    135627.77   -41897.559    2582.7223   -44480.281    22.269679   0.92085489 
   54700    206.01988   -786.65256    135532.85   -41920.243    2563.2789   -44483.522    22.207274   0.92149979 
   54800    208.28501   -680.97797     135631.9   -41971.961    2591.4615   -44563.423     22.29052   0.92082684 
   54900    206.87364   -674.83856    135584.79   -42020.707    2573.9013   -44594.609    22.215381   0.92114679 
   55000    196.93376   -728.44044    135605.29   -42065.385    2450.2304   -44515.615    22.332152   0.92100752 
   55100    202.12143   -678.25629    135697.31   -42015.079    2514.7749   -44529.854    22.391565   0.92038296 
   55200    202.73696    -695.5772    135771.35   -42024.298    2522.4332   -44546.731    22.314273   0.91988104 
   55300    203.33024   -585.21676    135848.64   -41976.299    2529.8147   -44506.114    22.363625   0.91935769 
   55400    206.39543   -743.85569    135825.04   -41964.543    2567.9515   -44532.494    22.336365    0.9195174 
   55500    206.77385   -699.39317     135854.2   -41918.064    2572.6598   -44490.724    22.418171   0.91932004 
   55600    204.49434    -596.4076    135861.95    -41951.07    2544.2984   -44495.369    22.230372   0.91926763 
   55700    204.79056    -684.6961    135883.83   -41952.122    2547.9839   -44500.106    22.297974   0.91911958 
   55800    205.77993   -613.20444    135861.87   -41966.537    2560.2935    -44526.83    22.345155   0.91926817 
   55900    206.72281   -695.55239    135819.06   -41936.635    2572.0248   -44508.659    22.410666   0.91955789 
   56000    208.50099   -649.19166    135804.79   -41930.833    2594.1487   -44524.982    22.411031   0.91965453 
   56100    207.57125   -653.20898    135901.69   -41904.801    2582.5809   -44487.381    22.421505    0.9189988 
   56200    203.64975   -622.72837    135936.28   -41905.163      2533.79   -44438.953      22.3796   0.91876497 
   56300    206.12603    -756.4318    135874.94   -41947.018    2564.5997   -44511.618    22.335957   0.91917976 
   56400    207.08665   -666.72561    135681.73   -41935.502    2576.5517   -44512.053    22.435434   0.92048865 
   56500    204.12705   -680.87978       135664   -42005.509    2539.7286   -44545.237    22.527784   0.92060897 
   56600    202.87234   -737.28575    135738.69   -42024.007    2524.1175   -44548.125    22.530564    0.9201024 
   56700    202.08587   -727.01789    135610.62   -42053.493    2514.3324   -44567.825    22.520776   0.92097132 
   56800    203.31469   -640.73149    135523.06   -41989.003    2529.6213   -44518.625    22.437553   0.92156631 
   56900    204.21835   -711.45791    135570.09   -41964.257    2540.8645   -44505.121    22.465841   0.92124667 
   57000    206.06199   -656.91444    135624.89   -41916.153    2563.8029   -44479.956    22.510671   0.92087439 
   57100    203.66847   -733.29902    135699.93   -41955.556     2534.023   -44489.579     22.50121    0.9203652 
   57200    203.48764   -673.27544    135646.97   -41999.747    2531.7731    -44531.52       22.415   0.92072455 
   57300     200.9871    -706.1452     135536.3   -42045.615    2500.6616   -44546.276    22.627979   0.92147633 
   57400    206.12064   -692.73406    135677.54   -42049.191    2564.5326   -44613.723    22.599597    0.9205171 
   57500    201.44281   -657.47484    135676.43   -42087.871    2506.3315   -44594.203    22.518559   0.92052462 
   57600    199.59111   -647.84214    135733.14   -42048.892    2483.2929   -44532.185    22.434815   0.92014001 
   57700    200.76793   -722.70193     135621.9   -42084.666    2497.9348   -44582.601    22.508497   0.92089471 
   57800    201.31791   -712.16315    135569.94   -42101.594    2504.7775   -44606.371    22.552555   0.92124764 
   57900    200.15741   -591.02942    135538.82   -42077.991    2490.3387    -44568.33    22.554025   0.92145921 
   58000    203.89206   -660.62126    135606.71   -42061.841    2536.8048   -44598.646    22.438312   0.92099784 
   58100    203.17205   -618.40943    135610.94   -42010.642    2527.8465   -44538.489    22.486979   0.92096914 
   58200    203.91916   -615.59549    135732.71   -41959.941    2537.1421   -44497.083    22.519354   0.92014288 
   58300     208.7354   -632.91068     135725.2   -41906.651    2597.0652   -44503.716    22.453981   0.92019386 
   58400    204.51114   -744.00762    135644.22   -41918.143    2544.5074    -44462.65    22.527888   0.92074321 
   58500    207.77176    -633.5651    135556.11   -41922.046    2585.0757   -44507.121    22.512868   0.92134163 
   58600    205.31101   -720.23319     135661.6   -41895.502    2554.4592   -44449.962    22.439498   0.92062525 
   58700    207.45108   -893.69368    135661.11   -41905.515    2581.0858   -44486.601    22.579171   0.92062856 
   58800    204.33003   -727.65868    135643.72   -41954.039     2542.254   -44496.293    22.647606    0.9207466 
   58900    203.09343   -733.79643    135674.76   -42000.618    2526.8683   -44527.486    22.512216   0.92053593 
   59000    204.04696   -759.90836    135621.16   -41994.534    2538.7321   -44533.266    22.596468   0.92089976 
   59100    201.37271   -680.99487    135698.49   -41993.102    2505.4594   -44498.562    22.556741   0.92037496 
   59200    208.21391   -690.17282    135785.94   -41995.984    2590.5769   -44586.561    22.555108    0.9197822 
   59300    203.64558   -637.56398    135800.06   -42002.929    2533.7382   -44536.667    22.596237   0.91968657 
   59400    203.29487   -647.93344    135762.56   -42062.581    2529.3747   -44591.956    22.614265    0.9199406 
   59500    203.45532   -678.84377    135712.44   -42023.395    2531.3709   -44554.766    22.859922   0.92028036 
   59600    202.48798   -638.63081     135701.3   -42014.849    2519.3354   -44534.184    22.767193   0.92035591 
   59700    203.23204   -709.36694    135761.74   -42035.998    2528.5929   -44564.591    22.653288   0.91994618 
   59800    203.84654   -671.18169    135681.46   -42036.279    2536.2386   -44572.517    22.467902   0.92049046 
   59900    204.32019   -612.48428    135681.19   -42018.119    2542.1316    -44560.25    22.439811   0.92049233 
   60000    202.41136   -639.51413    135592.18   -42057.281    2518.3821   -44575.663     22.54692   0.92109659 
   60100    203.95803   -666.61966    135559.77   -42015.176    2537.6257   -44552.802    22.645224    0.9213168 
   60200    207.43667   -536.22097    135485.86   -41997.294    2580.9066     -44578.2    22.752425    0.9218194 
   60300     208.6824   -614.86051    135563.22   -41950.554    2596.4058    -44546.96    22.771638   0.92129334 
   60400    208.00855   -625.89177    135669.31    -41899.09    2588.0218   -44487.112    22.705851   0.92057294 
   60500    206.66299   -640.09425    135520.65   -41942.656    2571.2805   -44513.936    22.553893   0.92158274 
   60600    206.31337   -538.24038    135569.98   -41976.702    2566.9305   -44543.632    22.552275   0.92124739 
   60700    205.36455   -637.02275    135672.93   -42008.776    2555.1255   -44563.901    22.701339   0.92054836 
   60800    205.89453    -759.5545    135711.59     -41982.3    2561.7194   -44544.019    22.898231    0.9202861 
   60900    203.64725   -718.17316    135568.13   -41985.856     2533.759   -44519.615    22.816607   0.92125996 
   61000    204.64204   -514.50119    135475.18   -42017.904     2546.136    -44564.04    22.821549   0.92189202 
   61100    205.82543   -643.39919    135455.46   -42050.684    2560.8596   -44611.544    22.739221   0.92202624 
   61200    204.05042   -645.12447    135480.62   -42046.753    2538.7752   -44585.528    22.810859     0.921855 
   61300    203.34792   -650.37231    135435.04   -42033.134    2530.0347   -44563.169    22.725736   0.92216527 
   61400    204.01703    -709.2526     135448.9   -42062.673    2538.3597   -44601.033     22.72953    0.9220709 
   61500    200.61505   -528.33259    135378.27   -42066.204    2496.0326   -44562.237    22.913174   0.92255197 
   61600    201.37898   -643.96424    135343.71   -42010.075    2505.5374   -44515.612    22.891114   0.92278752 
   61700    199.27984   -555.65287    135505.87   -42084.574    2479.4201   -44563.994    22.838263   0.92168324 
   61800    200.18231    -689.5725    135594.54   -42138.901    2490.6485   -44629.549    22.803562   0.92108052 
   61900    201.82379   -708.25634    135468.39   -42076.695    2511.0716   -44587.767    22.766213   0.92193824 
   62000    204.33707   -627.52817    135499.24   -42040.242    2542.3416   -44582.583    22.898299   0.92172833 
   62100    202.31568   -607.32552    135551.42   -42056.265    2517.1917   -44573.456    22.834881   0.92137355 
   62200    202.33419   -541.51429    135594.48   -42015.226    2517.4219   -44532.648    22.865586   0.92108095 
   62300    203.48604    -729.5889     135563.6   -42042.969    2531.7532   -44574.722    22.841913   0.92129075 
   62400    206.19519   -656.95432    135626.31   -42002.152    2565.4601   -44567.612     22.83497   0.92086478 
   62500     206.4509   -649.60172    135617.97   -42016.378    2568.6417    -44585.02    22.852039   0.92092138 
   62600     205.9087   -659.28009    135610.95   -42026.323    2561.8957   -44588.219    22.928411   0.92096908 
   62700    202.95465   -669.14701    135622.49   -42049.572    2525.1417   -44574.714    22.855691   0.92089071 
   62800     204.8255   -611.67233    135574.64   -42045.382    2548.4186   -44593.801    22.957838   0.92121574 
   62900    204.80209   -551.37496    135615.16   -41984.631    2548.1273   -44532.759    23.001107   0.92094051 
   63000    204.99781    -751.3218     135604.4   -41951.758    2550.5625    -44502.32    22.974705   0.92101358 
   63100    208.88788   -667.59414    135679.23   -41944.663    2598.9624   -44543.625    22.944124    0.9205056 
   63200    204.32283   -662.87542    135778.64   -41982.466    2542.1645   -44524.631     23.11954   0.91983165 
   63300    206.51368   -511.53121    135684.45   -42020.675    2569.4227   -44590.097    23.090776   0.92047022 
   63400    208.57753   -683.85717    135714.17   -41944.964     2595.101   -44540.065    23.214684   0.92026863 
   63500    203.27278   -613.85788    135681.56   -42025.582    2529.0998   -44554.682     23.10731   0.92048979 
   63600    206.46687   -619.19075    135749.68   -42024.631    2568.8404   -44593.472    22.938918   0.92002787 
   63700    202.08144   -751.99289    135774.92   -42039.485    2514.2773   -44553.763    23.086773   0.91985688 
   63800     200.7566   -650.62423    135695.18   -42132.741    2497.7938   -44630.535    23.027538   0.92039739 
   63900    200.20967   -602.61093    135617.81   -42109.052    2490.9889   -44600.041    22.995966    0.9209225 
   64000    200.64899   -633.27985    135627.79   -42099.231    2496.4549   -44595.686    22.965285   0.92085473 
   64100    204.04511   -638.69397     135599.7   -42018.564    2538.7091   -44557.274    23.011895   0.92104546 
   64200    206.77198   -722.57856    135659.58   -42014.925    2572.6365   -44587.562    23.148162   0.92063895 
   64300    210.66244   -663.73338    135585.98   -41936.916    2621.0413   -44557.957    23.254075   0.92113866 
   64400    208.46879   -569.65333     135630.8   -41964.069    2593.7481   -44557.817    23.150447   0.92083431 
   64500    206.78862   -793.58646    135773.83   -41964.175    2572.8435   -44537.019    23.110834   0.91986424 
   64600    205.28799   -590.72216    135612.17   -42004.343    2554.1729   -44558.516    23.125475   0.92096076 
   64700    205.24731   -680.26617    135711.41   -42027.006    2553.6668   -44580.673     23.19945    0.9202873 
   64800    205.68875   -659.46836    135701.04   -42028.424    2559.1591   -44587.583    23.258304   0.92035767 
   64900    206.87305   -595.63053    135724.11    -42009.47     2573.894   -44583.364    23.250656   0.92020122 
   65000    208.22377   -695.96268    135657.88   -41986.171    2590.6995   -44576.871    23.201551   0.92065046 
   65100     202.6993   -576.15246    135656.52   -42008.961    2521.9647   -44530.926    23.127325   0.92065972 
   65200     201.3923   -678.52651    135595.57   -41997.196    2505.7031   -44502.899    23.163701   0.92107351 
   65300    205.58501   -637.26791    135729.23   -41988.958    2557.8683   -44546.826     23.21045   0.92016647 
   65400    207.32819    -604.6319    135747.02   -41944.189    2579.5568   -44523.746    23.095189    0.9200459 
   65500    204.79565    -761.5098    135705.16   -42018.624    2548.0473   -44566.672    23.080301   0.92032973 
   65600    205.40815   -708.14006    135758.22   -42059.524    2555.6678   -44615.192    23.049791   0.91997003 
   65700    204.12344   -658.54482    135761.91   -42093.565    2539.6837   -44633.249    23.279392   0.91994503 
   65800    202.61389   -661.66226    135727.47   -42097.807     2520.902   -44618.709    23.453304   0.92017841 
   65900    204.96294    -709.3231    135727.26   -42075.653    2550.1286   -44625.781    23.263862   0.92017984 
   66000    207.11624    -558.1649    135817.22   -41984.154    2576.9197   -44561.074    23.265284   0.91957034 
   66100    207.70936   -560.41023    135806.59   -41941.546    2584.2993   -44525.845    23.512361   0.91964232 
   66200    210.03873   -611.46395    135784.21   -41909.686    2613.2812   -44522.967    23.441007   0.91979389 
   66300    205.42655   -661.56309    135732.36   -41953.544    2555.8969   -44509.441    23.352177   0.92014528 
   66400    205.44099   -729.25388    135757.22   -41996.807    2556.0765   -44552.883     23.30161   0.91997678 
   66500    206.38527   -648.57493     135850.5   -42006.814    2567.8251   -44574.639    23.349639   0.91934512 
   66600    202.61473   -650.17882    135827.84   -42026.966    2520.9124   -44547.878    23.421046   0.91949847 
   66700    200.84529   -674.10845    135729.03   -42042.333    2498.8972    -44541.23    23.286769   0.92016788 
   66800    201.28361   -504.88052    135723.48   -41969.939    2504.3508    -44474.29    23.369555   0.92020547 
[...]
   84600    201.92382   -630.57035    136321.55   -42170.955    2512.3162   -44683.271    24.452926   0.91616836 
   84700    204.21604   -651.64459    136271.74   -42186.696    2540.8358   -44727.532    24.487992   0.91650321 
   84800     201.7912    -677.7568    136345.27   -42153.807    2510.6662   -44664.473    24.438655   0.91600896 
   84900    202.39856   -665.61117    136251.12   -42131.981    2518.2228   -44650.204    24.501818   0.91664196 
   85000    204.10408   -689.15999    136340.28    -42090.05    2539.4428   -44629.493     24.57525   0.91604251 
   85100    208.06871   -595.96598    136291.69   -42095.367    2588.7703   -44684.137    24.594554   0.91636911 
   85200    204.64094   -611.44997    136202.52   -42109.093    2546.1223   -44655.216    24.561759   0.91696903 
   85300    203.57935   -766.06298     136299.9   -42129.228    2532.9141   -44662.142     24.48455   0.91631391 
   85400    205.55719   -564.99499    136224.61   -42129.199    2557.5222   -44686.721    24.478658   0.91682032 
   85500    208.35414   -639.87542    136160.77   -42099.013    2592.3216   -44691.334    24.514968   0.91725017 
   85600    208.09226   -596.24322    136231.33   -42082.953    2589.0633   -44672.017    24.686259   0.91677508 
   85700    202.21662   -667.19087     136237.5   -42117.944    2515.9592   -44633.903    24.641082   0.91673359 
   85800    201.62091   -658.49634    136308.19    -42107.88    2508.5474   -44616.427    24.650675   0.91625814 
   85900    205.79447   -658.98495    136191.84   -42020.346    2560.4744    -44580.82     24.62127   0.91704092 
   86000    203.34588   -606.70789    136283.99   -42067.993    2530.0093   -44598.002    24.504689   0.91642086 
   86100    205.11568   -683.89876    136193.17   -42068.389    2552.0291   -44620.418    24.526492   0.91703197 
   86200    206.83301   -690.45854    136250.36   -42049.801    2573.3958   -44623.197    24.675437   0.91664708 
   86300    205.17204   -635.24703    136271.56   -42085.266    2552.7302   -44637.997     24.52402   0.91650447 
   86400    204.31196   -686.51631    136180.52   -42097.623    2542.0292   -44639.652    24.629057   0.91711719 
   86500     203.2806   -650.85908    136180.36   -42085.417    2529.1972   -44614.614    24.594736    0.9171182 
   86600    205.99611   -606.35975    136097.73   -42035.553    2562.9832   -44598.537    24.564143   0.91767503 
   86700    207.39378   -616.35177    136068.71   -42030.188    2580.3728   -44610.561    24.510386   0.91787077 
   86800    203.03126   -513.97974    136154.46   -42087.106    2526.0949   -44613.201     24.67236   0.91729271 
   86900    209.37457   -704.45551    136092.91   -42059.821    2605.0177   -44664.839    24.620231   0.91770752 
   87000    201.46451   -734.49746    136012.35   -42059.903    2506.6015   -44566.504    24.646284   0.91825112 
   87100    200.30311   -667.40235    136092.56    -42073.29    2492.1515   -44565.442    24.658043   0.91770994 
   87200    204.60514   -621.16339    136232.47   -42081.092     2545.677   -44626.768    24.751643   0.91676742 
   87300    204.95847   -580.55679    136191.38   -42097.916     2550.073   -44647.989    24.645297   0.91704404 
   87400    204.80568   -521.15977    136210.02   -42110.238    2548.1721    -44658.41    24.698965   0.91691855 
   87500    203.65472   -600.70876    136312.92   -42115.181    2533.8519   -44649.033    24.837761   0.91622638 
   87600     204.0432   -691.87378    136431.05   -42118.216    2538.6854   -44656.901     24.81791   0.91543303 
   87700    207.70335   -638.72745    136243.49   -42134.708    2584.2245   -44718.933    24.786901   0.91669325 
   87800    206.51437   -664.91442    136282.66   -42116.521    2569.4314   -44685.952    24.644297   0.91642977 
   87900    202.77337   -769.58349     136313.7     -42142.8    2522.8862   -44665.687      24.7862   0.91622115 
   88000    201.54216   -675.17135    136301.23   -42169.627    2507.5676   -44677.195    24.775189   0.91630495 
   88100    202.43068   -723.60089    136314.59   -42103.584    2518.6225   -44622.206    24.754727   0.91621514 
   88200    207.28636   -643.74744    136394.99   -42066.059    2579.0365   -44645.096    24.820881   0.91567508 
   88300    208.85761   -596.78577    136287.69   -42118.553    2598.5857   -44717.139    24.807239   0.91639599 
   88400     200.1318   -648.00494    136135.76   -42213.574      2490.02   -44703.594    24.727436   0.91741871 
   88500    203.94552   -608.60854    136150.18    -42140.57      2537.47    -44678.04     24.82607   0.91732155 
   88600    205.22723   -685.16232    136169.27   -42086.992    2553.4169   -44640.409    24.780109   0.91719294 
   88700    208.88996   -584.22604    136146.21   -42070.917    2598.9883   -44669.906    24.775043   0.91734827 
   88800    208.81932   -617.52695     136131.9   -42022.864    2598.1093   -44620.974    24.685393   0.91744469 
   88900    208.69557   -609.97089    136181.86   -42073.974    2596.5697   -44670.544    24.741763   0.91710812 
   89000    207.15417    -615.6475    136368.19   -42056.815    2577.3917   -44634.207    24.947105   0.91585499 
   89100    204.49359   -696.42457    136240.42   -42142.371    2544.2891    -44686.66     24.78871   0.91671395 
   89200    204.26203   -614.14548    136243.31   -42175.338     2541.408   -44716.746    24.688213   0.91669446 
   89300    205.16908   -747.97651    136179.39   -42199.426    2552.6934    -44752.12    24.860606   0.91712475 
   89400    200.76474   -698.36208    136170.29   -42229.284    2497.8951   -44727.179    24.806253   0.91718609 
   89500    202.11503   -707.77954    136102.33   -42257.127    2514.6953   -44771.822    24.786417   0.91764406 
   89600    201.13428   -558.22448    136069.31   -42291.144    2502.4929   -44793.637    24.921287   0.91786674 
   89700    201.46909   -570.41857    136026.63   -42251.205    2506.6585   -44757.864    24.780535   0.91815474 
   89800    201.65337   -665.51889    136154.51   -42217.844    2508.9513   -44726.795    24.754588   0.91729238 
   89900    203.50639   -727.90393    136111.91   -42277.641    2532.0064   -44809.647    24.803175   0.91757946 
   90000    208.08229   -638.66283    136215.12   -42189.851    2588.9393   -44778.791    24.828071   0.91688418 
   90100    204.61202   -645.17609    136135.61     -42189.1    2545.7625   -44734.863    24.899822   0.91741971 
   90200    203.07432   -650.21101    136161.05   -42219.166    2526.6306   -44745.796    24.862114   0.91724828 
   90300    203.10193   -521.90399    136130.94   -42223.024    2526.9741   -44749.998    24.876778    0.9174512 
   90400    203.03731   -723.12412    136122.62   -42220.924    2526.1701   -44747.094    24.786854   0.91750725 
   90500    206.76815   -673.82087     136183.7   -42185.276    2572.5889   -44757.865    24.848245   0.91709574 
   90600    208.27212   -576.01978    136116.67   -42115.083    2591.3012   -44706.384    24.834447   0.91754735 
   90700    207.55181   -604.25984    136082.05   -42112.061    2582.3391     -44694.4    24.876187   0.91778076 
   90800    201.53491   -712.99426    136207.37   -42147.017    2507.4774   -44654.495    24.813639   0.91693639 
   90900    202.91057   -622.94818    136040.03   -42226.387    2524.5932    -44750.98    24.786645   0.91806428 
   91000    203.00852   -638.07629     136112.2   -42237.355     2525.812   -44763.167     24.82169   0.91757746 
   91100    202.48006   -630.66718    136057.08   -42230.636    2519.2369   -44749.873    24.832542   0.91794923 
   91200    202.01738   -628.12007    136079.12   -42197.073    2513.4802   -44710.553    24.808011   0.91780055 
   91300     207.8526   -747.32439    136136.01    -42103.98    2586.0816   -44690.061    24.810673   0.91741704 
   91400    205.61343   -552.55653    136109.32   -42081.909     2558.222   -44640.131    24.987128   0.91759688 
   91500    205.55718   -659.16113    136168.15   -42097.209    2557.5222   -44654.731    24.897669   0.91720048 
   91600    208.24142   -563.48822    136155.61    -42127.25    2590.9192   -44718.169    24.869903   0.91728492 
   91700    205.08051   -650.70148    136196.34   -42199.267    2551.5914   -44750.859    24.927362   0.91701062 
   91800    202.16726   -588.17719    136150.99   -42178.726     2515.345   -44694.071      24.8703   0.91731604 
   91900    203.28266    -678.6219    136278.92   -42172.657    2529.2227    -44701.88    24.769492   0.91645494 
   92000    206.61542   -723.33795    136323.94   -42188.961    2570.6887    -44759.65    24.824399    0.9161523 
   92100    204.15251   -643.48509    136191.46    -42237.21    2540.0454   -44777.255    24.864651   0.91704352 
   92200    204.71928   -772.39137    136136.68   -42177.366     2547.097   -44724.463    25.006874   0.91741248 
   92300    205.13872   -587.28052    136228.39   -42103.139    2552.3157   -44655.455    24.936521   0.91679489 
   92400    205.03674    -688.9431    136196.91   -42103.658    2551.0468   -44654.705    24.689896   0.91700676 
   92500    207.37215   -608.95467    136224.53   -42147.792    2580.1038   -44727.896    24.797655   0.91682087 
   92600     206.5837   -677.27933    136185.42   -42131.863     2570.294   -44702.157    24.934237   0.91708414 
   92700    208.07694   -671.41441    136270.55   -42119.403    2588.8727   -44708.276    24.849108   0.91651122 
   92800    203.90528   -733.60679    136238.78   -42149.678    2536.9694   -44686.648     24.86241     0.916725 
   92900    208.75913   -586.49196    136306.94    -42104.79    2597.3604    -44702.15    24.982879   0.91626656 
   93000    205.11506   -806.69221    136229.53   -42134.214    2552.0213   -44686.235    24.899193   0.91678721 
   93100    206.65614    -612.0524    136163.35   -42081.467    2571.1952   -44652.662    24.837199   0.91723278 
   93200    204.22428   -604.41771    136127.26     -42103.4    2540.9383   -44644.338    24.732354   0.91747599 
   93300    204.33423   -664.81523     136043.2   -42130.039    2542.3063   -44672.345    24.730982   0.91804286 
   93400    209.02766   -652.08911    136208.17   -42145.907    2600.7015   -44746.608    24.877925   0.91693098 
   93500    202.83858   -726.49323    136097.82   -42189.458    2523.6976   -44713.155    24.734595   0.91767445 
   93600    199.79492    -681.0374    136171.96   -42241.924    2485.8287   -44727.753    25.009841   0.91717482 
   93700    205.97863   -624.06378     136197.1   -42208.781    2562.7657   -44771.547    24.927565   0.91700551 
   93800    201.81371    -590.8394    136189.09   -42159.421    2510.9463   -44670.367     24.67101   0.91705947 
   93900    206.39777   -639.17719       136110   -42151.928    2567.9807   -44719.909    24.890724   0.91759235 
   94000    203.45793   -683.47643    136182.13   -42159.404    2531.4035   -44690.807    24.783895   0.91710634 
   94100    205.06454   -691.04896    136152.85   -42158.612    2551.3928   -44710.005    24.968182   0.91730357 
   94200    202.12303   -613.74854    136175.07   -42145.797    2514.7948   -44660.591    24.958738   0.91715389 
   94300    205.93902   -622.01801    136179.87   -42099.403    2562.2729   -44661.676    24.964076   0.91712154 
   94400    209.04007   -612.67047    136131.52   -42088.094    2600.8559    -44688.95    24.987508   0.91744728 
   94500    206.20297   -592.72374    136155.73       -42036     2565.557   -44601.557    24.964823   0.91728412 
   94600     207.2051    -592.4374    136182.32   -42078.619    2578.0254   -44656.644     24.98674   0.91710502 
   94700    207.23891   -563.86542    136277.46   -42111.345     2578.446   -44689.791    24.798186    0.9164648 
   94800    204.04217   -638.21917    136218.31   -42104.112    2538.6725   -44642.784    24.912625   0.91686274 
   94900    206.41467   -701.55172    136288.79   -42081.684    2568.1909   -44649.875    24.908944   0.91638856 
   95000    207.30646   -550.96117    136286.88   -42075.229    2579.2865   -44654.516    24.890452   0.91640142 
   95100    206.24426   -602.18244    136298.95   -42083.141    2566.0707   -44649.211    24.927127    0.9163203 
   95200    208.10917   -754.53454    136081.32   -42095.858    2589.2737   -44685.131    25.008052   0.91778571 
   95300    207.45597   -731.47145    136103.11   -42006.608    2581.1467   -44587.755    24.768912   0.91763879 
   95400    203.52705   -601.99585    136013.99    -42071.18    2532.2634   -44603.443    24.793265   0.91824004 
   95500    205.07571   -579.19479    136103.68   -42063.822    2551.5317   -44615.354    24.890679   0.91763495 
   95600    207.03846   -746.61039    136112.17   -42070.244    2575.9521   -44646.196    25.043401   0.91757768 
   95700    207.39646   -723.42718    136054.57   -42128.745    2580.4063   -44709.151     24.91827   0.91796614 
   95800    202.09268   -641.24087    136055.24    -42176.41    2514.4172   -44690.827    24.914638   0.91796166 
   95900     209.3415   -713.23874    135972.03   -42122.387    2604.6062   -44726.993    25.003117    0.9185234 
   96000    202.18382   -581.89641    135965.28   -42190.747    2515.5511   -44706.298     25.05868     0.918569 
   96100    204.24547   -627.54551    136052.08   -42141.636     2541.202   -44682.838    24.983197   0.91798299 
   96200    201.39424    -533.6847    136143.36   -42172.067    2505.7272   -44677.794    24.912893    0.9173675 
   96300     203.7774   -744.36414    136251.06    -42119.18    2535.3783   -44654.558    24.837194   0.91664233 
   96400    202.26876   -511.09366    136083.23   -42101.692    2516.6079     -44618.3    24.928182    0.9177728 
   96500    203.25822   -693.35733    136091.56   -42140.749    2528.9187   -44669.668    25.065673   0.91771667 
   96600    205.65871   -618.43342     136020.1   -42142.179    2558.7853   -44700.964    24.932011   0.91819877 
   96700    202.37212   -608.23104    136017.62   -42211.615     2517.894   -44729.509    24.898347   0.91821556 
   96800    201.92093   -570.16375    136123.14   -42239.989    2512.2803   -44752.269    24.972429   0.91750375 
   96900    205.54046   -591.15241    136082.92   -42171.205    2557.3141   -44728.519    24.953079   0.91777495 
   97000    202.95676   -634.16801     136067.4   -42196.752    2525.1679    -44721.92    24.937586   0.91787962 
   97100    202.22517   -737.70111    136065.96   -42188.017    2516.0655   -44704.083    24.951434   0.91788928 
   97200    205.21839   -616.60533    136126.91   -42198.751    2553.3069   -44752.058    24.983204   0.91747837 
   97300    203.22963   -593.94047    136160.75   -42194.304    2528.5629   -44722.866    25.120382   0.91725033 
   97400    205.65904   -659.68197    136215.08   -42203.015    2558.7894   -44761.804    24.983265   0.91688448 
   97500    203.24337    -650.3835    136106.42     -42108.7    2528.7339   -44637.434    24.808084   0.91761646 
   97600     206.9025   -687.38193    136059.88   -42173.453    2574.2604   -44747.713    24.906556   0.91793035 
   97700    207.47659   -588.95471    136114.18   -42120.442    2581.4032   -44701.845      24.8839   0.91756412 
   97800    205.92717   -695.08958    136272.05   -42092.519    2562.1255   -44654.644    24.963256   0.91650118 
   97900    207.04109   -674.71946    136423.68   -42058.421    2575.9848   -44634.405    25.130204    0.9154825 
   98000    207.24524   -676.49026    136384.41   -42090.219    2578.5248   -44668.744    25.034108   0.91574608 
   98100    206.11261   -623.27618    136354.26   -42168.946    2564.4327   -44733.378    25.031641   0.91594856 
   98200    206.49209   -582.98947    136377.62   -42144.578    2569.1542   -44713.732    25.053692   0.91579169 
   98300    202.39534   -664.80768    136337.24   -42170.318    2518.1828   -44688.501    25.027826    0.9160629 
   98400    203.64441   -696.11974    136286.22   -42181.995    2533.7236   -44715.719    24.956778   0.91640583 
   98500    203.96571   -717.97044    136402.63   -42197.637    2537.7212   -44735.358    25.044569    0.9156238 
   98600    202.31993   -820.78529    136228.22   -42222.778    2517.2446   -44740.022    25.053202   0.91679606 
   98700    199.47327   -684.64227    136256.18   -42262.518    2481.8267   -44744.345    25.091609    0.9166079 
   98800    200.62791   -575.80817    136158.32   -42232.212    2496.1927   -44728.404    25.077967   0.91726671 
   98900    203.08701   -734.67414    136204.53   -42242.917    2526.7885   -44769.705    25.055187   0.91695551 
   99000    202.54491   -617.26526    136208.77   -42276.005    2520.0437   -44796.048    25.045709   0.91692694 
   99100    204.36524   -686.14683    136230.79   -42214.304    2542.6921   -44756.996    25.030024   0.91677871 
   99200    204.75015   -663.78156    136335.61   -42204.533    2547.4812   -44752.015    25.183664   0.91607389 
   99300    205.70259   -689.24074    136260.67   -42159.154    2559.3313   -44718.485    25.216083   0.91657768 
   99400    205.81175   -612.12929    136305.78   -42142.993    2560.6894   -44703.682    25.130245   0.91627435 
   99500    207.16653   -722.91379     136321.5   -42027.219    2577.5455   -44604.764    25.061059   0.91616867 
   99600    205.34189   -698.15509    136483.65   -42074.464    2554.8434   -44629.307    25.130503   0.91508026 
   99700    210.11003   -627.62828    136345.66   -42078.657    2614.1682   -44692.825    24.964149   0.91600633 
   99800    206.92181   -723.18346    136538.61   -42096.295    2574.5007   -44670.795    25.055888    0.9147119 
   99900    206.51423   -657.26516    136391.69   -42154.919    2569.4296   -44724.349     25.18441   0.91569719 
  100000    205.53728   -620.50482    136478.36   -42159.246    2557.2745   -44716.521     25.15123   0.91511571 
  100100    203.30197   -746.46633    136414.08   -42110.041     2529.463   -44639.504    25.289511    0.9155469 
  100200    206.64238   -725.47527    136226.27   -42110.027     2571.024   -44681.052    25.164366   0.91680916 
  100300    208.03413   -544.39413     136212.5   -42100.802    2588.3401   -44689.142    25.174443   0.91690184 
  100400    204.02552   -594.23394       136278     -42128.7    2538.4653   -44667.165     25.09392   0.91646111 
  100500    210.14087   -580.51389    136271.68   -42065.111     2614.552   -44679.663    25.036215   0.91650366 
  100600    205.74545   -646.84518    136242.33   -42143.563    2559.8646   -44703.428    25.149938   0.91670109 
  100631    205.45563   -740.11288    136225.13   -42129.076    2556.2586   -44685.334    25.228522   0.91681683 
Loop time of 452.812 on 1 procs for 100000 steps with 4175 atoms

Performance: 95.404 ns/day, 0.252 hours/ns, 220.842 timesteps/s
100.0% CPU use with 1 MPI tasks x no OpenMP threads

MPI task timing breakdown:
Section |  min time  |  avg time  |  max time  |%varavg| %total
---------------------------------------------------------------
Pair    | 408.81     | 408.81     | 408.81     |   0.0 | 90.28
Neigh   | 31.211     | 31.211     | 31.211     |   0.0 |  6.89
Comm    | 2.0218     | 2.0218     | 2.0218     |   0.0 |  0.45
Output  | 0.92701    | 0.92701    | 0.92701    |   0.0 |  0.20
Modify  | 8.3826     | 8.3826     | 8.3826     |   0.0 |  1.85
Other   |            | 1.463      |            |       |  0.32

Nlocal:        4175.00 ave        4175 max        4175 min
Histogram: 1 0 0 0 0 0 0 0 0 0
Nghost:        3653.00 ave        3653 max        3653 min
Histogram: 1 0 0 0 0 0 0 0 0 0
Neighs:        0.00000 ave           0 max           0 min
Histogram: 1 0 0 0 0 0 0 0 0 0
FullNghs:     111984.0 ave      111984 max      111984 min
Histogram: 1 0 0 0 0 0 0 0 0 0

Total # of neighbors = 111984
Ave neighs/atom = 26.822515
Neighbor list builds = 5045
Dangerous builds = 0

undump              1
unfix               2
unfix               3
unfix               4


################################################
#######         Run Simulation         #########
################################################

reset_timestep      0
log                 log.run_${NAME}
log                 log.run_liquid_density_MLmW
