
# Define the lattice
#
variable	    lattice_constant equal 6.36339
lattice		    diamond ${lattice_constant}
lattice		    diamond 6.36339
Lattice spacing in x,y,z = 6.3633900 6.3633900 6.3633900

# Define region
# multiples of lattice spacing
#
region 		    simbox block 0 8 0 8 0 8

# Create Atoms
#
create_box          1 simbox
Created orthogonal box = (0.0000000 0.0000000 0.0000000) to (50.907120 50.907120 50.907120)
  1 by 2 by 3 MPI processor grid
create_atoms        1 box
Created 4096 atoms
  create_atoms CPU = 0.000 seconds
mass                1 18.15

# Define potential
#
pair_style          sw
pair_coeff          * * ML_mW.sw mW
Reading sw potential file ML_mW.sw with DATE: 2019-02-27

# Add velocity/set timestep
#
velocity            all create ${TEMP} 120598 rot yes dist gaussian
velocity            all create 292 120598 rot yes dist gaussian
timestep            5.0

# Define output
#
compute	            1 all msd
thermo              100
thermo_style        custom step temp press vol etotal ke pe c_1[4]

# Neighbor lists
#
neigh_modify        delay 0 every 1 check yes

# Set fixes
#
fix                 1 all momentum 10 linear 1 1 1 rescale
fix                 2 all nve
fix                 3 all temp/csvr ${TEMP} ${TEMP} 500.0 928347
fix                 3 all temp/csvr 292 ${TEMP} 500.0 928347
fix                 3 all temp/csvr 292 292 500.0 928347
fix                 4 all press/berendsen iso ${PRES} ${PRES} 1000.0 modulus 20000
fix                 4 all press/berendsen iso 1 ${PRES} 1000.0 modulus 20000
fix                 4 all press/berendsen iso 1 1 1000.0 modulus 20000

# Run 0.5 ns equilibration
#
dump		    1 all custom 1000 eq.${NAME}.dump id type x y z vx vy vz
dump		    1 all custom 1000 eq.ice_292K_1atm_ML.dump id type x y z vx vy vz
run                 100000
Neighbor list info ...
  update every 1 steps, delay 0 steps, check yes
  max neighbors/atom: 2000, page size: 100000
  master list distance cutoff = 6.0032907
  ghost atom cutoff = 6.0032907
  binsize = 3.0016454, bins = 17 17 17
  1 neighbor lists, perpetual/occasional/extra = 1 0 0
  (1) pair sw, perpetual
      attributes: full, newton on
      pair build: full/bin/atomonly
      stencil: full/bin/3d
      bin: standard
Per MPI rank memory allocation (min/avg/max) = 4.800 | 4.800 | 4.801 Mbytes
Step Temp Press Volume TotEng KinEng PotEng c_1[4] 
       0          292   -627.28843    131927.58   -46122.112    3564.2738   -49686.386            0 
     100    198.38128    109.49745       131290   -44684.289    2421.5247   -47105.814   0.10120664 
     200    228.65891    89.903946    131521.83   -43823.069     2791.106   -46614.175   0.11455086 
     300    244.18625    57.217117    131661.72   -43256.351    2980.6392    -46236.99   0.13725081 
     400    257.73392    -79.39079    131786.45   -42921.499    3146.0078   -46067.507     0.147849 
     500    275.76506    7.2540631    131908.51   -42678.673    3366.1034   -46044.776    0.1306951 
     600    283.85096   -23.674082    131957.22    -42398.96    3464.8032   -45863.763    0.1605666 
     700    298.38941    73.051753    132015.14   -42360.586    3642.2656   -46002.852   0.14532638 
     800    295.80799    66.815747    131990.28   -42257.619    3610.7557   -45868.375   0.15636894 
     900    292.09779    11.871776    132022.52   -42251.878    3565.4675   -45817.345   0.16290695 
    1000    296.62579    90.444558    131998.22   -42315.655    3620.7381   -45936.393   0.12961934 
    1100    295.43634    9.8768542    132014.29   -42260.592    3606.2193   -45866.811   0.15241071 
    1200    294.63215   -14.777447    132007.48   -42232.263    3596.4029   -45828.666   0.14913921 
    1300    299.86829   -38.602599    132054.96   -42179.031    3660.3174   -45839.348   0.15945277 
    1400    294.36749    16.191641    132043.11   -42238.311    3593.1724   -45831.483   0.15542313 
    1500    292.99571    27.252661    132046.69   -42303.123    3576.4278   -45879.551   0.13418958 
    1600    296.17889    46.467667    132037.75   -42249.105    3615.2831   -45864.388    0.1577871 
    1700    291.95629    29.870452    132038.55   -42262.055    3563.7402   -45825.795   0.14356422 
    1800    290.13819   -18.139161    132020.44   -42226.925    3541.5478   -45768.473   0.16472904 
    1900    295.37159    45.090998    132047.82   -42153.407    3605.4288   -45758.836   0.14578168 
    2000    297.28641    33.427691    132056.63   -42113.578    3628.8019    -45742.38   0.15448996 
    2100    288.20356   -1.1711268    132045.23   -42262.118    3517.9328   -45780.051   0.15765688 
    2200    289.11768   -7.2968496    132016.76    -42203.59     3529.091   -45732.681   0.16651243 
    2300    290.36782    26.498111    132038.83   -42154.007    3544.3508   -45698.357   0.16707596 
    2400    297.15614    21.596594    132067.35   -42192.007    3627.2118   -45819.219   0.15077075 
    2500    298.03141    8.2141126    132061.65   -42215.999    3637.8957   -45853.894   0.14452956 
    2600    296.04971     2.533111    132043.72    -42252.44    3613.7063   -45866.146   0.15353033 
    2700    296.24866    13.809952    132001.68   -42239.933    3616.1347   -45856.067   0.14325731 
    2800    295.39555    18.947986    132027.23   -42148.432    3605.7213   -45754.154   0.16515146 
    2900    294.76899    11.009815    132015.39   -42142.203    3598.0732   -45740.276   0.15432062 
    3000    291.76188    15.980405    132024.58   -42199.323    3561.3672    -45760.69   0.15827519 
    3100    291.81802    19.145094    132020.05   -42172.225    3562.0525   -45734.277   0.16589745 
    3200    295.50139    30.863592     132018.6   -42268.037    3607.0133   -45875.051   0.14629611 
    3300    286.06079   -58.661561     131997.1   -42366.839    3491.7773   -45858.616   0.16778864 
    3400    296.72202    17.164885    132041.63   -42296.869    3621.9128   -45918.781   0.13892086 
    3500    289.19034   -7.0082981    132046.12   -42259.775    3529.9779   -45789.753    0.1599549 
    3600    292.88676    19.350586    132047.49   -42259.072    3575.0979    -45834.17    0.1505531 
    3700     290.5035    10.264827    132045.48   -42218.118    3546.0069   -45764.125   0.15661278 
    3800    291.32359    -45.41372    132060.76     -42210.1    3556.0173   -45766.117   0.16520897 
    3900    296.01646    29.926079     132065.1   -42216.466    3613.3004   -45829.767   0.14912968 
    4000    293.56898    7.8881583    132061.09   -42262.599    3583.4255   -45846.024   0.14863823 
    4100    284.83574   -11.315872    132047.61   -42273.804    3476.8239   -45750.628   0.16189364 
    4200    286.67677   -40.799431     132044.3   -42231.846    3499.2962   -45731.142   0.15289544 
    4300    290.12801   -11.849734    132014.27   -42360.196    3541.4236   -45901.619    0.1633076 
    4400    296.78352    19.463344    132032.63   -42251.396    3622.6634   -45874.059   0.14242501 
    4500    301.54342     66.91966    132028.43   -42307.721    3680.7648   -45988.486   0.14684659 
    4600    290.40499    50.443883    132006.06   -42334.411    3544.8044   -45879.216   0.15243893 
    4700    290.44987    -3.025683    132028.28   -42243.761    3545.3522   -45789.113   0.15837181 
    4800    297.52705   -3.2259103    132063.15    -42153.49    3631.7393    -45785.23   0.16653433 
    4900    291.76268   -27.666752     132079.1   -42121.251     3561.377   -45682.628   0.15940582 
    5000    290.47588   -42.946205    132079.93   -42248.384    3545.6698   -45794.053   0.16076939 
    5100    290.69323   -15.376397    132043.41   -42172.001    3548.3228   -45720.324   0.16079259 
    5200    289.08441   -5.6711508    132035.78   -42242.399    3528.6849   -45771.084   0.15370724 
    5300    290.01401    7.1065988     132002.6   -42338.085     3540.032   -45878.117   0.15309666 
    5400    290.72459   -18.031927    131991.91   -42307.737    3548.7057   -45856.443   0.15645016 
    5500    295.86977    51.118553    132001.04   -42275.197    3611.5098   -45886.707   0.15020904 
    5600    287.42701    12.312995    131970.97   -42300.934     3508.454   -45809.388   0.16547174 
    5700     287.1925   -34.069669    132016.94   -42300.444    3505.5915   -45806.036   0.15027524 
    5800    294.74805    -29.37531    132010.94    -42245.32    3597.8177   -45843.137   0.16473273 
    5900    289.37672   -20.246501    131994.88    -42320.17    3532.2529   -45852.422   0.15078604 
    6000    290.64414    5.1301994     131979.5   -42297.348    3547.7236   -45845.071    0.1570764 
    6100     285.1802    11.078002     131962.8   -42362.259    3481.0284   -45843.287    0.1555258 
    6200    287.67889    11.598304    131974.86   -42350.845    3511.5285   -45862.373   0.15586559 
    6300    292.40822   -3.8143459    131994.86   -42229.836    3569.2567   -45799.093    0.1617824 
    6400    290.00763   -18.679105    131998.64    -42285.45    3539.9541   -45825.404   0.15776683 
    6500    290.60413   -29.298366    131963.95   -42296.577    3547.2353   -45843.813   0.15957322 
    6600     293.7728    33.595338       131964   -42301.307    3585.9133   -45887.221   0.15695846 
    6700     289.5031   -36.079699    131973.15   -42357.195    3533.7956   -45890.991   0.15171759 
    6800     290.9407    6.5076964    131969.53   -42306.555    3551.3435   -45857.899   0.15339148 
    6900    295.26367    3.3915746    132007.98   -42236.338    3604.1116    -45840.45     0.149483 
    7000    292.16808    13.231706    132005.73   -42239.482    3566.3254   -45805.807   0.15136327 
    7100      293.331    51.905603     131996.4   -42242.267    3580.5205   -45822.787   0.15782668 
    7200    289.69772   -29.783731    131983.17   -42352.788    3536.1712   -45888.959   0.15018754 
    7300     284.6798   -29.172155    131956.86   -42393.869    3474.9204   -45868.789   0.16474726 
    7400     289.6695   -3.1263816    132014.81   -42292.771    3535.8268   -45828.597   0.14801432 
    7500     296.4526    11.859734    132026.07   -42232.728    3618.6241   -45851.352   0.16441547 
    7600    290.98848   -18.461436    132025.66   -42205.983    3551.9268    -45757.91    0.1558643 
    7700    291.69636    -34.12947    132018.68   -42301.881    3560.5674   -45862.448   0.15787225 
    7800    290.71218  -0.22441272    131994.21   -42351.665    3548.5542   -45900.219   0.15297665 
    7900    293.40406    13.556137    132011.68   -42302.826    3581.4124   -45884.238   0.14246875 
    8000    289.51705    2.9720466     132018.3   -42199.659    3533.9659   -45733.625    0.1627482 
    8100    291.72475  0.095325852    132021.98   -42165.768     3560.914   -45726.682   0.15513768 
    8200    297.94055    38.890014    132038.38   -42190.607    3636.7866   -45827.393   0.15326686 
    8300    297.84899    26.397353    132060.66   -42154.048     3635.669   -45789.717   0.16152787 
    8400    296.48415   -4.3667645     132034.5   -42128.543    3619.0092   -45747.552   0.14867786 
    8500    289.76526   -77.201152     132018.7   -42215.778    3536.9956   -45752.774   0.16741938 
    8600    297.35158   -6.4889552    132013.05   -42232.856    3629.5974   -45862.453   0.14692578 
    8700    297.93301    12.838894    132024.96   -42206.219    3636.6946   -45842.913   0.15455311 
    8800    298.06286    18.412142    131995.73   -42238.033    3638.2797   -45876.313   0.16123383 
    8900    293.64972    14.938919    132007.89   -42302.548     3584.411   -45886.959   0.13759193 
    9000    288.98416    4.7376209    131990.41     -42229.6    3527.4612   -45757.062   0.17018505 
    9100    293.30147   -1.1453438    132029.51   -42284.383    3580.1601   -45864.543   0.13809708 
    9200    296.37994   -14.782955     132040.6   -42182.333    3617.7372   -45800.071   0.16196191 
    9300    292.22763    8.1411082    132020.24    -42324.07    3567.0524   -45891.122   0.14634051 
    9400    291.88787    47.177093    132022.21   -42290.841    3562.9051   -45853.746   0.13798762 
    9500    286.61874    18.103525     132003.1   -42321.563    3498.5879    -45820.15   0.15684325 
    9600    286.76145   -8.3554795    132026.07   -42319.857    3500.3299   -45820.187   0.14495082 
    9700    291.66082    4.6952027    132019.02   -42198.997    3560.1336   -45759.131   0.16221706 
    9800    296.76671    25.102584    132047.99   -42155.405    3622.4582   -45777.864    0.1547289 
    9900    291.28274   -6.4926101    132047.76   -42187.423    3555.5187   -45742.942    0.1463563 
   10000     292.6568   -23.521864    132042.48   -42243.021    3572.2909   -45815.312   0.16191643 
   10100    293.75856    15.855045    132023.89   -42188.664    3585.7395   -45774.403   0.14655876 
   10200    294.17324   -6.5066102    132044.23   -42166.623    3590.8013   -45757.424   0.16328639 
   10300    296.91063    2.8055992    132050.07   -42161.217     3624.215   -45785.432   0.14958832 
   10400    299.42671    15.412866    132068.34   -42160.091    3654.9274   -45815.019   0.14261657 
   10500    295.84915     27.12011    132022.13   -42201.663    3611.2581   -45812.921   0.15746198 
   10600    299.32917     71.56715    132045.81   -42230.046    3653.7367   -45883.783    0.1351386 
   10700      289.132   -1.1665046    132013.84   -42267.241    3529.2658   -45796.507   0.16219912 
   10800    289.62481    24.079062    132018.13   -42382.509    3535.2812    -45917.79   0.13773443 
   10900    289.32621      3.19939    131992.89   -42366.014    3531.6364    -45897.65   0.14903286 
   11000    288.66157    40.649425    131996.08   -42368.291    3523.5235   -45891.815   0.14730426 
   11100    290.08407   -15.215164    132010.78   -42289.936    3540.8871   -45830.824   0.15192495 
   11200    283.50916    9.9667597    132009.51    -42391.21    3460.6311   -45851.841   0.15018552 
   11300    288.44818    -1.072604    132008.81   -42314.204    3520.9188   -45835.123   0.14588433 
   11400     287.3679   -48.506283    132016.47   -42291.385    3507.7325   -45799.118    0.1520496 
   11500    297.53678    24.097024    132015.71   -42186.406    3631.8581   -45818.264   0.15557623 
   11600    290.42934    1.3131219    132052.65   -42193.733    3545.1017   -45738.834   0.15348736 
   11700    298.61997    21.054546    132096.75   -42067.834    3645.0799   -45712.914   0.16058268 
   11800    298.61252    48.805364    132088.45   -42154.106    3644.9889   -45799.095   0.14098442 
   11900    295.21298   -8.8610684    132077.69   -42201.641    3603.4928   -45805.134   0.14904925 
   12000    294.04169    15.248168    132061.06    -42143.14    3589.1955   -45732.336   0.15496593 
   12100    293.47379   -10.656598    132064.34   -42228.236    3582.2635   -45810.499   0.14961268 
   12200    287.76615   -29.241915     132060.5   -42216.855    3512.5937   -45729.449   0.16225959 
   12300    296.59447    20.393803    132045.14   -42267.037    3620.3558   -45887.393   0.13653117 
   12400    290.11804   -3.4715776    132068.24   -42235.993    3541.3018   -45777.295   0.15421872 
   12500    298.01683    5.7584011    132060.66   -42174.972    3637.7177    -45812.69   0.14994983 
   12600    291.75455    -7.336141    132072.82   -42171.276    3561.2777   -45732.554    0.1574916 
   12700     294.1913   -28.524604    132090.54   -42212.521    3591.0217   -45803.542   0.15097655 
   12800    291.99713      5.68164    132055.77   -42233.471    3564.2388    -45797.71   0.14574857 
   12900      289.778   -3.8373811    132043.04   -42278.839    3537.1511    -45815.99   0.14957533 
   13000    291.09233   -21.827131     132044.8   -42274.333    3553.1944   -45827.527   0.15202775 
   13100    289.70697   -2.5653498    132039.78   -42302.189    3536.2841   -45838.473   0.14631104 
   13200    289.73854   -17.352979     132015.7   -42348.087    3536.6695   -45884.757   0.15272823 
   13300    287.74198   -8.7864717    131998.33   -42397.366    3512.2986   -45909.665   0.13990663 
   13400    280.30622   -35.735834     131981.9   -42443.372    3421.5347   -45864.907   0.15507806 
   13500    288.12712   -18.046001    132004.99   -42321.808    3516.9998   -45838.807   0.15205016 
   13600    290.81671   -0.5060401    132019.43     -42300.9    3549.8301    -45850.73   0.14960304 
   13700    289.62474    7.7885317    132028.08   -42311.487    3535.2804   -45846.768    0.1506817 
   13800    291.57806     33.23726    132040.84   -42276.835    3559.1234   -45835.959   0.13688397 
   13900    290.34422   -11.589467    132032.32   -42233.049    3544.0626   -45777.112   0.15666122 
   14000    291.56814    1.1405444    132062.94   -42135.833    3559.0023   -45694.835   0.15162037 
   14100    287.86241   -5.0454384    132057.54    -42231.31    3513.7687   -45745.079   0.15235128 
   14200    297.77212    33.745907    132061.37   -42225.145    3634.7307   -45859.876    0.1463918 
   14300    291.90934    31.592344    132060.25   -42258.473    3563.1672    -45821.64   0.14546596 
   14400    287.65989  -0.48676176    132047.17   -42299.612    3511.2966   -45810.909   0.14405809 
   14500    285.20691    5.3449699    132019.48   -42306.179    3481.3546   -45787.534   0.15232417 
   14600    285.72678   -32.879976    132032.49   -42306.946    3487.7002   -45794.647   0.14688213 
   14700    291.60641    57.742281    132034.52   -42251.153    3559.4695   -45810.622   0.15342838 
   14800    289.84995    -5.857579    132060.71    -42222.26    3538.0294    -45760.29   0.14255887 
   14900     296.0668   -28.210839    132071.42   -42201.828    3613.9149   -45815.743   0.15285492 
   15000    291.08923   -22.944421    132042.74   -42272.236    3553.1565   -45825.393    0.1475385 
   15100     294.3155   -27.860388     132031.9   -42300.081    3592.5378   -45892.619   0.14801906 
   15200    291.76396    24.776401    132039.69    -42246.79    3561.3926   -45808.183    0.1485392 
   15300    292.50893    33.388719    132056.75   -42301.546     3570.486   -45872.032   0.14018717 
   15400    288.12035    -14.00589    132007.11    -42332.69    3516.9172   -45849.607   0.15137711 
   15500    290.36804   -19.731472    132040.33   -42263.514    3544.3534   -45807.867   0.15092567 
   15600    295.89893    27.883589    132060.62   -42145.338    3611.8658   -45757.203    0.1541815 
   15700    295.94967   0.61221192    132064.75   -42129.847    3612.4851   -45742.332   0.14994938 
   15800    297.49294   -45.782259    132071.49   -42150.454     3631.323   -45781.777   0.14948339 
   15900    294.76817    20.824961    132077.39   -42145.723    3598.0633   -45743.787   0.15265006 
   16000     293.0334    5.4251849    132052.03   -42199.297    3576.8879   -45776.184   0.15252174 
   16100    293.17835    1.5709166    132060.39   -42273.954    3578.6573   -45852.611    0.1449678 
   16200    291.45632    30.482424    132077.38   -42233.459    3557.6374   -45791.096   0.14855507 
   16300    290.73947   -22.023768    132066.85   -42249.331    3548.8873   -45798.218   0.14261127 
   16400    293.08389    2.6016561    132073.81   -42271.757    3577.5043   -45849.261   0.15074311 
   16500    297.17467    30.696628    132087.61   -42185.603     3627.438   -45813.041   0.13995641 
   16600     296.2153    4.2833266    132099.31   -42163.867    3615.7275   -45779.594   0.15332653 
   16700    293.28278     5.346991    132080.61    -42193.03     3579.932   -45772.962   0.14522991 
   16800    294.58885   -14.204616    132074.14    -42237.11    3595.8744   -45832.984   0.15185929 
   16900    292.85043    7.3286307    132086.77   -42253.818    3574.6546   -45828.472   0.15005924 
   17000    287.99655     10.17009    132059.47   -42309.974    3515.4061    -45825.38   0.14100392 
   17100    295.26252   -10.024192    132065.43   -42244.473    3604.0975   -45848.571    0.1497739 
   17200    289.95255   -5.6193795    132075.05   -42304.668    3539.2818    -45843.95   0.14018603 
   17300    288.14838   -7.2108429    132068.25   -42372.975    3517.2593   -45890.234   0.14535678 
   17400    289.80133    8.9405493    132063.01   -42399.437    3537.4359   -45936.873   0.14501445 
   17500    288.72552    2.1319252    132085.83   -42275.714    3524.3042   -45800.018   0.14171104 
   17600    288.09612   -17.154565    132082.32   -42295.602    3516.6214   -45812.223   0.15149901 
   17700    287.01544    24.557592    132068.89   -42324.168    3503.4302   -45827.598   0.14281477 
   17800    289.86013    15.396957    132061.14   -42320.346    3538.1537     -45858.5   0.14251154 
   17900    289.11539    40.001942    132078.12   -42246.812    3529.0631   -45775.875   0.15344881 
   18000    292.38372   -28.654748    132107.46   -42208.096    3568.9577   -45777.054   0.14127958 
   18100    291.91986    12.002343    132095.34     -42164.7    3563.2956   -45727.996   0.16187951 
   18200    292.21636    13.212521    132109.86   -42271.131    3566.9148   -45838.046   0.13721603 
   18300     292.8022    5.2664126    132109.58   -42211.468    3574.0658   -45785.534   0.15031247 
   18400    290.46502   -20.579997     132094.3    -42321.89    3545.5372   -45867.427   0.14634506 
   18500    289.48504   -14.200821    132076.94   -42284.243    3533.5751   -45817.819   0.14315768 
   18600     293.3484    16.770398    132069.66   -42203.922     3580.733   -45784.655   0.15241302 
   18700    294.07735   0.30342004    132102.82   -42238.233    3589.6308   -45827.864    0.1417202 
   18800    293.69166    53.242612    132074.17   -42263.538    3584.9229   -45848.461   0.14480314 
   18900    291.38626    7.3706366    132079.49   -42233.417    3556.7822     -45790.2   0.15009417 
   19000    292.42908    17.151562    132118.56   -42213.775    3569.5113   -45783.287   0.14048026 
   19100     289.8644    9.6175366    132098.05   -42184.462    3538.2058   -45722.668    0.1548992 
   19200    291.83623    11.604019    132119.16   -42241.316    3562.2748   -45803.591   0.13984626 
   19300     295.0275    30.436134     132131.9   -42097.562    3601.2287   -45698.791   0.15320709 
   19400    289.81086    9.5102024    132132.43   -42181.041    3537.5523   -45718.593   0.15226325 
   19500    294.34272    13.844461    132144.03   -42152.014    3592.8701   -45744.884   0.14500531 
   19600    297.57656    5.3414489    132124.32   -42175.616    3632.3437    -45807.96   0.15420782 
   19700     295.0654 -0.0065482253    132132.17   -42187.526    3601.6913   -45789.217   0.13585759 
   19800    297.64994   -1.7468108    132131.79   -42184.451    3633.2393    -45817.69   0.15089597 
   19900     292.5811   -38.616779    132123.53   -42207.641    3571.3669   -45779.008   0.14125997 
   20000    290.03864   0.81398793    132102.05   -42243.178    3540.3326   -45783.511   0.14796912 
   20100    289.67385   -30.237156    132082.42     -42283.9    3535.8799   -45819.779   0.14843754 
   20200    290.60677    -31.95449    132090.92    -42307.39    3547.2674   -45854.658   0.14380626 
   20300    292.17049   -4.4912282    132107.53   -42234.876    3566.3549   -45801.231    0.1483242 
   20400    291.77071   -26.383086    132106.87   -42247.932     3561.475   -45809.407   0.14568191 
   20500    290.23166   -7.8890059    132086.38   -42305.338    3542.6887   -45848.027   0.14334821 
   20600    290.93757   -41.667361    132070.34   -42335.765    3551.3054    -45887.07   0.15043925 
   20700     288.5632    8.8695387    132055.36   -42289.086    3522.3228   -45811.409   0.14267309 
   20800    289.50471   -24.533624    132074.09   -42213.673    3533.8153   -45747.488   0.15646382 
   20900    298.57348   -8.1925206    132072.76   -42220.794    3644.5125   -45865.306    0.1402435 
   21000    295.46089    -13.50616    132079.88   -42266.479    3606.5189   -45872.998   0.14967827 
   21100    297.30371    14.353886    132084.52    -42216.09    3629.0131   -45845.103   0.14933346 
   21200    292.66782    12.264172    132104.35   -42204.395    3572.4255   -45776.821   0.14220098 
   21300    295.53262     10.60707     132118.1   -42166.195    3607.3944   -45773.589   0.15524391 
   21400    294.25739    -21.99037    132107.84   -42217.834    3591.8284   -45809.662   0.13990198 
   21500    291.98662   -47.130458    132107.16   -42160.821    3564.1105   -45724.932   0.16359345 
   21600    295.18612    11.492503     132140.2   -42141.843    3603.1649   -45745.008   0.14640265 
   21700    296.08888    20.629318    132124.17   -42244.945    3614.1844    -45859.13   0.13995763 
   21800    291.22431   -10.189352    132103.03   -42264.317    3554.8054   -45819.122   0.14963822 
   21900    295.19207     33.32793    132103.88   -42264.144    3603.2376   -45867.381   0.14058477 
   22000    291.02766     19.35356    132063.98   -42320.276     3552.405   -45872.681   0.14898342 
   22100    289.30424    32.915436    132121.27   -42296.328    3531.3682   -45827.696    0.1481766 
   22200    288.58436    -14.62972    132065.72   -42428.812    3522.5811   -45951.393   0.13737612 
   22300     284.7723   -31.390219    132055.55    -42338.09    3476.0494    -45814.14   0.15706019 
   22400    294.20477   -15.230727    132092.24   -42224.714    3591.1862     -45815.9   0.13883141 
   22500    290.49462   -20.765003    132089.97   -42237.418    3545.8986   -45783.317   0.15408499 
   22600    291.57411     4.901388    132090.82   -42252.782    3559.0752   -45811.857   0.14644047 
   22700    289.80331   -22.748137    132067.98   -42311.075    3537.4602   -45848.535   0.14558198 
   22800    296.74059    17.064756    132076.56   -42238.398    3622.1394   -45860.537   0.15018128 
   22900    292.50233    21.918778    132072.37   -42270.783    3570.4055   -45841.188   0.14024861 
   23000    290.31348   -26.499711    132050.75   -42327.853    3543.6874   -45871.541   0.15187533 
   23100    293.33818      53.1126    132066.21   -42243.669    3580.6082   -45824.277   0.14283763 
   23200    296.32275    -20.62693    132078.95   -42243.651    3617.0392    -45860.69   0.14659029 
   23300    293.51624     48.36476    132070.04   -42239.479    3582.7817   -45822.261   0.14485859 
   23400    292.27733    3.3096563    132100.76   -42220.973    3567.6591   -45788.632   0.14895659 
   23500    292.88081   -3.2715767     132091.4   -42204.656    3575.0253   -45779.681   0.14864138 
   23600    298.38788    2.0452662    132078.25   -42142.508    3642.2469   -45784.755   0.15354088 
   23700    296.13416    37.907766    132094.09    -42176.07    3614.7371   -45790.807   0.14022148 
   23800    296.95306   -31.582869    132103.03   -42182.484     3624.733   -45807.217   0.15264479 
   23900    287.70713   -33.976067    132076.44    -42270.52    3511.8732   -45782.394   0.14532796 
   24000    293.33227    25.987115    132058.95   -42222.438     3580.536   -45802.974   0.15154881 
   24100    295.36058    39.913023     132069.1   -42183.708    3605.2945   -45789.003   0.14283834 
   24200     296.6588    21.502989    132078.29   -42250.916     3621.141   -45872.057    0.1420435 
   24300     287.9853   -35.101923    132047.13   -42293.378    3515.2687   -45808.647   0.14661056 
   24400    289.63311     6.563508    132054.75   -42339.934    3535.3825   -45875.317   0.14327401 
   24500    294.73472    14.799374    132054.76   -42299.579    3597.6549   -45897.234   0.14517483 
   24600    287.22427   -1.7938718    132056.55   -42345.707    3505.9793   -45851.687   0.14384146 
   24700    290.80884     7.388698    132057.72   -42355.341    3549.7341   -45905.075   0.14610105 
   24800    293.44605   -13.876428    132085.24   -42326.036    3581.9249   -45907.961   0.14538555 
   24900    292.41119   0.79731993    132102.57   -42341.264    3569.2929   -45910.557   0.14498303 
   25000      292.839    25.469262    132090.81   -42302.263     3574.515   -45876.778   0.14452963 
   25100    293.41985    24.009641    132080.32   -42352.575    3581.6051    -45934.18   0.13994649 
   25200    284.47916   -11.302462    132055.46   -42465.138    3472.4713    -45937.61   0.13579987 
   25300    281.40859  -0.39859796    132048.29   -42399.781    3434.9907   -45834.772   0.14473983 
   25400     282.4447   -26.780152    132067.08   -42343.722    3447.6378   -45791.359   0.14451962 
   25500     288.5038    29.191965    132083.34   -42290.133    3521.5977   -45811.731   0.15132443 
   25600    293.49496   -9.6350227    132095.07   -42142.196    3582.5219   -45724.718   0.14575386 
   25700    289.10374   -22.402536    132060.57   -42259.488    3528.9209   -45788.409   0.15494555 
   25800    292.05823    10.881786    132070.28   -42145.269    3564.9846   -45710.254   0.15089618 
   25900    290.43226   -14.429343    132092.74   -42150.146    3545.1374   -45695.283   0.15681014 
   26000    292.11188   -2.4735505    132064.24    -42179.87    3565.6395    -45745.51   0.15663271 
   26100    297.45276    37.642921    132077.81   -42203.749    3630.8324   -45834.582   0.14057479 
   26200    291.02471   -2.1530325    132060.82   -42237.986     3552.369   -45790.355    0.1525733 
   26300    290.91614     15.54174     132049.7   -42293.464    3551.0438   -45844.508   0.14764224 
   26400    289.77497   -39.523603    132031.39   -42316.583    3537.1142   -45853.698   0.14870795 
   26500    293.64724    25.188003    132042.13   -42218.284    3584.3808   -45802.665   0.15137115 
   26600    295.32685    27.705702    132072.89   -42184.811    3604.8827   -45789.694   0.14068569 
   26700    296.52754    4.4029546    132077.98    -42149.33    3619.5389   -45768.869   0.15365671 
   26800    290.30555    13.197977    132064.81   -42207.318    3543.5906   -45750.909   0.15323158 
   26900    292.63687    32.185053    132073.87   -42180.731    3572.0477   -45752.779   0.14751978 
   27000     297.6511   -22.346518     132060.5   -42175.426    3633.2535   -45808.679   0.16090781 
   27100    294.10051    16.966741    132087.91   -42166.686    3589.9135   -45756.599   0.14313502 
   27200    293.54662    9.3156327    132072.18   -42200.013    3583.1525   -45783.165   0.15520731 
   27300    297.19646   -6.3352756    132086.81   -42106.512     3627.704   -45734.216   0.15300822 
   27400    294.88169   -20.590871    132080.43   -42139.975    3599.4489   -45739.424   0.15539502 
   27500    294.17334   -11.218639    132064.03   -42249.671    3590.8025   -45840.473   0.15189356 
   27600     288.5756   -22.384574    132031.87   -42359.356    3522.4741    -45881.83   0.14473639 
   27700    294.86695    60.344686     132019.6    -42262.59    3599.2689   -45861.859   0.14528042 
   27800    297.36478    18.388482    132057.78    -42182.86    3629.7586   -45812.619   0.15111383 
   27900    292.60787    6.8436343    132044.83   -42276.736    3571.6938    -45848.43   0.14453372 
   28000    289.61726   -24.742041    132042.07   -42336.706     3535.189   -45871.895   0.15478415 
   28100    294.89963    7.0730354    132030.43    -42312.93    3599.6679   -45912.598   0.14082842 
   28200    292.21435   -27.782605    132039.26   -42291.699    3566.8902    -45858.59   0.15660884 
   28300    292.92971    -10.33799    132019.74   -42283.513    3575.6222   -45859.136   0.14783001 
   28400    290.81644   -40.529236    132003.71   -42268.413    3549.8268    -45818.24   0.15597484 
   28500    286.95288   -1.6964373    132020.81   -42276.105    3502.6666   -45778.771   0.15392759 
   28600    294.29591    7.5632144     132037.5    -42303.09    3592.2987   -45895.389   0.14452378 
   28700    292.59875   -26.017923    132017.41   -42288.528    3571.5824    -45860.11    0.1571496 
   28800    287.46018   -24.797121    132019.64   -42313.167    3508.8588   -45822.026   0.14693444 
   28900    286.94006    61.507653    132039.82   -42278.831    3502.5101   -45781.341   0.15330349 
   29000    289.81743    35.408108    132054.99   -42252.621    3537.6325   -45790.253   0.14578782 
   29100    291.81925  -0.60434809    132077.88   -42215.055    3562.0675   -45777.122   0.15104635 
   29200    293.09167    7.7509827     132087.9   -42129.342    3577.5992   -45706.941   0.15650406 
   29300     293.5593   -1.0859644    132094.72   -42155.874    3583.3072   -45739.181   0.14956608 
   29400    292.31354   -19.977599    132079.29   -42207.707     3568.101   -45775.808   0.15339528 
   29500    292.66091    -37.32442    132059.68   -42183.247    3572.3412   -45755.588   0.15463083 
   29600    291.93041   -16.822331    132066.22   -42180.112    3563.4243   -45743.536   0.14943046 
   29700     289.3848   -7.9261461    132081.29    -42247.86    3532.3516   -45780.212   0.15674634 
   29800    287.68357    22.451083    132039.15   -42340.418    3511.5857   -45852.004   0.13791063 
   29900     286.7617   -34.667634    132056.69   -42293.493    3500.3329   -45793.826   0.15701634 
   30000    290.13023   -20.240573    132036.13   -42340.917    3541.4506   -45882.367   0.14331645 
   30100    296.89341    13.598857    132065.85   -42246.296    3624.0048   -45870.301   0.14949726 
   30200     293.8404   -31.160149       132056   -42294.603    3586.7384   -45881.341   0.15224239 
   30300     296.0433   -19.768596    132050.89   -42292.202     3613.628    -45905.83   0.14011424 
   30400    293.37752   -1.6370193    132062.28   -42262.649    3581.0884   -45843.737   0.15493509 
   30500    288.02957      -2.6773    132026.56    -42378.03    3515.8091   -45893.839   0.13996894 
   30600    291.20712    15.078458    132030.39   -42315.749    3554.5955   -45870.344   0.14950686 
   30700    283.00998   -47.554221    132066.46   -42351.222    3454.5379    -45805.76   0.15285208 
   30800    290.48185     1.583431    132060.04   -42296.639    3545.7426   -45842.381    0.1417427 
   30900    291.69392   -8.6106667    132069.12   -42230.154    3560.5377   -45790.692   0.15503577 
   31000    292.52724   -12.799182    132065.15   -42255.524    3570.7096   -45826.234   0.14680259 
   31100    288.66026    1.1627939    132029.18   -42260.996    3523.5076   -45784.503     0.150386 
   31200    288.19732   -8.2603687    132046.54   -42254.099    3517.8567   -45771.956   0.15920916 
   31300    292.91444   0.73467795    132067.61   -42141.975    3575.4358   -45717.411   0.14493008 
   31400    291.49117   -31.995787     132068.3   -42228.676    3558.0629   -45786.739   0.16045523 
   31500    297.13429   -28.830391     132076.5   -42189.323    3626.9451   -45816.268   0.14479529 
   31600    293.99591   -43.921934    132063.78   -42219.933    3588.6367    -45808.57   0.15858219 
   31700    296.99884    24.526495     132051.1   -42212.534    3625.2918   -45837.825   0.14900665 
   31800    297.82052    3.6477053    132065.28   -42196.733    3635.3215   -45832.054    0.1445962 
   31900    287.36119   -5.7998446    132048.65   -42252.362    3507.6506   -45760.013   0.15251756 
   32000    293.69115   -25.900572    132055.52   -42243.834    3584.9166   -45828.751   0.14699229 
   32100    291.62341   -46.790564       132073   -42274.338    3559.6771   -45834.015   0.15384467 
   32200    290.87039   -41.374241    132057.11   -42381.791    3550.4853   -45932.277    0.1482516 
   32300    288.12902    23.716439    132037.25   -42341.299     3517.023   -45858.322   0.14131094 
   32400     281.3154   -14.848822    132039.92   -42359.909    3433.8532   -45793.762   0.15129094 
   32500    288.58498     8.969782     132043.4   -42257.532    3522.5887   -45780.121   0.15121614 
   32600    296.71775    35.238581    132068.45   -42208.668    3621.8606   -45830.528   0.14992544 
   32700    289.40528   -11.358879    132042.71   -42298.193    3532.6016   -45830.794   0.15189304 
   32800    295.95755    7.2403015    132063.98    -42181.68    3612.5813   -45794.261   0.14533924 
   32900    295.10826    12.275516    132060.32   -42225.269    3602.2145   -45827.484   0.15501718 
   33000    293.74798    4.0912594    132073.87   -42223.346    3585.6103   -45808.956   0.14407124 
   33100    297.66271   -10.844374     132053.1   -42233.927    3633.3953   -45867.322     0.155398 
   33200    292.68881    7.9942872    132060.02   -42251.762    3572.6817   -45824.444   0.14404951 
   33300    295.90821   -3.4890405    132056.05   -42230.139     3611.979   -45842.118    0.1512734 
   33400    295.17216    34.058946    132048.71   -42258.447    3602.9945   -45861.442   0.14393856 
   33500    288.67096    6.0168966    132040.25   -42317.286    3523.6382   -45840.924   0.14796378 
   33600    291.67662    13.170056    132038.09   -42297.001    3560.3265   -45857.328   0.15022714 
   33700    290.35233     -10.0053    132050.54   -42257.693    3544.1616   -45801.854   0.14911051 
   33800     298.2201   -15.128881     132091.1   -42120.208    3640.1989   -45760.407   0.15140901 
   33900    297.77085    31.240917    132098.46   -42102.961    3634.7152   -45737.677   0.15200208 
   34000    292.75874   -7.2168761    132057.94   -42261.907    3573.5353   -45835.442   0.14755459 
   34100    292.74493   -38.097574    132063.31   -42255.876    3573.3667   -45829.242   0.15220419 
   34200    287.10114   -26.525465    132056.02   -42287.632    3504.4763   -45792.109   0.14736103 
   34300    292.66584   -19.362469    132076.95    -42339.81    3572.4013   -45912.211   0.14209088 
   34400    291.63918    -14.77206    132050.58   -42304.442    3559.8695   -45864.311   0.14891434 
   34500    294.60782   -12.019909    132077.24   -42180.268     3596.106   -45776.374   0.14453317 
   34600    294.68456    4.4015425    132080.02   -42136.663    3597.0427   -45733.706   0.15907225 
   34700    299.69581     9.209492    132052.56   -42229.054    3658.2121   -45887.266   0.13727427 
   34800    293.62775    28.160487    132014.38    -42280.49    3584.1428   -45864.633   0.15124042 
   34900    288.00223    16.976824    132043.29   -42241.726    3515.4754   -45757.201    0.1479491 
   35000    292.10037    30.900113    132034.44    -42258.28     3565.499   -45823.779   0.14744855 
   35100    295.50283   -32.945286    132053.85   -42224.976    3607.0308   -45832.007   0.14992636 
   35200    298.26326    21.226973    132080.14   -42179.978    3640.7257   -45820.704   0.14219423 
   35300    292.68731   -36.549697    132067.59   -42218.558    3572.6634   -45791.221    0.1487303 
   35400    293.57026   -50.595801    132054.91   -42258.904     3583.441   -45842.345   0.15329732 
   35500    293.00283    0.5799515    132057.81    -42270.37    3576.5147   -45846.885    0.1399927 
   35600    290.67271   -29.811573     132081.8   -42257.144    3548.0724   -45805.217   0.15397313 
   35700    293.80226   -13.365397    132083.94   -42209.213    3586.2729   -45795.486   0.14170882 
   35800    301.15376    7.5636241    132099.25   -42070.416    3676.0084   -45746.424   0.15296463 
   35900    293.05764    13.457973    132086.63   -42169.206    3577.1838    -45746.39   0.15282364 
   36000    290.48631   -11.532735    132078.45     -42248.4    3545.7971   -45794.197   0.14285089 
   36100    291.60304     22.71239    132049.53    -42283.36    3559.4284   -45842.788   0.15213072 
   36200    291.91003   -5.3787511    132044.58    -42264.91    3563.1756   -45828.085   0.14137342 
   36300    292.14793    35.365256    132034.03   -42263.411    3566.0795    -45829.49   0.15083809 
   36400    289.11936   -56.834012    132047.52   -42286.506    3529.1115   -45815.618    0.1513254 
   36500    291.00911   -4.0553986    132027.69   -42293.705    3552.1785   -45845.883   0.14719325 
   36600    293.99429      40.5215     132023.4   -42247.517     3588.617   -45836.134   0.15070402 
   36700    289.58837    10.977002    132025.84    -42305.84    3534.8364   -45840.677   0.14772866 
   36800    292.19545    14.012931    132009.27   -42359.176    3566.6595   -45925.836    0.1442553 
   36900    288.65511    -20.07485    132009.03   -42303.246    3523.4447   -45826.691   0.15451029 
   37000    292.26989    0.9782144    132030.06   -42290.963    3567.5682   -45858.531   0.13886556 
   37100    286.11689   -12.090822    132001.66   -42315.671    3492.4621   -45808.133   0.15744638 
   37200    289.98914   -5.2097464    132018.83   -42322.285    3539.7284   -45862.013   0.14085969 
   37300    284.13802   -29.260512    132033.87   -42335.217    3468.3073   -45803.524   0.15882352 
   37400     284.2464   -28.547691    132026.74    -42360.87    3469.6302     -45830.5   0.14603879 
   37500     292.6685   -2.3685856    132040.08   -42322.256    3572.4337    -45894.69   0.14728777 
   37600    291.92476   -17.674954    132019.88   -42341.558    3563.3554   -45904.914    0.1469232 
   37700    280.08348   -18.339569    131997.61   -42451.046    3418.8157   -45869.862   0.14323194 
   37800    281.27341    10.565642    131977.21   -42479.402    3433.3405   -45912.743   0.14906147 
   37900    288.04574    39.156751    131995.77   -42359.666    3516.0065   -45875.672   0.14188685 
   38000    289.61314    9.2264084    132036.41   -42279.531    3535.1388    -45814.67   0.14696652 
   38100    294.03663    33.632013    132044.55   -42269.001    3589.1338   -45858.135   0.14627389 
   38200    295.01773    7.1853732    132074.42   -42222.359    3601.1094   -45823.468   0.14542786 
   38300    292.11952    2.8705085    132061.66   -42255.313    3565.7328   -45821.046   0.15382276 
   38400    296.45994    22.880154    132074.62   -42215.778    3618.7137   -45834.492   0.14522212 
   38500    298.90014   -8.9709274    132065.17   -42250.027    3648.4998   -45898.527    0.1475301 
   38600    291.28657   -10.996288    132071.67   -42234.471    3555.5654   -45790.036   0.15324731 
   38700    288.94588   -46.395924    132086.13   -42216.094     3526.994   -45743.088   0.14591702 
   38800    291.52701   -9.7685187    132055.58   -42259.811    3558.5002   -45818.311   0.16020103 
   38900    292.34594    20.194139    132090.11   -42160.325    3568.4965   -45728.822   0.14058987 
   39000    292.32238    17.327602    132072.83   -42210.319    3568.2089   -45778.528   0.15572238 
   39100    294.59372    45.279456    132055.37   -42237.041    3595.9338   -45832.975   0.14072348 
   39200    285.73517   -17.312783    132034.18   -42350.306    3487.8027   -45838.109   0.14639797 
   39300    288.11844    6.1328901    131995.76   -42386.654    3516.8939   -45903.548   0.15141892 
   39400    291.54676   -7.8338436     132032.5   -42226.595    3558.7413   -45785.336   0.14718435 
   39500     292.4558   -43.929486    132048.83   -42252.898    3569.8374   -45822.735   0.15298792 
   39600    296.10728   -18.028672    132072.54   -42222.841     3614.409    -45837.25   0.14643581 
   39700    290.49213   -8.2608345    132063.45   -42232.474    3545.8681   -45778.342   0.14462094 
   39800    287.43498    5.1777252    132059.44   -42263.635    3508.5512   -45772.186   0.15837814 
   39900    288.55605   -9.0811386    132080.02   -42213.067    3522.2356   -45735.303   0.14659197 
   40000    292.99116    29.262769    132075.71   -42259.411    3576.3723   -45835.783   0.15079296 
   40100    289.97397    0.8416394    132055.12   -42279.127    3539.5432   -45818.671   0.14615979 
   40200    292.59593    16.699794    132061.97   -42259.124     3571.548   -45830.672   0.14057783 
   40300    283.55784    10.781084    132051.69   -42313.656    3461.2253   -45774.881   0.15693099 
   40400    290.31779    -19.93382    132061.97   -42361.671      3543.74   -45905.411   0.13482127 
   40500    294.13307    37.484693    132058.34   -42252.641     3590.311   -45842.952   0.15540099 
   40600    289.74209   -3.5648794    132092.97   -42263.134    3536.7128   -45799.846   0.13963237 
   40700    289.17205   -18.107019    132071.34   -42327.518    3529.7547   -45857.273   0.14772349 
   40800    286.56823   -19.729839    132051.74    -42237.54    3497.9713   -45735.511   0.15347067 
   40900    295.24159    21.279752    132053.13   -42305.103     3603.842   -45908.945   0.14259163 
   41000    293.23398    10.961688    132058.74   -42302.499    3579.3363   -45881.836   0.14573112 
   41100    288.59749    20.546688    132057.86   -42305.174    3522.7413   -45827.915   0.14523854 
   41200    288.66281    50.935892    132086.86   -42203.868    3523.5387   -45727.406   0.14515577 
   41300    293.50821   -4.0924908    132081.39   -42257.903    3582.6837   -45840.587   0.15049044 
   41400    297.90318   -24.195311    132090.21   -42242.087    3636.3305   -45878.418   0.14028558 
   41500    297.34313    42.293414    132079.83   -42212.406    3629.4943     -45841.9   0.15042248 
   41600    299.91961    27.241254     132067.2   -42226.006    3660.9439    -45886.95   0.13812133 
   41700    293.85309   -19.401386    132032.29   -42332.506    3586.8934     -45919.4   0.14512532 
   41800    288.87067   0.64325158    132049.34   -42254.727    3526.0759   -45780.803   0.14801767 
   41900     291.1027    8.4918323    132047.71   -42335.807     3553.321   -45889.128   0.14185412 
   42000    293.23756   -14.932372    132032.47   -42304.595      3579.38   -45883.975     0.150517 
   42100    292.88873    51.397757    132047.28   -42375.612     3575.122   -45950.734   0.13376751 
   42200    290.75845   -37.572713    132028.29   -42314.877     3549.119   -45863.996   0.15334043 
   42300    290.79014    35.547277       132031   -42295.934    3549.5058   -45845.439   0.14150271 
   42400    287.61277    2.4636151    132029.29   -42298.829    3510.7215    -45809.55   0.14716491 
   42500    294.56769    20.687415    132075.37   -42273.437    3595.6161   -45869.053   0.14032846 
   42600    293.39335    21.100578    132048.55   -42292.923    3581.2816   -45874.204   0.14103097 
   42700    286.36449    13.483933    132027.09   -42375.662    3495.4844   -45871.146   0.14520371 
   42800    291.34981    15.628764    132014.43   -42293.467    3556.3373   -45849.804    0.1475638 
   42900    285.17178   -10.500721    132026.15    -42320.63    3480.9257   -45801.556    0.1446804 
   43000    290.33733   -7.4913131    132041.55   -42301.909    3543.9786   -45845.887    0.1503572 
   43100    289.10786    28.432473    132063.81   -42261.898    3528.9711    -45790.87   0.13807342 
   43200    291.62349   -9.5369641    132058.67   -42280.092    3559.6779    -45839.77   0.15091335 
   43300    292.51528    15.801569    132040.95   -42319.505    3570.5636   -45890.069   0.13826195 
   43400    290.47541   -33.547483    132065.41   -42252.176     3545.664    -45797.84   0.14804773 
   43500    290.35022    10.962026    132076.19    -42254.99    3544.1359   -45799.126   0.14624927 
   43600    295.76611    2.8622193    132056.71   -42286.627    3610.2446   -45896.872   0.13961121 
   43700    289.66122    19.207432    132033.47   -42359.514    3535.7257   -45895.239   0.14844895 
   43800     289.3475    10.416675    132024.32   -42376.427    3531.8963   -45908.323   0.13902777 
   43900     294.0158   -9.5601385    132022.35   -42297.326    3588.8795   -45886.206   0.15021898 
   44000    287.12253    55.730996    132037.54   -42394.184    3504.7373   -45898.922   0.14041777 
   44100    290.03182  -0.80865381    132032.15   -42392.742    3540.2493   -45932.991   0.14148934 
   44200    283.54592    6.9951336    132056.65   -42308.457    3461.0798   -45769.537   0.14872728 
   44300    288.20473   -38.709686    132056.76    -42315.66    3517.9471   -45833.607   0.14527639 
   44400     285.5269   -13.583308    132040.93   -42351.072    3485.2605   -45836.332   0.14406665 
   44500    288.14022    4.2999576    132051.49   -42335.223    3517.1597   -45852.383   0.14802376 
   44600    293.74881    41.823535    132045.62   -42320.813    3585.6205   -45906.434   0.13384807 
   44700    291.26301    41.080086    132027.59   -42299.626    3555.2778   -45854.904   0.15137114 
   44800    287.67433    18.552998    132048.76   -42296.256    3511.4729   -45807.728   0.13895516 
   44900     288.8614    10.590809    132056.63   -42268.212    3525.9628   -45794.175   0.15327753 
   45000    290.01272   -9.6229818    132033.58   -42278.334    3540.0162    -45818.35   0.14506244 
   45100     295.6851     37.34909    132057.25   -42183.375    3609.2556   -45792.631   0.14375938 
   45200    293.85019    23.377137    132034.06   -42224.457     3586.858   -45811.315   0.14941781 
   45300    287.22853   -11.760173       132028   -42264.268    3506.0312   -45770.299   0.14627547 
   45400     290.7828    30.002783    132008.54   -42276.882    3549.4162   -45826.298   0.14930785 
   45500    290.37863   -13.300581    132017.61   -42242.001    3544.4826   -45786.484   0.15113689 
   45600    287.27954   -49.450288    132035.36   -42210.917    3506.6539   -45717.571   0.15355207 
   45700    290.46421     22.47185    132015.74   -42187.803    3545.5273   -45733.331   0.15045428 
   45800    287.53503    16.177455    131999.47   -42233.796    3509.7726   -45743.569   0.14619733 
   45900    291.19373    16.774781    132007.42   -42160.767    3554.4322     -45715.2   0.15075423 
   46000    295.15913   -17.499661    132010.94   -42192.699    3602.8355   -45795.535   0.15146965 
   46100    293.21935    25.711663    132037.61   -42112.832    3579.1577   -45691.989   0.14985283 
   46200    299.97794    31.276092    132016.28   -42171.155    3661.6558   -45832.811   0.15343659 
   46300    296.28102    6.9524172    132024.55   -42142.234    3616.5298   -45758.764   0.14636693 
   46400    288.30999   -26.178705    132012.17   -42200.952     3519.232   -45720.184    0.1606879 
   46500    297.41025    9.7036455    132033.97   -42135.444    3630.3136   -45765.758   0.14763044 
   46600    292.88469   -15.103197     132018.7   -42246.864    3575.0727   -45821.936   0.15466275 
   46700    295.15254      6.39709    132023.15   -42174.443    3602.7551   -45777.198   0.14947666 
   46800    290.09207   -30.787945    132008.72   -42163.877    3540.9848   -45704.862   0.15254634 
   46900    298.42271    13.081459    132022.57   -42201.713     3642.672   -45844.385   0.14943132 
   47000    290.81406   0.88914595    132007.24   -42254.912    3549.7977    -45804.71    0.1457863 
   47100    293.39994   -3.3013529    132029.85   -42270.443    3581.3621   -45851.805   0.14710065 
   47200    290.70162    8.7676097    131995.34   -42270.255    3548.4252    -45818.68   0.14806604 
   47300    293.63059   -16.677829    132024.19   -42340.491    3584.1775   -45924.668   0.14161234 
   47400     296.3456    50.874164    132009.63   -42286.392     3617.318    -45903.71   0.14633691 
   47500    288.30913    -1.087003    131999.31   -42310.148    3519.2215   -45829.369   0.14685446 
   47600    293.29841    41.748491    132041.08   -42292.024    3580.1228   -45872.147   0.14524922 
   47700    292.38605    17.076958    132047.99   -42231.383     3568.986   -45800.369   0.14759545 
   47800    296.00951   -22.829161    132064.03   -42281.228    3613.2156   -45894.444   0.14041605 
   47900    291.19796   -9.2779692    132023.38   -42331.699    3554.4838   -45886.183   0.14944551 
   48000    291.83739   -10.222379    132056.44   -42290.356     3562.289   -45852.645   0.14073873 
   48100     289.0096    8.6784367    132035.52   -42335.734    3527.7717   -45863.506   0.14762056 
   48200    292.31395    -2.497294    132039.26   -42323.313     3568.106   -45891.419   0.13852694 
   48300    294.84777    23.060372     132053.1   -42294.892    3599.0349   -45893.927     0.139613 
   48400    290.82497   -16.712413     132062.5   -42302.402    3549.9309   -45852.333   0.14243303 
   48500    284.59651    16.506198    132016.49   -42377.346    3473.9037   -45851.249   0.14240258 
   48600    292.92978    1.1355731     132005.4   -42373.539    3575.6231   -45949.162   0.14291756 
   48700    290.49697    31.663277    132023.52   -42274.388    3545.9272   -45820.315    0.1458535 
   48800    290.02222    2.1939131    132024.94   -42284.303    3540.1322   -45824.435   0.14274491 
   48900     289.9319    10.992777     132037.5   -42265.238    3539.0297   -45804.268   0.15069516 
   49000     285.4514    5.8419511    132017.27   -42312.138    3484.3389   -45796.477   0.14521794 
   49100    287.68553   -31.463422    132035.36   -42250.435    3511.6096   -45762.044   0.15301166 
   49200    295.54907    -1.292499    132043.09    -42251.91    3607.5952   -45859.506   0.14610003 
   49300     293.8677   -31.704683    132031.49   -42309.462    3587.0717   -45896.534   0.14221388 
   49400     285.0252    1.1294623    132019.47    -42353.91    3479.1364   -45833.047   0.14692474 
   49500    287.27414    24.187373    132010.98   -42277.476     3506.588   -45784.064   0.14684807 
   49600    289.50463    19.664189    132005.48    -42295.36    3533.8143   -45829.174   0.15008591 
   49700    290.49704    1.9489232    132021.48   -42313.305     3545.928   -45859.233   0.14239736 
   49800    286.52636    -11.61361    132018.53   -42292.925    3497.4603   -45790.385   0.14709595 
   49900    292.62027    26.920938    131994.82   -42254.914     3571.845   -45826.759   0.14866238 
   50000    292.39151    15.840095    132008.18   -42261.679    3569.0527   -45830.731   0.15070581 
   50100    297.13949    43.910279    132039.05       -42142    3627.0086   -45769.008   0.14736313 
   50200    289.62897   -39.273092    132038.72   -42221.568     3535.332     -45756.9   0.15549216 
   50300    290.75414   -5.5858908    132029.79   -42237.102    3549.0663   -45786.168   0.14562182 
   50400    288.41416   0.89657515    132020.58   -42253.851    3520.5036   -45774.355   0.15483773 
   50500     291.2733   -16.971646    132040.23   -42197.212    3555.4035   -45752.616   0.14922338 
   50600    298.14339    13.153056     132063.7   -42091.812    3639.2626   -45731.075   0.15385898 
   50700    293.28035    11.583565    132022.85   -42324.931    3579.9023   -45904.833   0.14195827 
   50800    287.77677   -6.1744832    132001.62   -42335.076    3512.7233   -45847.799   0.14813402 
   50900    282.87318     2.049508    132016.96   -42342.465     3452.868   -45795.333   0.14923515 
   51000    286.51931   -3.7870643    132028.17   -42307.122    3497.3742   -45804.497    0.1503306 
   51100    289.56022   -25.576927    132032.51   -42302.662    3534.4928   -45837.155   0.15172431 
   51200    286.12119   -31.276097    132007.69   -42359.321    3492.5146   -45851.836    0.1480329 
   51300    290.01794    26.668179    131973.16   -42369.682      3540.08   -45909.762   0.14623408 
   51400    294.43691    9.9755524    132003.94   -42306.377    3594.0197   -45900.396   0.14931889 
   51500    284.64241    10.000222    132025.89   -42341.055     3474.464   -45815.519   0.14816974 
   51600    290.84954   -11.057915    132013.57   -42287.307    3550.2308   -45837.538   0.15296563 
   51700     292.0684    -14.28453    132025.98   -42229.492    3565.1088   -45794.601   0.15224889 
   51800    293.08577    4.2718905    132025.12   -42222.013    3577.5272    -45799.54   0.14889561 
   51900    295.77368    38.458621    132016.32   -42280.908     3610.337   -45891.245   0.15025933 
   52000    291.87113    28.306121    132010.35   -42281.617    3562.7008   -45844.317   0.14647289 
   52100    285.53333      12.7822    132003.91   -42357.692    3485.3389   -45843.031   0.15387925 
   52200    285.47227    20.762961    132005.38   -42389.698    3484.5936   -45874.291   0.14166527 
   52300    284.17924    -4.301383    131984.64   -42380.231    3468.8103   -45849.041   0.15060974 
   52400    283.66022    -6.988721    131979.91   -42467.151    3462.4749   -45929.626   0.14544144 
   52500    284.95819    1.1494474    131975.13    -42346.29    3478.3185   -45824.608   0.15056025 
   52600    288.55444   -35.981814    131999.94    -42265.25    3522.2159   -45787.466   0.15650341 
   52700    289.64663    1.7953819    131999.13   -42276.899    3535.5476   -45812.447   0.14630124 
   52800    297.13825   -12.220844    132020.56    -42171.12    3626.9934   -45798.113   0.15733416 
   52900    298.55435   -8.8519443    132033.77   -42225.912    3644.2789   -45870.191   0.15200617 
   53000    288.75918   -28.627372    132025.72    -42186.97     3524.715   -45711.685   0.15734703 
   53100    288.78888   -9.2246558     132017.8   -42304.928    3525.0775   -45830.005   0.15280973 
   53200    284.70924    3.1005877    132017.18   -42356.379    3475.2797   -45831.659   0.14490001 
   53300    286.71409   -4.8053121    132016.25   -42352.815    3499.7518   -45852.567   0.15085001 
   53400    289.96631   -4.5153583    132024.08   -42267.495    3539.4498   -45806.944   0.15105084 
   53500    291.83534    28.356977    132041.46   -42232.853    3562.2639   -45795.117   0.14890304 
   53600    288.38665   -3.5312625    132027.82   -42316.666    3520.1677   -45836.834   0.15491786 
   53700    285.76884   -58.323539    132031.61   -42272.193    3488.2137   -45760.407   0.14839209 
   53800    296.55281    48.514964     132013.7   -42306.793    3619.8473   -45926.641   0.14925023 
   53900    287.55414   -11.712496    132037.86   -42319.692    3510.0058   -45829.698   0.14738384 
   54000    294.42979    29.116282    132045.17   -42345.796    3593.9328   -45939.729   0.14536959 
   54100    289.11607   -10.361368    132068.03   -42291.669    3529.0713    -45820.74   0.15206262 
   54200    295.29565    6.0338459    132069.67   -42242.345    3604.5019   -45846.847   0.14647379 
   54300    293.39663    26.528258    132092.76   -42176.176    3581.3217   -45757.498   0.15407813 
   54400    296.08531   -13.769994    132103.55   -42135.658    3614.1408   -45749.799   0.14946213 
   54500    295.79137    19.571383    132084.43   -42200.282    3610.5529   -45810.835   0.15025522 
   54600    295.43714      7.76595    132076.87   -42178.278     3606.229   -45784.507   0.15168965 
   54700    292.68945     10.36058    132069.42   -42215.162    3572.6895   -45787.851    0.1475939 
   54800    289.90629    2.0870301    132080.05   -42192.122    3538.7171   -45730.839   0.15633111 
   54900      296.196   -20.096602    132078.71   -42205.461    3615.4919   -45820.953   0.14921293 
   55000    295.84759   -23.611318    132075.41   -42221.654    3611.2391   -45832.893   0.15672907 
   55100    292.20279    12.798937    132053.28   -42220.458    3566.7491   -45787.207   0.15078363 
   55200    285.66632   -6.7981745    132045.61   -42361.632    3486.9623   -45848.594   0.14409868 
   55300    284.90551    16.934712    132011.98   -42410.684    3477.6756    -45888.36   0.15121565 
   55400    283.81859   -6.5602533    132028.55   -42349.877    3464.4081   -45814.285   0.14527801 
   55500    289.05253    -10.09035    132008.67   -42348.532    3528.2957   -45876.828   0.15706225 
   55600     295.9285    30.302039    132037.17   -42235.396    3612.2267   -45847.622   0.14689618 
   55700     293.4117    20.093233    132034.07   -42180.305    3581.5056   -45761.811   0.15583761 
   55800    294.36245    15.583206    132057.43    -42169.38    3593.1108    -45762.49   0.15383639 
   55900    298.51832    30.966733    132048.07   -42201.429    3643.8391   -45845.268   0.14902401 
   56000    289.50358   -58.614656    132057.16    -42209.31    3533.8014   -45743.111   0.16137861 
   56100    295.03028    27.104919    132052.53   -42189.648    3601.2627   -45790.911   0.14839087 
   56200    299.19348    15.683725     132040.6   -42211.064    3652.0804   -45863.144   0.15332724 
   56300    289.88397   -26.188881    132045.21   -42298.941    3538.4446   -45837.386   0.14934673 
   56400    286.68703    -9.932268    132019.42   -42331.843    3499.4215   -45831.265   0.15015009 
   56500    284.20485    6.6277531    131991.48   -42385.729     3469.123   -45854.852   0.15297525 
   56600    288.31318    13.491562    131981.59   -42424.073    3519.2709   -45943.344   0.14446785 
   56700    285.44382   -20.723179    132016.61   -42383.648    3484.2463   -45867.894   0.15294639 
   56800    294.74294     25.78862    132019.08   -42280.073    3597.7553   -45877.829   0.14802673 
   56900    285.68966   -18.570197    132006.02   -42387.855    3487.2471   -45875.102   0.15000385 
   57000    285.66639     11.58914       131987   -42407.371    3486.9632   -45894.334   0.15369838 
   57100    298.12685    15.962252    132021.32   -42291.331    3639.0607   -45930.392   0.14417573 
   57200    285.28717   -24.693518    132016.45   -42253.882    3482.3342   -45736.216   0.15993728 
   57300    282.75707    -40.68428    132019.23   -42381.734    3451.4507   -45833.185   0.14710651 
   57400     293.1694    56.551994    132017.89   -42286.111     3578.548   -45864.659   0.15198114 
   57500    293.29212    20.751522    132017.15   -42278.957     3580.046   -45859.003   0.15018737 
   57600    289.30121    43.925096    132014.14   -42350.624    3531.3313   -45881.955   0.14544397 
   57700    292.00849   -3.3370601    132028.77   -42311.684    3564.3774   -45876.062   0.15090732 
   57800    287.33271   -6.9028057    132036.16   -42227.594     3507.303   -45734.897   0.15403804 
   57900    290.58841   -33.241775    132027.67    -42298.31    3547.0434   -45845.353   0.15180993 
   58000    292.23935    18.483209    132047.48   -42232.134    3567.1955    -45799.33   0.15005112 
   58100     287.9203   -19.930281    132032.03    -42295.17    3514.4753   -45809.645   0.15154035 
   58200    296.86871    44.544382    132045.27   -42140.439    3623.7033   -45764.142   0.15843661 
   58300    291.27734    27.861145     132041.7   -42206.232    3555.4527   -45761.685    0.1507997 
   58400    292.40068    6.4083192    132052.12   -42258.457    3569.1647   -45827.622   0.15328985 
   58500    293.84996    36.524799     132049.3   -42282.189    3586.8551   -45869.044   0.14865934 
   58600    288.55971    16.105032    131999.59   -42320.233    3522.2802   -45842.513   0.15065469 
   58700    289.49564    39.819046    132044.46   -42278.525    3533.7046   -45812.229   0.15057302 
   58800    291.76781  -0.35272015    132057.12   -42284.437    3561.4396   -45845.877   0.14510636 
   58900    293.03987   -17.520164    132059.03   -42231.992    3576.9669   -45808.959   0.15645041 
   59000    297.54009    1.3647644    132069.14   -42148.233    3631.8985   -45780.131   0.15029076 
   59100    297.92013    25.533809    132072.24    -42163.25    3636.5374   -45799.787    0.1534904 
   59200    289.48094   -23.041741    132071.67   -42245.411    3533.5251   -45778.936   0.15062774 
   59300    293.45538  -0.68233385    132048.58   -42260.878    3582.0388   -45842.917   0.15176439 
   59400    286.73475   -20.424939    132030.64   -42236.181    3500.0039   -45736.185   0.15683401 
   59500    283.61635    17.200975    132035.25   -42340.851    3461.9395   -45802.791   0.14944906 
   59600    291.71599    20.525012     132022.3   -42279.862    3560.8071   -45840.669   0.14952258 
   59700    292.82437   -8.6233429    132040.57   -42236.017    3574.3365   -45810.353   0.15269608 
   59800     286.3275    17.216025     132027.3   -42367.528    3495.0329   -45862.561   0.14796084 
   59900    289.99916   -29.870795    132017.91   -42366.696    3539.8508   -45906.547   0.15076221 
   60000    294.80487    25.497636    132050.28   -42309.247    3598.5113   -45907.758   0.14333633 
   60100    293.65729   -39.907338    132021.84   -42302.858    3584.5034   -45887.362   0.15072209 
   60200    294.62701    -12.30972    132015.44   -42264.233    3596.3402   -45860.574   0.15027285 
   60300    294.07782    2.4738005    132026.75   -42205.558    3589.6365   -45795.195   0.15345195 
   60400     291.5062   -15.608142    132059.64   -42167.791    3558.2462   -45726.037   0.15988986 
   60500    294.09777    7.9265413    132078.48   -42156.346    3589.8801   -45746.226    0.1531976 
   60600    290.49254   -34.453881    132045.37   -42247.473    3545.8731   -45793.346   0.15579648 
   60700    294.89367    5.2002364    132045.02   -42108.404    3599.5952   -45707.999   0.15449189 
   60800    297.99202    11.110315    132073.64    -42110.83    3637.4149   -45748.245   0.15776898 
   60900    295.42062    16.818805    132064.51   -42163.146    3606.0273   -45769.173   0.15062581 
   61000    295.71227   -27.960393    132047.14   -42256.918    3609.5874   -45866.506    0.1537036 
   61100    295.52471   -6.7215505    132033.26   -42198.047    3607.2979   -45805.345   0.15091688 
   61200    289.84776   -10.519716    132009.37   -42207.771    3538.0026   -45745.774   0.15561448 
   61300    292.01433    5.8715266    132032.39   -42233.322    3564.4487   -45797.771   0.15239433 
   61400    299.51131    24.433141    132035.95   -42257.246      3655.96   -45913.206   0.14772933 
   61500    292.40276   -3.5828145    132018.83   -42242.918    3569.1901   -45812.108   0.15051974 
   61600    290.97986   -13.337333    132025.66   -42306.456    3551.8216   -45858.277   0.14835397 
   61700    288.92318    2.6940572    132006.64   -42311.621    3526.7168   -45838.338   0.15024552 
   61800    286.90995   -27.109164    132033.99   -42314.331    3502.1426   -45816.473   0.15347894 
   61900    294.99653    55.063243    132032.57    -42226.59    3600.8507    -45827.44   0.15310329 
   62000    294.15948    4.8533653    132030.15   -42246.363    3590.6334   -45836.996   0.15093874 
   62100    291.27309    18.296938    132066.69   -42274.358    3555.4008   -45829.758   0.14350362 
   62200    290.10321   -11.640372    132050.63       -42185    3541.1208   -45726.121    0.1531103 
   62300    290.23609   -21.646221    132047.29   -42296.619    3542.7428   -45839.362   0.14878743 
   62400    293.53078    4.8375596    132056.25   -42289.598    3582.9592   -45872.558    0.1456524 
   62500    293.11056    29.403356    132049.79    -42288.29    3577.8298    -45866.12   0.14863108 
   62600    298.35745    14.826118    132063.72   -42320.027    3641.8755   -45961.903   0.13667795 
   62700    294.27867   -30.374803    132008.37   -42305.724    3592.0882   -45897.812   0.15205043 
   62800    288.26664    28.027116     132031.3   -42313.704    3518.7029   -45832.407   0.14298066 
   62900    289.12483    18.584024    132040.01   -42259.534    3529.1782   -45788.712   0.15176526 
   63000    289.87923   -25.436319    132048.91   -42304.641    3538.3868   -45843.028   0.14774158 
   63100    287.22167   -1.1007262     132039.6    -42362.74    3505.9475   -45868.688   0.14431649 
   63200    289.82184   -9.6744855    132037.82   -42232.531    3537.6863   -45770.217   0.15346172 
   63300    285.34566    32.840071    132019.93   -42319.645    3483.0481   -45802.693   0.14467756 
   63400    287.49419    11.051314    131999.28   -42389.938    3509.2741   -45899.212   0.14548575 
   63500     285.7705    25.460982    132017.56   -42345.314     3488.234   -45833.548   0.14584506 
   63600     286.2635   -11.296024    132010.63   -42412.276    3494.2517   -45906.528   0.13971176 
   63700    285.80454    -15.74576    132011.42   -42426.406    3488.6494   -45915.055    0.1439426 
   63800     288.8534    23.150574    131986.97   -42448.228     3525.865   -45974.093   0.13968292 
   63900     291.0601    22.740285    131981.11     -42343.4     3552.801   -45896.201   0.14854444 
   64000     290.0521    22.637236    132021.21   -42265.232    3540.4969   -45805.729   0.14884388 
   64100    288.06066   -18.309473    132037.56     -42239.5    3516.1886   -45755.688   0.14742466 
   64200    297.46577    2.5707128    132045.29   -42205.209    3630.9913     -45836.2    0.1494943 
   64300    299.00269    6.3429972       132054   -42219.369    3649.7516   -45869.121   0.14496266 
   64400    290.55482   -10.460311    132027.16   -42296.998    3546.6334   -45843.631   0.15142589 
   64500    289.18424    27.288714    132026.55    -42281.48    3529.9034   -45811.383   0.14404966 
   64600    294.00429   -6.1000754    132018.41   -42342.224     3588.739   -45930.963   0.14612748 
   64700    284.62137   -9.0587192    132012.06   -42371.301    3474.2072   -45845.509   0.14460153 
   64800    293.95102    13.912203    132025.22   -42302.212    3588.0888     -45890.3   0.14652023 
   64900    296.97994    8.7368856    132031.63   -42234.102     3625.061   -45859.163   0.14752451 
   65000    290.21287   -22.733297    132052.96   -42208.913    3542.4593   -45751.373   0.14941332 
   65100    292.94633   -29.219487    132047.17   -42259.676    3575.8251   -45835.501   0.14809198 
   65200    291.82555    8.4671999    132037.68   -42283.344    3562.1445   -45845.488   0.14485825 
   65300     298.9668     75.94305    132040.15   -42191.695    3649.3134   -45841.008   0.14413333 
   65400    296.36796   -7.4912247    132012.42   -42241.766     3617.591   -45859.357   0.15122878 
   65500     295.6774    25.820969    132026.97    -42171.23    3609.1617   -45780.392   0.14903932 
   65600    289.19487   -8.0018959    132041.23   -42171.853    3530.0332   -45701.886   0.15642485 
   65700    295.95505   -7.1530812    132023.17   -42170.943    3612.5508   -45783.494   0.15077225 
   65800    292.76152    -23.63463    132018.81   -42219.301    3573.5693    -45792.87   0.15246802 
   65900    289.93567    22.919652    132036.56   -42239.406    3539.0757   -45778.482   0.15231577 
   66000    295.44432    32.037539    132012.76   -42228.025    3606.3166   -45834.342   0.14654926 
   66100    292.13936  -0.10523401    132006.93   -42266.518    3565.9749   -45832.493    0.1527017 
   66200    285.49744    18.654204    132002.08   -42328.576    3484.9009   -45813.476   0.14167704 
   66300    285.40511   -10.800101    131988.52    -42321.71    3483.7738   -45805.484   0.15276471 
   66400    292.69212    11.598346    132022.54   -42303.024    3572.7221   -45875.746    0.1437473 
   66500    295.20692   -4.0285704    132029.09   -42273.046    3603.4189   -45876.465    0.1460833 
   66600    292.69818    22.170725    132037.93   -42320.127    3572.7961   -45892.923   0.14402797 
   66700    293.53686   -2.6579729    132027.02   -42313.051    3583.0333   -45896.084   0.14599772 
   66800    283.21087   -6.1165886     132019.5   -42352.552      3456.99   -45809.542   0.14896501 
   66900    280.03639   -13.306074    132035.77   -42328.855     3418.241   -45747.096   0.14900134 
   67000    286.90846    -7.857298    132002.34   -42441.584    3502.1244   -45943.708   0.13858987 
   67100    291.08561    -18.29564    132028.16   -42266.648    3553.1123   -45819.761    0.1499965 
   67200    291.10776   -10.252119    132034.74   -42324.958    3553.3827   -45878.341   0.14230198 
   67300    293.76331   -11.740647    132022.97   -42318.205    3585.7974   -45904.002   0.14674913 
   67400    293.42989   -6.8501132    132052.31   -42277.703    3581.7277   -45859.431   0.14244375 
   67500    291.27748   -13.507195    132037.35   -42259.807    3555.4544   -45815.262   0.14481676 
   67600    296.47829   -2.8396623    132051.45   -42145.406    3618.9377   -45764.344    0.1494309 
   67700    297.24396    28.377168    132054.47   -42197.488    3628.2837   -45825.772   0.14271552 
   67800    293.50747    17.959488    132047.92   -42234.009    3582.6746   -45816.683   0.14811511 
   67900    288.51842    12.880003    132039.22   -42252.251    3521.7762   -45774.027   0.14418581 
   68000    292.05716     17.21663    132034.28   -42303.838    3564.9715   -45868.809   0.14706747 
   68100    290.87574    8.0885323     132017.2   -42305.308    3550.5506   -45855.859   0.14246238 
   68200    289.08237    5.9278068    132032.45   -42317.241      3528.66   -45845.901   0.14464952 
   68300    294.64064   0.75955886    132040.32   -42238.793    3596.5066     -45835.3   0.14632064 
   68400    292.04173   -6.2364282    132064.79   -42172.786    3564.7832   -45737.569   0.15309007 
   68500    295.04168   -5.7921282    132070.72   -42201.377    3601.4018   -45802.779   0.14653327 
   68600    294.14813   -12.019519     132064.5   -42228.124    3590.4947   -45818.619   0.14664162 
   68700    295.50675     17.03557    132042.64   -42267.946    3607.0787   -45875.025   0.14222735 
   68800    287.18518   -1.2289213    132056.33   -42261.339    3505.5021   -45766.841   0.15071059 
   68900    290.53313    35.940901    132060.92   -42256.302    3546.3686   -45802.671   0.14323666 
   69000    295.94936    18.292213    132045.76       -42244    3612.4813   -45856.481   0.14726799 
   69100     287.1637   -25.577874    132027.57   -42359.993    3505.2399   -45865.232   0.14238738 
   69200    294.16031    55.752947    132037.14   -42331.604    3590.6434   -45922.247   0.14122555 
   69300    290.31984   -14.753852    132026.26   -42346.533    3543.7651   -45890.298   0.14588414 
   69400    288.49021     5.501066    132032.45   -42408.886    3521.4319   -45930.318   0.14114893 
   69500    288.61576    9.9110488     132023.4   -42342.244    3522.9643   -45865.209    0.1488844 
   69600    296.59372    10.663481    132099.79   -42151.983    3620.3467   -45772.329   0.14375551 
   69700    294.82204   -8.2883279    132063.44   -42227.458    3598.7208   -45826.179   0.15077496 
   69800    288.29802   -50.370241    132058.07    -42286.17    3519.0859   -45805.256   0.14710001 
   69900    285.77204    -21.66862    132030.54   -42347.025    3488.2527   -45835.278   0.14715166 
   70000    289.24832    5.2162055    132051.53   -42270.873    3530.6856   -45801.559   0.14914894 
   70100    285.61151    35.634693    132039.87   -42373.627    3486.2933    -45859.92   0.13810428 
   70200    290.10715   -20.352478    132043.29   -42249.172    3541.1688   -45790.341   0.14812879 
   70300    295.31496    2.0304391    132061.13   -42300.881    3604.7376   -45905.619   0.14296348 
   70400    296.69106   -29.407964    132089.21   -42167.512    3621.5349   -45789.047   0.14483317 
   70500    289.86097   -27.421479    132086.78   -42274.756     3538.164    -45812.92   0.14986334 
   70600    293.79525   -31.995358     132071.1   -42272.218    3586.1874   -45858.406   0.14001386 
   70700     292.3791    9.5609851    132062.25   -42279.265    3568.9012   -45848.167   0.14763261 
   70800    289.86635    32.145959    132067.01   -42301.506    3538.2296   -45839.735   0.13922752 
   70900    290.64559   -76.664616    132070.73   -42338.126    3547.7413   -45885.867   0.14747038 
   71000    293.53128   -55.047742    132059.63   -42298.778    3582.9652   -45881.743   0.14491402 
   71100    291.81894    27.876667    132058.81   -42358.061    3562.0637   -45920.125   0.14001846 
   71200    289.13119   0.28915834    132067.99    -42288.56     3529.256   -45817.816   0.14763313 
   71300    286.26479   -50.578903    132051.93   -42390.728    3494.2674   -45884.995    0.1437665 
   71400    289.76861     15.87111    132047.18   -42325.156    3537.0366   -45862.192   0.14249492 
   71500    292.49653    27.181159    132059.65   -42280.135    3570.3347   -45850.469   0.14103058 
   71600    292.41185    29.288178    132070.96    -42268.08     3569.301   -45837.381   0.14444814 
   71700    291.16838  -0.43079459    132067.46   -42299.844    3554.1227   -45853.967   0.14422557 
   71800    283.49236    14.843556    132031.65   -42389.821    3460.4261   -45850.247   0.14240895 
   71900    287.81665   -34.117533    132005.97   -42403.316    3513.2101   -45916.526   0.14404237 
   72000    289.42764   -14.829166    132042.09   -42390.096    3532.8745   -45922.971   0.14395517 
   72100    291.34082   -24.908275    132050.43   -42253.927    3556.2276   -45810.155    0.1482701 
   72200    294.61296   0.66081466     132084.8   -42130.152    3596.1687   -45726.321   0.15260113 
   72300     297.5872    22.165082    132133.65   -42061.797    3632.4735   -45694.271   0.14721247 
   72400    294.62563   -6.5025333    132099.57   -42221.928    3596.3234   -45818.251   0.14907636 
   72500    292.09537   -30.390587    132089.16   -42230.209    3565.4379   -45795.647   0.14412715 
   72600    296.21028    19.209264    132096.05   -42162.878    3615.6663   -45778.544   0.15167798 
   72700    287.41389   -12.259324    132086.76   -42273.361    3508.2938   -45781.655    0.1418484 
   72800    290.23454    -13.50488    132071.38   -42253.483    3542.7239   -45796.207   0.14612679 
   72900    289.43807    15.648085    132082.12   -42238.694    3533.0018   -45771.696   0.14406112 
   73000    295.54506    59.538949    132085.96   -42281.031    3607.5463   -45888.578   0.14022994 
   73100    291.23736    44.205519    132079.32   -42255.861    3554.9647   -45810.826   0.14406427 
   73200    294.35639    41.150819    132115.67   -42172.354    3593.0369   -45765.391   0.14199492 
   73300    300.11514    10.356093    132128.33   -42126.074    3663.3306   -45789.404   0.14515087 
   73400    296.14064   -15.742617    132129.84   -42137.172    3614.8162   -45751.988   0.14685802 
   73500    298.30511   -4.0896254    132115.66   -42115.356    3641.2366   -45756.593   0.14921496 
   73600    295.90035   -2.4482618    132096.99   -42149.353    3611.8831   -45761.236   0.14597182 
   73700    295.23954    19.049179    132094.72   -42263.309     3603.817   -45867.126   0.14464917 
   73800    286.71875    2.7202101    132074.45   -42347.382    3499.8087   -45847.191   0.13876184 
   73900    292.16071    34.569833     132083.5   -42311.722    3566.2355   -45877.958    0.1421049 
   74000    292.16874    40.749567    132054.49   -42288.946    3566.3335   -45855.279   0.14003158 
   74100    296.80541   0.88939432    132098.72   -42133.653    3622.9306   -45756.584   0.14838615 
   74200     292.3928   -32.965824    132130.06   -42240.279    3569.0685   -45809.347   0.14336115 
   74300    293.45504   -16.254844    132100.03   -42299.549    3582.0346   -45881.584   0.14201169 
   74400    290.24164    13.552384    132095.24   -42266.838    3542.8105   -45809.649   0.13885135 
   74500    289.90361    -5.459355    132069.32   -42328.418    3538.6844   -45867.103   0.14138564 
   74600    292.02362   -8.9939227    132073.11   -42284.388    3564.5621    -45848.95   0.13893291 
   74700    290.88204   -55.707335    132048.61   -42219.677    3550.6275   -45770.305   0.15155001 
   74800    289.62046   -25.390637    132049.02   -42286.895    3535.2282   -45822.123   0.14432223 
   74900    289.72818   -45.053383    132041.42   -42249.057    3536.5431     -45785.6   0.14687542 
   75000    292.53223    32.910429    132025.03   -42297.573    3570.7705   -45868.343    0.1421554 
   75100    292.35403    33.622546    132062.77   -42201.609    3568.5953   -45770.204   0.14393902 
   75200    292.61494   -15.759564    132078.84   -42210.916      3571.78   -45782.696   0.14860123 
   75300    287.17797    2.8004404    132086.61    -42286.17    3505.4141   -45791.584   0.13992316 
   75400    289.05873    4.7272851    132073.09   -42307.632    3528.3714   -45836.004   0.14262953 
   75500    289.26075   -11.965502    132062.64   -42327.457    3530.8374   -45858.294   0.14063277 
   75600    288.63477    37.516779    132079.05   -42249.182    3523.1964   -45772.379   0.14080012 
   75700    297.92522    54.223016    132102.86   -42167.889    3636.5995   -45804.488   0.13948951 
   75800    294.44143    11.539804    132119.86   -42160.734    3594.0749   -45754.809   0.14542417 
   75900    293.91032   -19.832547     132117.6   -42217.534     3587.592   -45805.126   0.13931837 
   76000    291.15405   -3.8608033    132112.34   -42206.731    3553.9478   -45760.678   0.14830161 
   76100     286.9518    -11.36674    132107.98    -42300.76    3502.6534   -45803.413   0.13704681 
   76200    284.94403   -9.0343864    132079.71    -42355.96    3478.1456   -45834.106   0.14713693 
   76300    289.98895    13.301966    132093.66   -42310.765    3539.7261   -45850.491   0.13601263 
   76400    295.41995    18.080627    132087.23   -42327.358    3606.0191   -45933.377   0.14018361 
   76500     294.0662   -10.283027    132089.53   -42278.907    3589.4947   -45868.401   0.14055002 
   76600    293.86696   0.13828164    132107.99   -42268.688    3587.0627   -45855.751   0.14039535 
   76700     291.3429    1.6765903    132084.33   -42228.182     3556.253   -45784.435   0.14708186 
[...]
   81900    287.53246    3.8852874    132013.67   -42328.018    3509.7411    -45837.76   0.14794261 
   82000    295.73912    49.288183    132045.19   -42263.599    3609.9151   -45873.514   0.14115394 
   82100    292.21846    -33.33496    132066.64   -42213.436    3566.9404   -45780.376   0.15136738 
   82200    299.63726    47.011656    132067.65   -42168.274    3657.4974   -45825.771   0.14391089 
   82300    295.97113    4.1810818    132077.39   -42276.826    3612.7471   -45889.573   0.14491019 
   82400    292.75469   -34.933425    132065.55   -42189.502    3573.4859   -45762.988   0.14821798 
   82500     297.2648    2.0706881    132090.08     -42084.5    3628.5382   -45713.038   0.15348162 
   82600    292.42244    9.0613361    132088.14   -42136.329    3569.4303   -45705.759   0.15107576 
   82700    289.65202   -37.631721    132033.21   -42257.028    3535.6134   -45792.642   0.14810813 
   82800    292.96164   0.90515734    132047.43   -42253.471     3576.012   -45829.483    0.1473081 
   82900    291.96303    20.322167    132058.41   -42214.733    3563.8225   -45778.555   0.14458578 
   83000    295.42594     39.15494    132075.85   -42177.767    3606.0923    -45783.86   0.14967111 
   83100    295.75596   -2.9820718    132074.51   -42154.618    3610.1206   -45764.739   0.14510542 
   83200     298.0594   -8.0534979    132069.85   -42213.163    3638.2374   -45851.401   0.14749277 
   83300    294.39347    35.244858    132061.65   -42241.325    3593.4895   -45834.815   0.14034022 
   83400    300.07017    16.428859    132081.86    -42246.86    3662.7817   -45909.641   0.14504428 
   83500    286.26765    -36.70712    132055.28   -42376.349    3494.3023   -45870.651   0.14019843 
   83600    290.25623   -2.3447682    132027.63   -42345.911    3542.9886   -45888.899   0.14775464 
   83700    289.19282   -39.632329    132049.34   -42349.538    3530.0082   -45879.546   0.14446777 
   83800    294.64396   -2.4611125    132052.44   -42335.512    3596.5471   -45932.059   0.14539867 
   83900    295.33795    11.766035    132043.37   -42304.642    3605.0182   -45909.661   0.14321427 
   84000    292.31867   -20.771674     132037.3    -42310.81    3568.1637   -45878.974   0.14588352 
   84100    289.83082    58.495908     132040.2   -42267.717    3537.7959   -45805.513   0.14302054 
   84200    291.92176    18.505724    132065.07   -42251.188    3563.3187   -45814.507    0.1448915 
   84300    291.84679    38.358835    132080.88     -42313.4    3562.4037   -45875.804    0.1427746 
   84400    292.78462    5.7297021    132061.08   -42300.232    3573.8512   -45874.084   0.14084952 
   84500    287.44612   0.75618043    132042.38    -42313.06    3508.6872   -45821.748   0.14527968 
   84600      289.439   -50.676222    132078.98   -42245.233    3533.0131   -45778.246    0.1503934 
   84700    291.12059    5.1493555     132076.6   -42264.638    3553.5394   -45818.178   0.14396499 
   84800     292.4543    22.203826    132072.02   -42258.102    3569.8191   -45827.922    0.1448329 
   84900     293.8108    30.859037    132087.11   -42181.866    3586.3771   -45768.243   0.14738902 
   85000    286.56735   -43.371768    132072.83   -42257.689    3497.9606    -45755.65   0.14655533 
   85100    285.65943   -52.836214    132069.85   -42288.984    3486.8782   -45775.862   0.15271601 
   85200    294.49977   -1.4493771    132088.86   -42265.524     3594.787   -45860.311   0.13860921 
   85300    286.87337    1.2694703    132041.42   -42264.116    3501.6961   -45765.812   0.15157194 
   85400    292.56228    30.290968    132046.24   -42325.353    3571.1372    -45896.49   0.13724894 
   85500    290.44113    2.3965426    132065.86    -42279.57    3545.2456   -45824.816   0.14532196 
   85600    291.15047    27.190561    132067.88   -42314.035    3553.9041   -45867.939   0.14216669 
   85700    288.45299    7.0039736    132082.04   -42305.968    3520.9775   -45826.946    0.1418033 
   85800    292.22135    21.089507    132067.22   -42264.608    3566.9758   -45831.583   0.14698749 
   85900    291.08538   -14.687135    132074.29    -42222.43    3553.1096    -45775.54   0.15103173 
   86000    293.82436    30.596357    132076.38   -42276.264    3586.5427   -45862.807   0.14342955 
   86100    295.37437    46.214676    132074.34    -42240.09    3605.4627   -45845.553   0.14910478 
   86200    288.57335   -21.022421    132101.18   -42253.656    3522.4467   -45776.103   0.14467435 
   86300     290.3352   -12.975681    132098.61   -42283.772    3543.9526   -45827.724   0.15040275 
   86400    288.95648   -31.199343    132075.29   -42316.819    3527.1234   -45843.942   0.14467545 
   86500    286.75457   -9.6124569    132075.94   -42366.939    3500.2459   -45867.185   0.14499461 
   86600    293.22444    8.1966247    132074.18   -42236.627    3579.2198   -45815.847     0.147187 
   86700    293.25804    -32.76836    132080.64   -42251.108      3579.63   -45830.738   0.14383194 
   86800    289.25292    29.320419    132045.48   -42308.382    3530.7418   -45839.124   0.14731434 
   86900    291.20099     3.199373    132060.84   -42272.946    3554.5208   -45827.467   0.14320795 
   87000    293.90926    64.877388    132056.02   -42234.178     3587.579   -45821.757   0.14856393 
   87100    295.64901    8.8339955    132083.45   -42277.819    3608.8151   -45886.634   0.14268567 
   87200    294.55936    12.772514    132089.95   -42233.149    3595.5144   -45828.663   0.14902098 
   87300    294.09956   -26.407003    132102.14   -42208.016    3589.9019   -45797.918    0.1482898 
   87400    292.18003   -33.499331    132078.82   -42259.253    3566.4714   -45825.725    0.1511994 
   87500    289.38866   -2.9212959    132083.67   -42220.394    3532.3987   -45752.793   0.14842995 
   87600      292.282   -19.754812    132099.68   -42255.134     3567.716    -45822.85   0.14639398 
   87700    291.13744    8.0548664    132087.66   -42242.126    3553.7451   -45795.871   0.14278747 
   87800    288.19856   -3.2629408     132066.9   -42276.556    3517.8718   -45794.428    0.1505312 
   87900    291.32178   -13.055308     132079.3   -42327.426    3555.9952   -45883.422   0.14206554 
   88000    294.06466    -1.314291    132072.07   -42284.809     3589.476   -45874.285   0.14959346 
   88100    293.66589   -15.488616     132068.1    -42255.32    3584.6084   -45839.929    0.1419816 
   88200    287.82601   -59.336781    132050.44   -42346.255    3513.3243    -45859.58   0.15067944 
   88300    285.96821   -27.200785    132051.69   -42311.953    3490.6472     -45802.6   0.14583171 
   88400    293.94602   -3.5022079    132076.87   -42258.109    3588.0278   -45846.137   0.14538431 
   88500    298.13545   -12.065198    132058.65   -42306.021    3639.1656   -45945.187   0.14749132 
   88600    292.45369   -4.7774122    132058.73   -42284.476    3569.8117   -45854.288   0.14283846 
   88700    293.54952   -22.671794    132050.26   -42256.542    3583.1879    -45839.73   0.15412656 
   88800    285.81125   -15.971809    132042.18   -42296.504    3488.7313   -45785.235   0.14571213 
   88900    290.46166   -6.0813271    132018.09    -42297.91    3545.4962   -45843.406      0.14757 
   89000    294.14078   -48.951905    132039.67   -42243.628    3590.4051   -45834.033   0.14862494 
   89100    295.15545    17.405248     132048.2   -42287.666    3602.7905   -45890.456   0.14272832 
   89200    294.28045    8.2170181    132045.35   -42232.826    3592.1099   -45824.936   0.14500758 
   89300    289.96114    43.344143    132014.25   -42348.562    3539.3866   -45887.949   0.14271545 
   89400     290.5974    7.9200928    132039.86   -42236.184    3547.1531   -45783.337   0.14527952 
   89500    285.84683   -53.487733    132032.66   -42316.916    3489.1656   -45806.082   0.15584475 
   89600    285.42121   -13.330328    132017.58   -42408.904    3483.9704   -45892.875   0.14041062 
   89700    291.17828    2.0842929    132031.59   -42304.251    3554.2435   -45858.495   0.15216927 
   89800    290.93505   -10.777168    132045.55    -42253.86    3551.2746   -45805.134   0.14543187 
   89900    293.59358    -44.10808    132043.79   -42235.142    3583.7257   -45818.868   0.15184383 
   90000    292.35232    20.387731    132042.44   -42271.847    3568.5744   -45840.421     0.143896 
   90100    299.64877     38.40285    132043.46   -42217.913    3657.6379   -45875.551   0.14398625 
   90200    294.93924    20.074201    132052.84   -42278.171    3600.1514   -45878.322   0.14386442 
   90300    293.51756    2.8562684     132043.6   -42299.105    3582.7978   -45881.903   0.14217815 
   90400    288.78985    10.002471    132066.09   -42264.232    3525.0894   -45789.321   0.14758088 
   90500    293.66794   -37.656437    132066.79   -42269.038    3584.6333   -45853.671   0.14743105 
   90600    294.11239    17.920027    132060.67   -42240.148    3590.0586   -45830.207   0.14807773 
   90700    294.67808    48.083937    132080.89   -42284.726    3596.9635   -45881.689   0.14320759 
   90800    289.73518    11.073638    132058.46   -42320.946    3536.6284   -45857.574   0.14579664 
   90900    291.13917    28.450328    132057.74   -42253.012    3553.7661   -45806.778   0.14627193 
   91000    291.68157   -10.166765    132054.02   -42349.425    3560.3869   -45909.812   0.14607687 
   91100    282.97074   -45.714631    132046.27   -42408.177    3454.0589   -45862.236   0.14204504 
   91200    286.32981    1.3950792    132035.95   -42401.444     3495.061   -45896.506   0.14612378 
   91300    292.40454   -3.2348551    132045.03   -42345.835    3569.2118   -45915.047   0.13811108 
   91400    291.22188    16.992024    132056.24    -42283.99    3554.7757   -45838.766   0.15036312 
   91500    296.81925    36.168595    132074.99   -42130.229    3623.0996   -45753.329   0.14293824 
   91600    293.71393   -8.4949543     132063.8   -42172.913    3585.1947   -45758.107   0.15465711 
   91700    295.44024   -20.711813    132033.77    -42272.62    3606.2669   -45878.887   0.14489942 
   91800    293.19718     17.04989     132032.5   -42161.286    3578.8871   -45740.173   0.15294875 
   91900    293.85915    25.898172    132035.85   -42213.445    3586.9674   -45800.412   0.15152605 
   92000    288.63479   -40.826698     132042.1   -42230.596    3523.1967   -45753.793   0.15215165 
   92100    288.95357   -15.320987    132017.47   -42277.189    3527.0879   -45804.277   0.15212043 
   92200    287.97852     -9.97815    132027.55   -42301.581    3515.1859   -45816.767   0.14771633 
   92300    293.95136   -11.173075    132049.41    -42182.21    3588.0929   -45770.303   0.14818982 
   92400    292.73333   -9.3992403    132027.18   -42235.141    3573.2251   -45808.366   0.14965125 
   92500    296.13064     38.45835    132023.83   -42207.873    3614.6941   -45822.567    0.1438299 
   92600     292.3389   -5.7206731    132043.82   -42151.106    3568.4106   -45719.517   0.15042483 
   92700    289.20437    16.717896     132041.5   -42235.144    3530.1492   -45765.293   0.14754324 
   92800    294.22859   -14.341505    132025.43    -42228.75    3591.4769   -45820.227   0.14646868 
   92900    293.67417   -15.395544    132019.83   -42258.931    3584.7094   -45843.641   0.15466333 
   93000    292.31045   0.41676911    132007.57   -42272.447    3568.0633    -45840.51    0.1417619 
   93100    289.80464   -31.791621    131985.15   -42262.889    3537.4764   -45800.366   0.15724108 
   93200    296.08776   -6.5831464    132007.68   -42253.442    3614.1708   -45867.613   0.14394144 
   93300    291.10239    47.167995    132000.86   -42311.886    3553.3172   -45865.203   0.14988625 
   93400    291.87863    19.913009    131997.42   -42360.124    3562.7924   -45922.916   0.14344861 
   93500    289.37939    38.881584    132013.32   -42324.134    3532.2855    -45856.42   0.14354511 
   93600    292.13499   -6.8641315    132019.71   -42298.681    3565.9216   -45864.602   0.14565667 
   93700    289.90411    22.674082    132036.73   -42283.861    3538.6905   -45822.551   0.14748612 
   93800    284.87517    -7.333027    132027.49   -42327.016    3477.3052   -45804.321   0.14695386 
   93900    288.59508   -35.554639    132007.69   -42355.723    3522.7119   -45878.434   0.14799096 
   94000    287.48364   -7.7445161    132000.71   -42371.407    3509.1453   -45880.552   0.14365698 
   94100    293.43233    13.866965     132033.2   -42260.719    3581.7574   -45842.476   0.14795892 
   94200    293.51952    12.955622    132047.18   -42215.057    3582.8216   -45797.879   0.14618545 
   94300    289.12733    10.546075    132039.63   -42242.606    3529.2088   -45771.815    0.1475485 
   94400    290.02399     14.01814    132040.79   -42273.872    3540.1538   -45814.025   0.14966339 
   94500    300.37664    11.848056    132056.57   -42183.081    3666.5226   -45849.604   0.14453019 
   94600    286.86986    5.1486725    132036.36   -42293.776    3501.6532    -45795.43   0.14908466 
   94700    291.41293    -2.900445    132056.12   -42301.654    3557.1077   -45858.761   0.14273303 
   94800     289.9936    9.8305312    132046.46   -42286.094    3539.7829   -45825.877    0.1501296 
   94900    285.77325   -28.290655    132032.24   -42344.778    3488.2675   -45833.045   0.14522588 
   95000    286.60939    30.260505    132030.46   -42306.381    3498.4738   -45804.855   0.14980594 
   95100    290.38827    3.6214218    132055.22   -42299.217    3544.6003   -45843.817   0.14017082 
   95200    294.30294  -0.22894876    132035.04   -42269.576    3592.3845    -45861.96   0.14935503 
   95300    291.55172    7.7105788     132032.2   -42284.667    3558.8019   -45843.468   0.14436845 
   95400    294.61923    5.8563575    132038.25   -42253.109    3596.2453   -45849.354   0.15130616 
   95500    296.61318    13.354322    132058.84   -42212.516    3620.5842     -45833.1   0.14400774 
   95600     287.4648   -11.682098    132060.81   -42264.905    3508.9153    -45773.82   0.14893067 
   95700     293.8397   -27.667961    132065.27    -42241.68      3586.73    -45828.41   0.14458733 
   95800    295.71577    12.320918    132042.26   -42255.163      3609.63   -45864.793   0.14761087 
   95900      294.714    1.1972625     132025.9   -42259.426     3597.402   -45856.828   0.14688377 
   96000     288.1939   -16.087451    132050.61    -42230.27    3517.8149   -45748.085    0.1507453 
   96100    292.87081    16.364214    132054.01   -42139.961    3574.9033   -45714.864   0.15279973 
   96200    292.84072    -12.30647    132074.05   -42181.321    3574.5359   -45755.857   0.14698177 
   96300    293.75913    2.9260474    132065.12   -42209.216    3585.7465   -45794.963   0.14802514 
   96400      294.232    15.632306    132063.88    -42250.37    3591.5185   -45841.888   0.14472517 
   96500    292.59189   -28.240799    132075.24   -42230.891    3571.4986    -45802.39   0.15163411 
   96600    288.06241   -3.8098577    132089.32   -42278.718    3516.2099   -45794.928   0.14582302 
   96700    292.12844    40.733852    132080.02   -42257.408    3565.8416    -45823.25   0.14189598 
   96800    292.18193    12.839766    132077.46   -42276.621    3566.4945   -45843.115   0.14273405 
   96900    291.28565   -9.8020971    132072.48   -42321.238    3555.5541   -45876.792   0.14521625 
   97000    288.47314   -4.6098718    132061.65   -42331.313    3521.2235   -45852.537   0.13901988 
   97100    288.53148    -43.34062    132065.79   -42323.705    3521.9356   -45845.641   0.14936691 
   97200    286.55356   -24.389142    132048.11   -42311.974    3497.7922   -45809.766   0.14317193 
   97300    291.32131    -11.06815    132054.06   -42171.969    3555.9894   -45727.958   0.15694485 
   97400    297.60036    9.7908852    132065.09   -42221.601    3632.6342   -45854.235   0.14655368 
   97500    294.92289   -21.370102    132061.47   -42193.526    3599.9519   -45793.477   0.15139301 
   97600    295.51339   -22.652924    132073.52   -42184.128    3607.1597   -45791.288   0.14937716 
   97700    293.28738    16.502568    132090.53   -42170.462    3579.9881    -45750.45   0.14579102 
   97800     294.7055   -24.544387     132074.9   -42217.826    3597.2982   -45815.124   0.15075224 
   97900    297.30358    21.334309    132086.11   -42213.505    3629.0115   -45842.517     0.145133 
   98000    294.10196    14.725749    132066.82   -42254.436    3589.9313   -45844.367   0.14357998 
   98100    297.05665   -29.248813    132078.52   -42252.423    3625.9973    -45878.42   0.14686655 
   98200    288.36081   -59.784101    132027.42   -42273.552    3519.8523   -45793.404   0.14735736 
   98300     295.8525    8.8396709    132053.75   -42180.314     3611.299   -45791.613   0.15050768 
   98400    292.95482    27.048744    132048.54   -42220.233    3575.9288   -45796.161   0.14887884 
   98500     291.8249    26.043891    132055.82   -42236.147    3562.1365   -45798.283   0.14367926 
   98600    290.86628   -33.309763    132035.11   -42239.428    3550.4352   -45789.863   0.15538057 
   98700    292.38783    15.173826    132023.35   -42194.103    3569.0079   -45763.111   0.14439668 
   98800    293.05326   -28.036104    132053.05   -42179.233    3577.1303   -45756.363   0.15702106 
   98900    291.80559   -22.306055    132046.58   -42264.626    3561.9008   -45826.527   0.14491166 
   99000    288.99407    6.9077479    132022.09   -42247.724    3527.5821   -45775.306   0.15134567 
   99100    290.26711   -8.6792469    132036.87   -42313.726    3543.1214   -45856.848   0.14241828 
   99200    295.22048   -6.6185491    132031.17   -42290.795    3603.5843    -45894.38   0.14498459 
   99300    291.93169   -3.1797172    132024.78   -42268.589      3563.44   -45832.029   0.14875842 
   99400    288.42539   -17.210345    132036.17   -42305.269    3520.6406    -45825.91   0.14361113 
   99500    288.52358    12.440193    132029.43   -42255.122    3521.8392   -45776.961   0.14859921 
   99600    292.82331    22.332475    132032.42    -42233.77    3574.3235   -45808.093    0.1446148 
   99700    294.23929    19.109988    132039.92   -42290.112    3591.6075    -45881.72   0.14472758 
   99800    292.78647   -2.7080808    132031.75   -42267.359    3573.8738   -45841.233   0.15100994 
   99900    286.34661   -55.021743    132017.34   -42306.703    3495.2662    -45801.97   0.14966448 
  100000    286.59001   -14.665743    132027.88   -42267.388    3498.2372   -45765.626   0.15265172 
Loop time of 54.7039 on 6 procs for 100000 steps with 4096 atoms

Performance: 789.707 ns/day, 0.030 hours/ns, 1828.025 timesteps/s
97.7% CPU use with 6 MPI tasks x no OpenMP threads

MPI task timing breakdown:
Section |  min time  |  avg time  |  max time  |%varavg| %total
---------------------------------------------------------------
Pair    | 35.104     | 36.004     | 37.048     |  11.3 | 65.82
Neigh   | 5.7098     | 5.8157     | 5.9902     |   4.6 | 10.63
Comm    | 8.7766     | 9.948      | 10.915     |  23.8 | 18.19
Output  | 0.17057    | 0.17184    | 0.1775     |   0.6 |  0.31
Modify  | 2.0227     | 2.0395     | 2.0683     |   1.2 |  3.73
Other   |            | 0.7248     |            |       |  1.32

Nlocal:        682.667 ave         710 max         668 min
Histogram: 2 1 1 0 0 1 0 0 0 1
Nghost:        1369.67 ave        1385 max        1359 min
Histogram: 2 0 0 1 1 0 1 0 0 1
Neighs:        0.00000 ave           0 max           0 min
Histogram: 6 0 0 0 0 0 0 0 0 0
FullNghs:      19464.7 ave       20276 max       19044 min
Histogram: 2 1 1 0 0 1 0 0 0 1

Total # of neighbors = 116788
Ave neighs/atom = 28.512695
Neighbor list builds = 6187
Dangerous builds = 0

undump              1
unfix               2
unfix               3
unfix               4




################################################
#######         Run Simulation         #########
################################################

reset_timestep      0
log                 log.run_${NAME}
log                 log.run_ice_292K_1atm_ML
