
# Set production fixes - Nose/Hoover
#
fix                 2 all nph iso ${PRES} ${PRES} ${PCOUPL}
fix                 2 all nph iso 1 ${PRES} ${PCOUPL}
fix                 2 all nph iso 1 1 ${PCOUPL}
fix                 2 all nph iso 1 1 10000.0
fix                 3 all temp/csvr ${TEMP} ${TEMP} ${TCOUPL} 837492
fix                 3 all temp/csvr 292 ${TEMP} ${TCOUPL} 837492
fix                 3 all temp/csvr 292 292 ${TCOUPL} 837492
fix                 3 all temp/csvr 292 292 5000.0 837492

# Define Order parameter
#
compute             2 all orientorder/atom nnn NULL cutoff 3.5
thermo              200
thermo_style        custom step temp press vol etotal ke pe c_1[4]

# Run 1ns simulation
dump		    1 all custom 400 prod.${NAME}.dump id type x y z vx vy vz c_2[*]
dump		    1 all custom 400 prod.ice_292K_1atm_ML.dump id type x y z vx vy vz c_2[*]
run                 200000
Neighbor list info ...
  update every 1 steps, delay 0 steps, check yes
  max neighbors/atom: 2000, page size: 100000
  master list distance cutoff = 6.0032907
  ghost atom cutoff = 6.0032907
  binsize = 3.0016454, bins = 17 17 17
  2 neighbor lists, perpetual/occasional/extra = 1 1 0
  (1) pair sw, perpetual
      attributes: full, newton on
      pair build: full/bin/atomonly
      stencil: full/bin/3d
      bin: standard
  (2) compute orientorder/atom, occasional, copy from (1)
      attributes: full, newton on
      pair build: copy
      stencil: none
      bin: none
Per MPI rank memory allocation (min/avg/max) = 5.837 | 5.837 | 5.837 Mbytes
Step Temp Press Volume TotEng KinEng PotEng c_1[4] 
       0    286.59001    -14.21814    132027.88   -42267.398    3498.2372   -45765.635   0.15265172 
     200    292.01807   -5.7795614    132037.06   -42257.975    3564.4943   -45822.469   0.14417164 
     400    292.84235   -13.504177    132019.95   -42251.038    3574.5559   -45825.594    0.1420518 
     600     292.8657    68.429561    131968.49   -42287.248    3574.8409   -45862.089   0.14002035 
     800    293.37957    70.117054    131975.76    -42300.76    3581.1135   -45881.873   0.14592261 
    1000    290.64079   -21.683391    132024.54   -42312.045    3547.6827   -45859.728   0.14907488 
    1200    289.51314   -28.187705    131992.13   -42335.685    3533.9181   -45869.603   0.14604541 
    1400    290.46871    40.806599    131941.29   -42326.275    3545.5823   -45871.857   0.14569094 
    1600    288.99916   -13.451335    132014.79   -42329.155    3527.6443   -45856.799   0.14460286 
    1800    283.36252   -144.57613    132061.74   -42334.363    3458.8411   -45793.204   0.15422948 
    2000    290.65222    64.274165    131950.75   -42291.375    3547.8223   -45839.197   0.14850624 
    2200    292.33473    82.556819    131970.66   -42261.245    3568.3597   -45829.604   0.14928974 
    2400    296.73407   -128.36911    132151.64   -42279.629    3622.0598   -45901.689   0.14825014 
    2600    289.58058    6.3587659    132057.15   -42320.224    3534.7413   -45854.965   0.14321238 
    2800    293.31265     160.5648     131826.1   -42336.401    3580.2966   -45916.698   0.14422598 
    3000     287.3972   -10.099176    132024.04    -42349.13    3508.0901    -45857.22   0.14469919 
    3200    287.42938   -217.57263    132302.97   -42297.117     3508.483     -45805.6   0.14701473 
    3400    285.26287    10.219144    132012.08   -42334.454    3482.0376   -45816.492   0.14493626 
    3600    290.68114    298.46082    131703.71   -42361.504    3548.1753   -45909.679   0.13751923 
    3800    286.84701   -44.904902    132121.23   -42292.325    3501.3743   -45793.699   0.14195907 
    4000    296.49551   -310.43549     132458.1   -42285.981    3619.1478   -45905.129   0.13832135 
    4200    287.36225    171.27342    131899.16   -42301.016    3507.6635   -45808.679   0.14077421 
    4400    291.50806    394.62581    131641.97   -42281.178    3558.2689   -45839.447   0.14198407 
    4600    293.55827    -201.1808    132309.21    -42269.65    3583.2947   -45852.945   0.14404825 
    4800    292.32946   -304.17116    132458.13   -42262.119    3568.2954   -45830.415    0.1467382 
    5000    293.66877    262.99259    131770.61   -42255.598    3584.6436   -45840.242   0.14639233 
    5200    289.64155    277.48523    131745.02   -42255.069    3535.4855   -45790.555   0.14570798 
    5400    287.84733   -296.63525    132451.26   -42217.445    3513.5846    -45731.03   0.15119812 
    5600    289.18533   -227.68911    132370.03   -42200.431    3529.9168   -45730.348   0.15165997 
    5800    294.34813     330.2468    131688.53   -42190.837    3592.9361   -45783.773   0.15787004 
    6000    292.26997    142.38016     131923.2   -42177.877    3567.5692   -45745.446   0.15432111 
    6200    295.41106   -314.50492    132516.44    -42171.06    3605.9107   -45776.971   0.15289929 
    6400    299.89435   -60.381206     132194.6   -42141.096    3660.6355   -45801.731   0.14696552 
    6600    296.32297     318.0603    131740.58   -42179.304    3617.0418   -45796.345   0.14653404 
    6800    293.81774   -45.072975    132127.81   -42214.344    3586.4619   -45800.806   0.14735807 
    7000    291.26203   -324.75539    132421.55   -42223.797    3555.2658   -45779.063   0.14914296 
    7200    291.86653    47.720766    131993.85   -42171.293    3562.6446   -45733.938   0.15074311 
    7400    297.54695    239.73331    131817.68   -42154.858    3631.9822    -45786.84   0.14542082 
    7600    295.99274   -90.305901    132236.86   -42191.272    3613.0108   -45804.283   0.14163943 
    7800    295.24294   -183.19938    132298.84   -42215.993    3603.8585   -45819.852   0.14270905 
    8000    296.62331    188.87411    131881.75   -42177.499    3620.7079   -45798.207   0.14464662 
    8200    295.41339    123.52027     131906.5   -42213.329    3605.9391   -45819.268   0.15032794 
    8400    290.95316   -169.91907       132274   -42242.101    3551.4957   -45793.597   0.15177399 
    8600     293.2544   -81.003828    132157.33   -42197.216    3579.5855   -45776.801   0.14859731 
    8800    298.42314    186.17947    131842.29   -42138.954    3642.6774   -45781.631   0.15002044 
    9000    297.33524    34.878806     132018.6   -42118.516     3629.398   -45747.914   0.15168101 
    9200    295.03542   -194.74372    132312.51   -42103.385    3601.3254    -45704.71   0.15814827 
    9400    297.84424   -46.378839    132112.55   -42150.785     3635.611   -45786.396   0.15603658 
    9600    294.36956    208.84868    131864.95   -42138.733    3593.1976   -45731.931   0.15787797 
    9800    292.53056   -45.505302    132102.69   -42156.159    3570.7501   -45726.909   0.15625261 
   10000    298.43782   -128.84203    132293.49   -42150.561    3642.8566   -45793.417   0.14820973 
   10200    296.38624    35.938893    132026.73   -42149.895    3617.8141   -45767.709   0.15146549 
   10400    293.49725    175.30952    131883.85    -42135.85    3582.5498     -45718.4   0.15221365 
   10600    297.51456   -27.886548    132157.07   -42118.921    3631.5869   -45750.508    0.1524865 
   10800    292.96306   -153.90067    132256.38   -42148.407    3576.0293   -45724.437   0.15186936 
   11000    297.01104     120.9835    131968.83   -42187.395    3625.4407   -45812.836   0.14517029 
   11200    289.73166    148.15129    131907.63   -42202.688    3536.5855   -45739.274   0.14508712 
   11400    299.05988   -114.45059    132192.54   -42228.597    3650.4497   -45879.046   0.14043523 
   11600    294.49654   -85.462045    132176.05   -42199.565    3594.7476   -45794.313   0.14596056 
   11800    286.89689    115.96796    131884.18   -42268.135    3501.9831   -45770.118     0.148904 
   12000     289.1094    108.03599    131953.66   -42268.405    3528.9899   -45797.395    0.1483459 
   12200    292.89506   -152.56769    132238.98   -42247.833    3575.1993   -45823.032   0.14944142 
   12400    291.07114   -27.312673    132102.59   -42216.951    3552.9357   -45769.887    0.1506379 
   12600     292.4596    144.89931    131850.96   -42227.124    3569.8839   -45797.008   0.15291449 
   12800    290.13813    39.183426     132008.5   -42236.715    3541.5471   -45778.262   0.14928994 
   13000    295.36417   -160.82936    132240.37   -42217.951    3605.3383   -45823.289    0.1547564 
   13200     293.3397   -21.427145    132094.64   -42190.311    3580.6267   -45770.938   0.15489359 
   13400    293.41153    98.337252    131928.38   -42208.736    3581.5036    -45790.24   0.15560639 
   13600    289.74722   -47.649002    132117.07   -42205.805    3536.7754   -45742.581    0.1521946 
   13800    288.53772   -115.83998    132242.68   -42199.361    3522.0118   -45721.373   0.14915513 
   14000    295.51901    30.327903    132067.35   -42214.383    3607.2283   -45821.611   0.14482116 
   14200    293.09711    107.83572    131959.12   -42233.536    3577.6656   -45811.201   0.14861661 
   14400    289.22153    -68.16141    132130.78   -42263.245    3530.3586   -45793.604   0.14991183 
   14600    294.87449   -105.37958    132193.88   -42258.449    3599.3611    -45857.81   0.14139802 
   14800    294.70816    112.59218    132001.42    -42235.49    3597.3307   -45832.821   0.13726935 
   15000    289.13271    108.40006    131940.83   -42285.938    3529.2745   -45815.213   0.14057156 
   15200    285.53141   -51.420657    132121.28   -42341.823    3485.3155   -45827.139   0.14602144 
   15400     287.6411   -79.449814    132140.44   -42347.939    3511.0673   -45859.006   0.14552915 
   15600    287.66342    87.143182    131926.25   -42390.476    3511.3397   -45901.816    0.1422601 
   15800    291.70489    63.408327    131953.19   -42336.754    3560.6716   -45897.426   0.14131648 
   16000    289.49985   -117.81624     132199.1   -42323.887     3533.756   -45857.643   0.14228003 
   16200    290.51673    -109.3155    132128.52   -42274.938    3546.1684   -45821.106   0.14954956 
   16400    291.71755    146.75186    131875.05   -42272.667    3560.8261   -45833.493   0.15090709 
   16600     288.2766   -4.9723081     132030.2    -42289.88    3518.8245   -45808.704   0.15391465 
   16800    292.08197   -214.98717    132249.98   -42246.035    3565.2744    -45811.31   0.15399246 
   17000    287.59335   -5.4351302    131993.14   -42268.636    3510.4844    -45779.12   0.14964607 
   17200    293.47994    193.37096     131788.6   -42252.466    3582.3386   -45834.805   0.14849735 
   17400    292.08958   -88.682387    132117.52   -42296.124    3565.3672   -45861.491   0.14935701 
   17600    289.28789   -217.09321    132211.19   -42331.419    3531.1686   -45862.587   0.15107632 
   17800    284.47747     130.7385    131784.26   -42348.642    3472.4506   -45821.093   0.15233195 
   18000    292.14351    196.78508    131765.38   -42378.887    3566.0256   -45944.913   0.14017264 
   18200    289.53951   -217.84981    132271.78   -42408.967      3534.24   -45943.207   0.13647872 
   18400    287.00318   -161.18449    132186.61   -42423.872    3503.2805   -45927.153   0.13970967 
   18600    288.53368       277.67    131652.98   -42385.304    3521.9625   -45907.266   0.14305997 
   18800    291.05537    82.192645    131922.84   -42329.041    3552.7433   -45881.784   0.14433393 
   19000    285.07932   -398.22348    132487.22   -42343.373     3479.797    -45823.17   0.14134963 
   19200    285.95289    19.009584    132047.41   -42323.513    3490.4603   -45813.973   0.14021321 
   19400      289.019    442.40515    131551.78   -42319.684    3527.8865   -45847.571   0.14318895 
   19600    284.72429   -84.856977    132120.64   -42342.786    3475.4635    -45818.25   0.14383149 
   19800    298.57243   -399.43167    132482.91   -42335.389    3644.4996   -45979.889   0.14531185 
   20000    292.67485    247.82087    131813.17   -42332.828    3572.5113    -45905.34   0.14264449 
   20200    288.31565    321.97832    131626.72   -42358.853    3519.3011   -45878.154    0.1455943 
   20400    286.67695   -263.45175    132313.07   -42336.076    3499.2984   -45835.374   0.14762771 
   20600    292.39302    -243.8847    132377.83   -42338.743    3569.0712   -45907.815   0.14133379 
   20800    287.05504    247.12689     131713.1   -42325.274    3503.9135   -45829.188   0.15229913 
   21000    286.18192    206.19949    131791.82   -42328.796     3493.256   -45822.052   0.15087256 
   21200    289.34148   -298.01377    132395.43   -42316.807    3531.8228   -45848.629   0.14563779 
   21400    285.35768   -150.54584    132189.89   -42312.677    3483.1949   -45795.872   0.14805285 
   21600    295.18407    341.03631    131682.89   -42270.037    3603.1398   -45873.176   0.14218586 
   21800    293.45769    86.636006     131991.3   -42228.218    3582.0669   -45810.285   0.14728971 
   22000    294.32256   -269.97902    132392.91   -42234.821     3592.624   -45827.445   0.14731078 
   22200    300.77722    36.907193    132038.08   -42192.754    3671.4122   -45864.166   0.14142717 
   22400    297.53889    268.53627    131791.37   -42172.095    3631.8838   -45803.978   0.14150193 
   22600    292.72306   -87.164385    132188.86    -42177.41    3573.0998    -45750.51   0.14540095 
   22800    291.24348   -260.38138    132349.87   -42221.493    3555.0394   -45776.533   0.15042498 
   23000    290.08892      78.6289     131955.4   -42234.436    3540.9464   -45775.382   0.14857749 
   23200    294.03982    213.32117    131885.75   -42220.944    3589.1728   -45810.117   0.14424671 
   23400    292.17592   -64.057765    132235.78    -42234.03    3566.4211   -45800.451    0.1421689 
   23600    295.41033   -84.915329    132227.45   -42244.086    3605.9017   -45849.988    0.1443592 
   23800    291.28761    117.69435    131945.89   -42192.324    3555.5781   -45747.902   0.14963722 
   24000    290.41964    39.673062    132017.18   -42222.308    3544.9833   -45767.291    0.1483091 
   24200    290.35607   -133.83548    132235.87   -42211.585    3544.2073   -45755.793    0.1474682 
   24400    294.95336   -63.965503    132130.26   -42215.748    3600.3238   -45816.071   0.14756831 
   24600    287.28763    118.38318    131928.75   -42218.174    3506.7527   -45724.927   0.14926737 
   24800    293.71788  -0.82988746    132071.36   -42144.315    3585.2429   -45729.558   0.15056482 
   25000    294.64604   -141.35299    132253.52   -42154.675    3596.5725   -45751.248   0.14595977 
   25200    298.70139   -21.725397    132095.61   -42182.358    3646.0738   -45828.432   0.14595159 
   25400    297.23006    150.40042    131961.32   -42234.991    3628.1141   -45863.105   0.14107825 
   25600     291.9921   -6.4560715    132120.81   -42258.412    3564.1773    -45822.59    0.1404381 
   25800    291.98994   -90.164857    132192.36   -42229.942     3564.151   -45794.093   0.14152932 
   26000    295.74084    60.539262    132013.42   -42213.695     3609.936   -45823.631   0.14279966 
   26200     293.2541    89.976938     131975.5   -42244.301    3579.5819   -45823.883   0.14548483 
   26400    288.28448   -70.207068    132134.68   -42266.583    3518.9207   -45785.503    0.1454494 
   26600    298.74958   -44.792769    132141.88   -42273.713     3646.662   -45920.375   0.13519177 
   26800    291.52225    68.352473    131971.84   -42276.938    3558.4422    -45835.38    0.1420633 
   27000     289.4329      31.7127    132010.97   -42278.489    3532.9387   -45811.427   0.14637844 
   27200    289.29223   -83.651372    132170.15    -42274.32    3531.2216   -45805.542   0.14963382 
   27400    290.83643   -41.840337    132099.45   -42244.451    3550.0708   -45794.522   0.14529889 
   27600    288.21866    89.435178    131959.46   -42253.775    3518.1172   -45771.892   0.14441467 
   27800    294.22072    15.211556    132075.74   -42239.799    3591.3809    -45831.18   0.14436543 
   28000    292.32888   -103.19283    132217.83   -42233.016    3568.2882   -45801.304   0.14662672 
   28200    293.58444    52.889155    132045.86   -42245.981    3583.6142   -45829.595   0.14714263 
   28400     293.7463    187.70849    131887.25   -42245.491    3585.5898    -45831.08   0.14417086 
   28600    284.79092   -100.42708    132109.82   -42262.125    3476.2768   -45738.402   0.14746123 
   28800    290.33973   -163.59675    132222.55   -42275.038    3544.0079   -45819.045   0.14492974 
   29000    289.10986    105.89336    131947.57   -42315.602    3528.9955   -45844.597   0.14020373 
   29200    287.04931    166.27865    131892.86   -42350.875    3503.8436   -45854.718   0.14027707 
   29400    289.32215   -122.73625    132220.14   -42351.905    3531.5869   -45883.491   0.14037243 
   29600    292.87727   -139.63134    132196.24   -42315.501    3574.9821   -45890.483   0.14466247 
   29800    292.24368      235.031    131820.33   -42240.372    3567.2483    -45807.62   0.14347343 
   30000    289.62582     88.59911     131933.6   -42228.925    3535.2936   -45764.219   0.14400032 
   30200    297.31899   -255.46925    132353.23   -42240.419    3629.1997   -45869.619   0.14221566 
   30400    290.67277   -99.630284    132141.02   -42292.198    3548.0731   -45840.271   0.14719412 
   30600    291.80434    290.36677    131697.94   -42236.702    3561.8854   -45798.587   0.14921906 
   30800     294.1339   -3.6330553    132050.15   -42203.023    3590.3211   -45793.344   0.14504806 
   31000    294.72392   -309.42491     132465.1   -42192.598    3597.5231   -45790.121   0.14386489 
   31200    292.23207    19.044001     132016.5   -42195.525    3567.1065   -45762.632   0.14946746 
   31400     295.9513    356.12416    131667.78   -42191.426    3612.5051   -45803.931   0.14486703 
   31600    293.27979   -156.39765    132222.63   -42251.437    3579.8955   -45831.333   0.14541048 
   31800    295.11728   -320.05571    132425.27   -42217.634    3602.3246   -45819.959    0.1439023 
   32000    292.37922    249.88521    131790.91   -42192.189    3568.9027   -45761.091   0.14534616 
   32200    295.80984    280.07801    131753.46   -42223.342    3610.7783    -45834.12   0.14732986 
   32400    293.71291   -321.86781     132442.6   -42223.497    3585.1823    -45808.68   0.14619251 
   32600    296.18047   -163.94927    132324.28   -42211.747    3615.3024    -45827.05   0.14039317 
   32800    295.34898     334.0994    131677.48   -42203.782    3605.1529   -45808.935   0.14222381 
   33000    286.86932    123.39975    131924.07   -42195.418    3501.6466   -45697.065   0.14489895 
   33200    295.09362   -355.21707    132500.92   -42194.194    3602.0358    -45796.23   0.14563016 
   33400    291.03785   -64.745036    132155.45   -42154.811    3552.5294   -45707.341   0.14501446 
   33600    291.78167     364.7799    131690.51   -42089.481    3561.6087    -45651.09   0.14861763 
   33800    300.26466   -30.264327    132119.66   -42120.901    3665.1557   -45786.057   0.14363977 
   34000     295.3527   -267.76043    132417.35    -42156.55    3605.1982   -45761.748   0.14250754 
   34200    299.08087    91.827019    131968.37   -42196.399    3650.7058   -45847.105   0.14287912 
   34400    296.30598    269.29756    131756.16   -42250.564    3616.8344   -45867.398   0.14291286 
   34600     289.4178   -88.487753    132173.26   -42214.747    3532.7544   -45747.502   0.14951392 
   34800    292.10619    -184.2494    132283.25    -42253.05      3565.57    -45818.62    0.1443541 
   35000     288.2702    58.467723    131896.49   -42285.016    3518.7463   -45803.763    0.1441552 
   35200    292.93764    206.24379    131842.83   -42279.403     3575.719   -45855.122   0.14277574 
   35400    292.70283   -99.199156     132166.3   -42249.065    3572.8528   -45821.918   0.14514414 
   35600    288.16857   -125.34635     132154.5    -42240.58    3517.5058   -45758.086   0.15158693 
   35800    294.59545    164.32808    131889.59   -42239.578    3595.9549   -45835.533   0.14586447 
   36000    292.43465    77.271014    131984.71    -42239.57    3569.5793   -45809.149   0.14226054 
   36200    294.46218   -133.09567    132234.82   -42252.795    3594.3282   -45847.123   0.14117942 
   36400    288.78173   -46.027019    132085.76   -42276.364    3524.9902   -45801.354   0.14274269 
   36600    293.18561    119.81132    131885.23   -42251.844    3578.7458    -45830.59   0.14675576 
   36800     292.8645    8.0867929    132077.86   -42293.263    3574.8262   -45868.089   0.13931327 
   37000    294.66917   -104.32648    132256.18   -42281.663    3596.8548   -45878.518   0.13638611 
   37200    293.80489     7.720285    132066.15   -42245.167     3586.305   -45831.472   0.13927781 
   37400    283.98596    161.27335    131909.59   -42235.286    3466.4511   -45701.737   0.13877866 
   37600    293.83289    10.328098     132143.1   -42262.061    3586.6469   -45848.708   0.13510745 
   37800    294.27251   -130.73879    132252.52   -42228.757     3592.013    -45820.77   0.14066685 
   38000    290.40465    53.842543    131985.57   -42279.283    3544.8003   -45824.083   0.14237604 
   38200    289.81825    138.09349    131935.84   -42273.141    3537.6425   -45810.784   0.13998723 
   38400    289.35066   -143.13676    132197.94   -42239.725    3531.9348    -45771.66   0.14344726 
   38600    292.71643   -111.97024    132167.36   -42237.636    3573.0188   -45810.655   0.14194629 
   38800    293.11429    94.057136    131903.74   -42285.502    3577.8753   -45863.377   0.14175231 
   39000    290.22984    82.141921    131978.25   -42310.952    3542.6665   -45853.619   0.13986943 
   39200      286.664   -147.19228    132233.31    -42328.76    3499.1404     -45827.9   0.13819123 
   39400    287.56512   -45.782939    132098.82   -42319.277    3510.1399   -45829.416   0.14157669 
   39600    290.26966    195.62817    131825.07   -42385.141    3543.1526   -45928.294   0.13535386 
   39800    288.35665     52.20403    132000.98   -42375.132    3519.8015   -45894.934   0.13629413 
   40000    288.47891   -167.26238    132260.43   -42391.278    3521.2939   -45912.572   0.13514708 
   40200    289.03074   -15.297873     132031.8   -42369.123    3528.0298   -45897.152   0.13539252 
   40400    284.62288    178.77701    131808.39   -42358.216    3474.2256   -45832.442   0.13700084 
   40600    285.00255   -46.018865    132104.68   -42386.809    3478.8601   -45865.669   0.13233473 
   40800    282.78523    -218.6735    132298.81   -42398.904    3451.7944   -45850.698   0.13542881 
   41000     289.9686    128.97733    131927.82   -42362.689    3539.4776   -45902.167   0.13261429 
   41200    288.86115    224.61547    131790.36   -42387.014    3525.9597   -45912.974   0.13251368 
   41400    287.87923   -150.91607    132229.43   -42359.845    3513.9739   -45873.819   0.13464652 
   41600    286.87374   -197.53706    132289.31   -42352.281    3501.7006   -45853.982   0.13530208 
   41800    287.69164    232.80265    131800.53   -42348.835    3511.6842    -45860.52   0.13544326 
   42000    290.69963    152.17292    131911.49   -42328.803     3548.401   -45877.204   0.13645634 
   42200    285.97385   -317.64957    132452.65   -42349.357    3490.7161   -45840.074   0.13416274 
   42400    285.85247   -124.96531    132177.65   -42397.596    3489.2345    -45886.83   0.13488953 
   42600    290.41047    394.31013    131620.52   -42426.424    3544.8713   -45971.295   0.13165801 
   42800    283.80205    11.644372    132025.27   -42426.397    3464.2062   -45890.603   0.13732242 
   43000    286.84486   -415.96405     132566.1   -42383.598    3501.3481   -45884.946    0.1347815 
   43200    290.97131     68.90176    131996.58   -42390.145    3551.7171   -45941.862   0.13417039 
   43400    288.21761    454.08368    131530.35   -42375.698    3518.1043   -45893.803   0.13594235 
   43600    287.86649    -187.7023    132247.02   -42377.639    3513.8184   -45891.458   0.13731628 
   43800    288.16517   -453.83252    132562.53   -42343.142    3517.4643   -45860.607   0.13985787 
   44000    285.81827    309.53028     131763.5    -42362.25    3488.8171   -45851.067   0.13507496 
   44200    288.26201    388.62054    131599.08    -42418.19    3518.6464   -45936.836    0.1375492 
   44400     288.1588   -320.42665    132418.88   -42397.284    3517.3866   -45914.671    0.1378735 
   44600    287.64198   -292.41005     132406.5   -42327.707     3511.078   -45838.785   0.14116612 
   44800    293.92464    411.89241    131628.47   -42292.191    3587.7667   -45879.958   0.13406981 
   45000    289.56213    202.34854    131828.86    -42322.07    3534.5162   -45856.586   0.13546938 
   45200    288.74037   -390.96743    132483.62   -42339.058    3524.4854   -45863.543   0.14238252 
   45400    281.81287   -129.02379    132165.85   -42388.211    3439.9254   -45828.136   0.14073333 
   45600    291.51945    323.92539     131690.2   -42374.549     3558.408   -45932.957   0.13783499 
   45800    287.85983    46.233248    132022.27   -42347.105    3513.7371   -45860.842   0.13697114 
   46000    286.01375    -227.1654     132347.3   -42342.807    3491.2032    -45834.01   0.13659513 
   46200    285.60211    12.822654    132065.57   -42367.831    3486.1785    -45854.01   0.14207758 
   46400    287.85816    166.56891    131868.21   -42355.564    3513.7167   -45869.281   0.14149669 
   46600    293.46571   -38.717601    132122.78   -42360.566    3582.1649   -45942.731   0.14014295 
   46800    288.85486   -143.39814    132229.77   -42322.694    3525.8829   -45848.577   0.14040769 
   47000    289.30481    111.43424    131973.81   -42303.616    3531.3751   -45834.991   0.13765723 
   47200    295.57633     97.92934    131923.96   -42278.822    3607.9279    -45886.75   0.14096622 
   47400    293.00938   -127.08584    132177.81   -42208.138    3576.5948   -45784.733   0.14533881 
   47600    290.54788    -100.4982    132174.82   -42183.023    3546.5486   -45729.572   0.14930236 
   47800    292.99235    124.30953    131989.89   -42153.503    3576.3868    -45729.89   0.14758622 
   48000     293.3157    20.700436    132075.04   -42160.437    3580.3338   -45740.771    0.1431888 
   48200    296.46907   -133.19161    132233.14   -42161.212    3618.8252   -45780.037   0.14400177 
   48400    299.31345    28.701329    132086.52   -42142.435    3653.5448    -45795.98   0.13905252 
   48600    293.31329    102.26799    131966.97   -42200.277    3580.3043   -45780.582    0.1448237 
   48800    295.36881   -49.546866    132166.34   -42146.306    3605.3949   -45751.701    0.1486109 
   49000    299.12336   -72.574806    132253.02    -42121.69    3651.2245   -45772.914   0.14158055 
   49200    298.76385    91.831524    132039.52   -42159.271    3646.8362   -45806.107   0.14087703 
   49400    292.16477    101.64157    131982.77   -42169.948    3566.2851   -45736.233   0.14422585 
   49600     295.2955   -89.194878    132209.86   -42192.433       3604.5   -45796.933   0.14632717 
   49800    292.92505   -94.706267    132202.93   -42171.369    3575.5654   -45746.934   0.14841648 
   50000    293.72601    113.95069    131954.62    -42170.13    3585.3422   -45755.473   0.14669606 
   50200    294.06985    111.60346    131968.93   -42206.447    3589.5393   -45795.987   0.14435682 
   50400    295.54498   -119.59964    132216.57     -42205.2    3607.5454   -45812.745   0.14425645 
   50600    290.77524   -73.887323    132167.49    -42224.98    3549.3238   -45774.304   0.14790502 
   50800    294.08397    73.899564     131924.8   -42234.479    3589.7116   -45824.191   0.14885461 
   51000    298.19596    52.669226    132017.18   -42183.298    3639.9043   -45823.202   0.14553328 
   51200    293.60502   -188.78695    132286.74   -42206.166    3583.8654   -45790.032   0.14239833 
   51400    298.51646    -6.460436    132116.69   -42170.665    3643.8165   -45814.481   0.14267833 
   51600    295.26978    197.37945     131893.3   -42173.191    3604.1861   -45777.377   0.14214911 
   51800    297.95815   -49.076844    132147.21   -42172.842    3637.0015   -45809.844   0.14370038 
   52000    295.57591   -191.90542    132355.56   -42123.922    3607.9229   -45731.845   0.14793523 
   52200    294.86345    29.339358    132044.16    -42095.29    3599.2263   -45694.516   0.14736787 
   52400    296.52615    234.89341    131843.76   -42082.634    3619.5218   -45702.156   0.14235536 
   52600    295.94306   -138.06015    132253.95   -42120.819    3612.4044   -45733.223   0.14748839 
   52800     302.1429    -226.1236    132368.82   -42139.588    3688.0823   -45827.671   0.14471237 
   53000    294.73006    154.67655    131849.82   -42145.565    3597.5981   -45743.163   0.15602272 
   53200     296.6804    233.52096    131840.53   -42155.776    3621.4048    -45777.18   0.14666941 
   53400    297.28984   -271.03728    132431.51   -42177.103    3628.8438   -45805.947   0.14369218 
   53600    290.14569   -156.82631    132282.91   -42209.691    3541.6393    -45751.33   0.14346571 
   53800    291.04617    354.48677    131669.61   -42194.711    3552.6309   -45747.342   0.15092175 
   54000    293.20177    55.534284    131946.93   -42187.165    3578.9432   -45766.109   0.15724441 
   54200     291.1935   -402.23208    132534.21   -42192.179    3554.4294   -45746.608   0.15449171 
   54400    292.20658   -29.304839    132140.08   -42217.385    3566.7954    -45784.18   0.14448899 
   54600    295.14907    389.94155    131646.33   -42211.695    3602.7127   -45814.407   0.13937349 
   54800    298.61371   -57.786283    132185.18   -42160.296    3645.0035   -45805.299   0.14229536 
   55000    296.31792   -377.98999    132595.73   -42160.117    3616.9801   -45777.097   0.14970681 
   55200    297.60099    141.67738    131953.07    -42193.26    3632.6418   -45825.901   0.14525188 
   55400    290.51158    384.74518    131626.13   -42213.037    3546.1056   -45759.142   0.14917901 
   55600    291.40935   -200.04484    132264.62   -42246.757    3557.0641   -45803.821   0.14072114 
   55800    287.10299   -331.76358       132430   -42216.671    3504.4989    -45721.17    0.1460215 
   56000    297.26271    211.52622    131795.43   -42202.848    3628.5127   -45831.361   0.14717246 
   56200    295.47778    281.13684    131770.16   -42229.104     3606.725   -45835.829   0.14472385 
   56400    292.61207   -222.09267    132352.41   -42233.165     3571.745    -45804.91    0.1459548 
   56600    286.34967   -180.44706    132263.82   -42236.469    3495.3035   -45731.772   0.14600853 
   56800    292.74975    252.13456    131756.81   -42195.042    3573.4256   -45768.467   0.14882668 
   57000    297.27913    93.432947    131980.01   -42191.518    3628.7131   -45820.231   0.14807873 
   57200    291.84268   -307.03224       132415   -42226.124    3562.3534   -45788.477   0.15032213 
   57400    295.24299   -54.850836     132107.7   -42247.807    3603.8591   -45851.666   0.14969459 
   57600    297.22565    271.23817    131739.39   -42214.093    3628.0603   -45842.153   0.14725682 
   57800    296.32396   -43.688516    132117.28   -42229.047    3617.0539   -45846.101   0.14383122 
   58000     290.3354   -280.88246    132376.32   -42241.388     3543.955   -45785.343   0.15097752 
   58200     292.7006    126.27194    131928.89   -42281.472    3572.8256   -45854.298   0.14956087 
   58400    287.47054    172.32887    131764.39   -42274.563    3508.9854   -45783.548   0.15466805 
   58600    291.35629   -109.40004    132248.92   -42255.515    3556.4164   -45811.932   0.14266415 
   58800    289.48988    -249.5366    132310.35   -42287.299    3533.6342   -45820.933   0.14239374 
   59000    287.70869    207.87205    131816.08   -42309.781    3511.8923   -45821.673   0.14149568 
   59200    288.79577    192.84281    131846.45    -42311.29    3525.1616   -45836.451   0.14011056 
   59400     289.4857   -217.92784    132339.88   -42257.114    3533.5832   -45790.697    0.1470148 
   59600    291.61902    -131.9945    132194.06   -42254.383    3559.6234   -45814.007   0.14871739 
   59800    294.00423    311.24048    131717.23   -42241.208    3588.7383   -45829.946   0.14197434 
   60000    295.84614    57.734226    131958.38    -42230.21    3611.2214   -45841.431   0.14319604 
   60200    291.82822   -235.94165     132363.9   -42202.673    3562.1769    -45764.85   0.14509799 
   60400    291.21938   -38.270288    132080.52   -42173.334    3554.7453   -45728.079   0.15190847 
   60600    298.12145    259.87048    131759.78   -42213.173    3638.9947   -45852.168   0.14873088 
   60800    302.98914    1.3029384    132119.05   -42156.789    3698.4119   -45855.201   0.14697456 
   61000    294.33304    -258.5839    132390.54   -42194.949    3592.7519   -45787.701   0.14991363 
   61200    289.66898    94.187953    131991.94    -42199.36    3535.8205    -45735.18   0.14941802 
   61400    294.66201    246.56972    131827.37   -42198.963    3596.7674    -45795.73   0.15054087 
   61600    295.45121   -138.20387    132245.26   -42191.811    3606.4007   -45798.212   0.15251965 
   61800    294.87652   -202.38259    132309.51   -42191.112    3599.3858   -45790.498   0.14998193 
   62000    296.19851    166.11048    131887.55    -42207.67    3615.5226   -45823.193    0.1459346 
   62200    295.76106    159.29248    131887.21   -42213.294    3610.1829   -45823.477   0.14697337 
   62400    294.91741   -176.98038    132304.91   -42181.365    3599.8849    -45781.25   0.15026518 
   62600    289.80025   -116.21275     132259.2   -42202.321    3537.4228   -45739.744   0.15250735 
   62800     295.0585    251.04588    131857.24   -42174.493    3601.6071     -45776.1    0.1464759 
   63000    298.39094     91.39964    131990.93   -42149.679    3642.2843   -45791.964   0.14232109 
   63200    291.30118   -262.72475    132385.13   -42152.111    3555.7437   -45707.855   0.14619994 
   63400    291.71528   -86.037719    132167.24   -42112.442    3560.7984    -45673.24   0.15499108 
   63600    294.71826    271.49698    131816.26   -42092.433     3597.454   -45689.887   0.15467495 
   63800     299.6659   -8.4487333    132110.73   -42120.651    3657.8469   -45778.498    0.1522854 
   64000     300.3254   -237.30271    132397.68   -42125.145    3665.8971   -45791.042   0.14687762 
   64200    294.57949     35.94172    132041.71    -42129.34    3595.7602     -45725.1   0.14762049 
   64400     298.1002    240.42777    131788.86   -42112.548    3638.7354   -45751.283   0.14857227 
   64600    292.10666   -114.62387     132179.2   -42164.212    3565.5758   -45729.788   0.15585449 
   64800     294.8383   -210.93426    132342.85   -42174.634    3598.9193   -45773.553   0.15533698 
   65000    296.26907    117.82496    131958.94   -42171.141    3616.3839   -45787.524   0.15206702 
   65200    292.70055    160.74918    131883.28   -42192.293     3572.825   -45765.118   0.14505982 
   65400    292.20897   -149.71381    132258.44   -42211.795    3566.8246   -45778.619   0.14774371 
   65600    290.63763   -125.01737    132238.44   -42238.395    3547.6441   -45786.039   0.15079307 
   65800    291.66732    160.49003    131861.71   -42211.725     3560.213   -45771.938   0.15871372 
   66000     289.3333    86.963532    131955.39   -42209.595     3531.723   -45741.318   0.15447705 
   66200    295.94765   -160.20646     132305.9    -42241.81    3612.4604   -45854.271    0.1430503 
   66400    295.96976   -85.986125    132155.86   -42236.636    3612.7304   -45849.366   0.14360028 
   66600    292.57691    163.55627    131839.39   -42251.893    3571.3158   -45823.209   0.14755495 
   66800    293.41609    21.221268     132013.5   -42227.649    3581.5591   -45809.209   0.14903883 
   67000    288.24464   -205.08414    132249.53   -42245.899    3518.4344   -45764.333   0.15176497 
   67200    291.45368   -12.841606    132032.57   -42266.175    3557.6052    -45823.78   0.14526572 
   67400     292.5052     186.0656    131862.17   -42298.064    3570.4405   -45868.504   0.13883706 
   67600     291.5634   -19.802174    132108.87   -42256.487    3558.9445   -45815.432   0.14287657 
   67800    297.62718   -132.75981    132244.53   -42208.132    3632.9615   -45841.093   0.14641983 
   68000    291.05298    44.767983    132022.88   -42204.251    3552.7141   -45756.965   0.15122311 
   68200    290.51459    91.593835    131942.65   -42273.716    3546.1423   -45819.858   0.14664714 
   68400    289.97757   -87.312026    132147.49    -42220.94    3539.5872   -45760.527   0.15021291 
   68600    291.14567   -76.061664    132186.49    -42206.24    3553.8455   -45760.085   0.14711493 
   68800    291.04393    85.392964    131991.02   -42175.834    3552.6036   -45728.438   0.15226433 
   69000    291.07939    34.869622     132006.6   -42220.115    3553.0365   -45773.152   0.15597122 
   69200    297.78819   -47.406394    132192.97   -42226.053    3634.9268    -45860.98   0.14495895 
   69400    289.61447   -60.804529    132153.61   -42262.659     3535.155   -45797.814   0.14698636 
   69600    288.81892    70.843016    131953.88   -42275.174    3525.4442   -45800.619   0.14719957 
   69800     296.9665    76.712427    131999.37   -42244.999     3624.897   -45869.896   0.14399083 
   70000    290.32775   -97.514243    132204.73   -42204.727    3543.8616   -45748.588    0.1527395 
   70200    299.10419   -23.317056    132136.39   -42202.937    3650.9905   -45853.927   0.14735823 
   70400    295.72405    100.81696    131950.63   -42208.894    3609.7311   -45818.626   0.15084832 
   70600    296.48722    38.814902    132074.98   -42182.544    3619.0467    -45801.59     0.146351 
   70800    294.19987   -156.14616     132267.1   -42204.387    3591.1264   -45795.513   0.14361078 
   71000    294.07188    41.858614    132087.71   -42246.181     3589.564   -45835.745   0.14234281 
   71200    294.49764    176.81131    131911.95   -42252.039     3594.761     -45846.8   0.14461865 
   71400    294.59139    -38.94551     132136.4   -42224.548    3595.9054   -45820.453    0.1530257 
   71600     290.8193   -232.91294    132283.05   -42203.083    3549.8617   -45752.945   0.15214188 
   71800    295.98511    118.50832    131993.22   -42215.547    3612.9178   -45828.464   0.14120807 
   72000    294.25812    183.27264    131912.19   -42247.938    3591.8374   -45839.776   0.14587663 
   72200    285.81694   -150.46876    132241.99   -42279.579    3488.8008    -45768.38   0.15220863 
   72400    291.74657   -170.95423    132246.07   -42257.089    3561.1803   -45818.269   0.15341202 
   72600    292.00904    203.30664    131870.73   -42233.832    3564.3842   -45798.216   0.14413977 
   72800    293.80266    136.18445     131913.3    -42301.09    3586.2778   -45887.368   0.14118449 
   73000    285.92878   -208.39579    132294.75   -42304.285     3490.166   -45794.451   0.14703237 
   73200    289.48617   -85.473209     132167.1   -42324.116     3533.589   -45857.705   0.14856123 
   73400     292.2186    296.37866    131763.78   -42304.616    3566.9422   -45871.558   0.14572336 
   73600    288.68077    54.880761     131990.3   -42290.823    3523.7579   -45814.581   0.14337985 
   73800    289.54012   -311.68916    132399.06   -42290.423    3534.2475   -45824.671   0.14671928 
   74000    292.14293    27.585012    132031.48   -42325.473    3566.0184   -45891.492   0.14358414 
   74200    290.62449    339.75186    131640.67   -42331.221    3547.4838   -45878.705   0.14648131 
   74400    293.51751   -50.119352    132142.16   -42301.519    3582.7972   -45884.316    0.1423714 
   74600    290.28982   -308.08117    132461.96   -42310.065    3543.3987   -45853.464   0.14031387 
   74800    292.52507     178.0775    131856.92   -42323.775    3570.6831   -45894.458   0.14114524 
   75000    286.62668    374.69108    131646.93    -42291.17    3498.6848   -45789.855   0.14401002 
   75200    293.91191   -239.80338    132365.14   -42270.541    3587.6114   -45858.152    0.1471749 
   75400    293.81046   -287.67778    132454.56   -42265.898     3586.373   -45852.271   0.14758609 
   75600    291.05068    332.86601     131715.9    -42239.68     3552.686   -45792.366   0.14837412 
   75800    294.07442    219.78503    131808.69   -42215.598     3589.595   -45805.193    0.1466294 
   76000    293.11377     -356.668    132556.82   -42209.607     3577.869   -45787.476   0.14363154 
   76200    293.80589   -180.80291    132304.96   -42232.389    3586.3172   -45818.706   0.14529084 
   76400    297.47295    429.18612    131656.48   -42205.228     3631.079   -45836.307   0.14772573 
   76600    292.16652    29.424182    132061.37   -42196.089    3566.3064   -45762.395   0.15175804 
   76800     295.0207    -354.2547    132586.52    -42189.01    3601.1457   -45790.156   0.14678396 
   77000    291.42066    34.724197    132099.11   -42198.651    3557.2021   -45755.853   0.13950618 
   77200    292.68998    364.96151    131693.19    -42243.78     3572.696   -45816.476    0.1401971 
   77400    293.62675   -60.656782    132181.12   -42222.241    3584.1306   -45806.372   0.14481827 
   77600    291.21244    -289.7899    132419.52   -42247.917    3554.6605   -45802.578   0.14938099 
   77800     288.9335    108.41239    131921.84    -42256.69    3526.8428   -45783.533   0.14947023 
   78000    294.35143    225.69124    131818.43   -42260.255    3592.9764   -45853.231   0.13965203 
   78200    294.95671   -152.97312    132269.04   -42249.697    3600.3646   -45850.062   0.14100699 
   78400    297.10605   -166.93906    132245.51   -42276.902    3626.6003   -45903.502   0.14397026 
   78600     294.0563    212.78402    131840.92   -42283.386    3589.3739    -45872.76   0.14117595 
   78800    290.56762    136.95427    131957.64   -42263.032    3546.7895   -45809.822   0.14400232 
   79000    290.84653   -203.77409     132304.7   -42257.494     3550.194   -45807.688   0.15049518 
   79200    284.27178   -66.286026    132119.54   -42261.152      3469.94   -45731.092   0.14977324 
   79400    290.26631     198.9258    131861.23   -42215.933    3543.1116   -45759.045   0.15002905 
   79600    293.22527   -37.896748    132134.88   -42214.782      3579.23   -45794.012   0.14264747 
   79800     290.9434   -202.99241    132352.85   -42234.378    3551.3765   -45785.754   0.14570132 
   80000    293.48366    109.05211    131997.75   -42214.457    3582.3839   -45796.841   0.14700375 
   80200    292.14155    181.21199    131843.31   -42170.477    3566.0017   -45736.478   0.15396894 
   80400    294.80584   -171.56446    132256.89   -42157.559    3598.5231   -45756.082   0.15028442 
   80600    293.16123   -176.84095     132290.8   -42175.555    3578.4482   -45754.003   0.14935609 
   80800    293.04013     172.0712    131883.76   -42125.986    3576.9701   -45702.956   0.15133804 
   81000    292.45213    88.061632    131955.88   -42178.634    3569.7927   -45748.427   0.14899878 
   81200    300.84771   -183.79516    132280.99   -42158.618    3672.2727    -45830.89   0.14668546 
   81400    293.03007   -14.053767    132108.12   -42128.136    3576.8473   -45704.983   0.15000184 
   81600    294.60807    212.76434    131863.88   -42145.069    3596.1089   -45741.178   0.14816884 
   81800    297.02909    40.970354    132080.28   -42152.644     3625.661   -45778.305   0.14992325 
   82000    292.67524   -213.92761    132301.85   -42123.281    3572.5161   -45695.797   0.14970107 
   82200    298.58169    52.750073    132029.66   -42168.232    3644.6127   -45812.845   0.14245885 
   82400    295.28377    208.22481    131836.55   -42177.149    3604.3569   -45781.506    0.1424283 
   82600    297.43975   -58.371232    132151.52   -42202.685    3630.6736   -45833.358   0.14559503 
   82800    290.41012    -173.3261    132273.42   -42241.855    3544.8671   -45786.722   0.14730729 
   83000    295.09224    118.25086    131925.41   -42228.919     3602.019   -45830.938   0.14900306 
   83200    294.65047    162.16713    131864.65    -42243.74    3596.6266   -45840.366   0.14646209 
   83400    286.12963   -210.75378    132235.77   -42269.369    3492.6177   -45761.987   0.14926371 
   83600    288.51941    -134.2394    132196.77   -42281.193    3521.7883   -45802.981   0.14620179 
   83800    290.24149    208.73541    131785.23   -42228.449    3542.8086   -45771.257   0.14944254 
   84000    293.75796    99.007399    131895.74    -42256.37    3585.7323   -45842.103   0.14576688 
   84200    292.99853   -227.33793    132297.38   -42239.026    3576.4623   -45815.488    0.1484465 
   84400    290.31894   -66.038518    132109.86   -42255.444    3543.7541   -45799.198   0.14843613 
   84600    285.65167    247.97425    131736.66   -42245.779    3486.7835   -45732.563   0.15149934 
   84800    290.29548    18.152197     132037.4    -42264.09    3543.4678   -45807.557   0.14194068 
   85000    292.66781   -262.37402    132368.87   -42222.978    3572.4253   -45795.403    0.1463365 
   85200    293.05407    76.833534    131984.51   -42192.704    3577.1402   -45769.844   0.14808875 
   85400    294.83953    284.63124     131717.6   -42175.372    3598.9343   -45774.307   0.14864237 
   85600    295.82624   -101.77777    132191.16   -42184.153    3610.9785   -45795.131   0.14676184 
   85800    292.55028   -284.30971    132377.35   -42187.284    3570.9908   -45758.275   0.14722179 
   86000     295.4427     241.4454    131813.12   -42149.597    3606.2968   -45755.894   0.14573702 
   86200    295.93676    256.53141    131725.52   -42160.864    3612.3276   -45773.191   0.14843351 
   86400    297.04184   -250.95378       132393   -42157.652    3625.8166   -45783.468   0.14791905 
   86600    299.75393   -294.30245    132364.59   -42141.376    3658.9215   -45800.298   0.15354386 
   86800    298.28459    423.46026    131595.09   -42178.625    3640.9862   -45819.611   0.14525293 
   87000    296.87021     219.7239    131798.08   -42198.444    3623.7216   -45822.165   0.14763772 
   87200    293.27374   -538.99548    132656.49   -42173.033    3579.8216   -45752.855   0.15055877 
   87400    294.51469   -139.82574    132239.59   -42144.293    3594.9691   -45739.262   0.15022662 
   87600    294.36512     577.0895    131370.31     -42190.4    3593.1434   -45783.544   0.15287104 
   87800    296.23487    63.231219    131998.51   -42209.552    3615.9664   -45825.518   0.14999405 
   88000    296.51285   -570.46995    132793.53   -42164.856    3619.3596   -45784.216   0.14840839 
   88200    296.68627    3.6556081    131985.76   -42193.053    3621.4763   -45814.529   0.14738902 
   88400    294.80927    602.77947    131375.67   -42178.065    3598.5649    -45776.63   0.15002932 
   88600    286.67023   -205.79339    132251.87   -42200.138    3499.2164   -45699.354   0.15614008 
   88800    294.19613   -482.09679    132612.49   -42195.192    3591.0807   -45786.272   0.15234513 
   89000    296.37882    204.72276    131776.43   -42209.774    3617.7235   -45827.498   0.14810564 
   89200    296.53124    377.29523    131620.25   -42184.041     3619.584   -45803.625   0.14275057 
   89400    297.02708   -183.67621    132319.09   -42153.114    3625.6364    -45778.75   0.14554044 
   89600    290.18125   -255.20636    132354.48   -42179.844    3542.0734   -45721.917   0.15361336 
   89800     293.7265    213.47232    131788.13   -42201.244    3585.3482   -45786.592   0.15235069 
   90000    292.93977    151.45149    131824.55   -42214.415     3575.745    -45790.16   0.15030671 
   90200     293.2283   -157.44873    132260.75   -42256.399     3579.267   -45835.666   0.14314213 
   90400    292.78126   -97.730858    132140.53   -42282.509    3573.8102   -45856.319   0.14495275 
   90600    290.42732    223.10633    131791.79    -42267.02     3545.077   -45812.097   0.14716289 
   90800    288.03252    25.153503    131976.99   -42282.829    3515.8451   -45798.674   0.15286364 
   91000    289.06428   -165.97131    132255.62   -42282.429    3528.4392   -45810.868   0.15103635 
   91200    285.68405   -26.687954    132064.62   -42295.282    3487.1787   -45782.461   0.14940166 
   91400     292.2609    134.27151    131865.37   -42290.094    3567.4585   -45857.553   0.14695535 
   91600    286.52803   -36.186277    132101.29    -42296.27    3497.4806    -45793.75   0.14735533 
   91800    290.28493   -143.37013    132241.37    -42269.48     3543.339   -45812.819   0.14634518 
   92000    294.09364    105.62324    131962.99   -42283.655    3589.8296   -45873.484   0.14668118 
   92200    287.47747    107.65715    131903.97   -42303.411    3509.0699   -45812.481   0.15018275 
   92400    292.45496   -108.73245    132192.15   -42260.283    3569.8272    -45830.11   0.14731915 
   92600     287.4901   -97.747445    132192.26   -42313.256    3509.2241    -45822.48   0.13920763 
   92800    291.19361    105.97388    131912.16   -42289.794    3554.4307   -45844.224   0.14453481 
   93000    293.67764    64.450053    131952.18   -42222.738    3584.7517    -45807.49   0.15055032 
   93200    293.37241   -150.46474    132258.21   -42223.946     3581.026   -45804.972   0.14885505 
   93400    295.29097   -100.82395    132154.85   -42224.803    3604.4447   -45829.248    0.1459765 
   93600    288.46251    157.88885    131880.87   -42205.234    3521.0937   -45726.327    0.1494898 
   93800    296.44573    34.085353    132039.45   -42206.808    3618.5402   -45825.348   0.14756599 
   94000    293.46815   -191.26963    132261.53   -42208.818    3582.1947   -45791.013    0.1516678 
   94200      291.619    44.648016    132018.27   -42283.608    3559.6232   -45843.231   0.14601051 
   94400    288.27603    199.44683    131818.56   -42268.471    3518.8175   -45787.288   0.14925386 
   94600    296.28643   -46.126138    132146.52   -42263.981    3616.5957   -45880.577    0.1461588 
   94800     294.5019   -240.55875    132321.25   -42318.101     3594.813   -45912.914   0.14782442 
   95000    290.51315    118.09879     131913.3   -42325.609    3546.1247   -45871.733   0.14694009 
   95200    286.47192    226.72229    131779.28    -42325.59    3496.7958   -45822.386   0.14688687 
   95400    288.67294   -141.96606    132224.17   -42343.592    3523.6623   -45867.254   0.14563209 
   95600     287.2945   -221.75679    132266.85   -42302.012    3506.8366   -45808.849   0.15269339 
   95800    287.92645    231.99061    131784.76   -42267.403    3514.5504   -45781.954   0.14832294 
   96000    290.60163    148.50686    131898.95   -42265.845    3547.2047   -45813.049    0.1456762 
   96200     291.0472   -257.23974     132450.1   -42293.944    3552.6435   -45846.588   0.14316317 
   96400    291.11504   -114.33479    132186.33   -42289.205    3553.4716   -45842.677   0.14926997 
   96600     287.1687    363.11027     131635.9   -42301.087    3505.3009   -45806.387   0.14572426 
   96800    291.61189    15.284201    132030.06   -42354.932    3559.5364   -45914.469   0.14066235 
   97000     287.3236   -446.16887     132526.6   -42337.561    3507.1917   -45844.753   0.15050564 
   97200    290.42542    116.66457    131960.07   -42328.173    3545.0538   -45873.227   0.14298787 
   97400    290.17201    464.09162    131529.13   -42285.941    3541.9606   -45827.902   0.15032359 
   97600     286.7543   -201.43269    132272.29   -42262.456    3500.2426   -45762.699    0.1526827 
   97800      289.014   -392.55697    132593.41    -42255.71    3527.8255   -45783.535   0.14738389 
   98000    294.72539    259.62182    131761.95   -42229.973    3597.5411   -45827.514   0.14793198 
   98200    296.70595    398.34588     131590.7   -42241.035    3621.7166   -45862.751   0.14939216 
   98400    293.31781   -314.85827    132455.27   -42174.617    3580.3595   -45754.977   0.15553208 
   98600    294.74374   -346.18187    132472.27    -42219.37     3597.765   -45817.135   0.15292625 
   98800    296.14435    375.91102    131648.29   -42184.278    3614.8615    -45799.14   0.15283947 
   99000    296.44741    266.07734    131788.19   -42188.785    3618.5608   -45807.346   0.14854002 
   99200    293.10301   -359.09988    132449.56   -42253.608    3577.7376   -45831.346   0.14889898 
   99400     291.0414   -133.99781    132168.38   -42338.832    3552.5728   -45891.405   0.14633136 
   99600    290.84249    302.87466    131672.35   -42358.955    3550.1448     -45909.1   0.14387534 
   99800     291.5065    47.233878     131963.4   -42327.312      3558.25   -45885.562   0.14711643 
  100000    289.96228   -206.91538    132271.14   -42333.176    3539.4005   -45872.577   0.14363882 
  100200    292.72107    15.607064    131981.51   -42296.095    3573.0754    -45869.17   0.14645095 
  100400    286.58548    172.74146    131807.13   -42275.981    3498.1819   -45774.163   0.15096955 
  100600    295.30667   -26.788039    132073.57    -42233.62    3604.6365   -45838.257   0.14990387 
  100800    286.25435   -153.62408    132150.29   -42262.114      3494.14   -45756.254   0.15496023 
  101000    291.45232    137.06739    131891.12   -42253.658    3557.5885   -45811.246   0.14703685 
  101200    293.71052    109.09698     131922.3   -42221.738    3585.1532   -45806.892   0.14685588 
  101400    287.90877   -144.71388    132188.92   -42242.447    3514.3346   -45756.782   0.15127618 
  101600    295.98323   -76.143122    132112.24   -42251.201    3612.8948   -45864.096   0.15326421 
  101800    293.08249    130.16572    131864.84    -42221.07    3577.4871   -45798.557   0.15578378 
  102000    290.64663    25.072364     132006.4   -42230.683     3547.754   -45778.437   0.14984284 
  102200    295.06454   -135.78513    132207.19   -42214.127    3601.6809   -45815.808   0.14847725 
  102400     293.0543    25.474909    132045.28   -42163.699     3577.143   -45740.842   0.14774814 
  102600    297.41058    152.44633    131880.31   -42166.853    3630.3175    -45797.17   0.15005185 
  102800    290.91499    -70.88444    132076.97   -42184.689    3551.0297   -45735.719   0.15622524 
  103000    295.17159   -107.21129    132206.16    -42177.61    3602.9875   -45780.598   0.14915349 
  103200    300.96371     73.20404    132007.79   -42159.812    3673.6885   -45833.501   0.14428023 
  103400    288.84296    127.27629    131883.93   -42188.308    3525.7377   -45714.046   0.14780845 
  103600    294.79006   -53.294541    132103.46   -42194.876    3598.3304   -45793.207   0.14694469 
  103800    293.40539   -69.450675    132175.69   -42190.874    3581.4286   -45772.303   0.14542332 
  104000    295.90771    106.27703    131944.96   -42204.059    3611.9729   -45816.032    0.1484164 
  104200    291.85809    57.628716    131946.08   -42212.825    3562.5416   -45775.367   0.15237478 
  104400    297.90553   -113.75465    132180.71   -42234.046    3636.3592   -45870.405   0.14729779 
  104600    295.79916   -56.046504     132131.6   -42223.255    3610.6479   -45833.903   0.14326056 
  104800    297.25743    133.07952    131879.73   -42219.292    3628.4482   -45847.741   0.15033961 
  105000    290.80907    59.134899    131978.03   -42248.596    3549.7368   -45798.333   0.15238664 
  105200    290.45685   -155.44758    132256.22   -42246.202    3545.4375   -45791.639   0.15339969 
  105400    296.31371   -38.746477    132115.94   -42240.558    3616.9287   -45857.487   0.14783437 
  105600    295.52708     155.8874     131842.7   -42235.052    3607.3269   -45842.379   0.14726922 
  105800    293.56975    3.4548063       132070   -42256.911    3583.4349   -45840.346   0.14734971 
  106000    295.95708   -231.36616    132367.45   -42216.905    3612.5756    -45829.48   0.15175038 
  106200    290.38535    16.905052    132069.26   -42198.753    3544.5647   -45743.317   0.15074995 
  106400    294.78155    239.02746    131783.01   -42230.701    3598.2265   -45828.928   0.14837662 
  106600    291.57852   -49.495811    132145.51   -42232.612     3559.129   -45791.741   0.14709292 
  106800    292.43483   -256.56561    132373.73   -42224.715    3569.5816   -45794.296    0.1506409 
  107000     298.1295    173.91915    131890.56   -42183.506     3639.093   -45822.599   0.14698687 
  107200    294.92851    271.63257    131758.48   -42171.497    3600.0204   -45771.518   0.14933857 
  107400    293.52056   -224.63097    132344.09   -42177.314    3582.8344   -45760.149   0.14865951 
  107600    297.66547   -270.48115     132368.3   -42155.509    3633.4289   -45788.938   0.15116138 
  107800    299.38749    303.09823    131743.61   -42175.485    3654.4485   -45829.934   0.15122322 
  108000    292.11379    209.88752    131853.55   -42153.272    3565.6627   -45718.935     0.152657 
  108200    300.05357   -369.38663    132501.85   -42185.888    3662.5791   -45848.467   0.15091191 
  108400    293.51251   -94.743606    132240.89   -42183.389    3582.7362   -45766.126   0.14752321 
  108600    301.31285    389.16437    131654.94   -42162.114    3677.9503   -45840.065   0.14892674 
  108800    293.99558    27.700476    132044.71   -42179.711    3588.6327   -45768.344   0.15294233 
  109000    292.28365   -403.35787     132545.5   -42212.586    3567.7362   -45780.323   0.15237266 
  109200    289.62046    7.3471345    132054.29   -42222.334    3535.2282   -45757.562   0.15181067 
  109400    293.78772    346.34747    131681.07   -42201.553    3586.0955   -45787.648   0.15037367 
  109600    291.63872   -128.37068    132275.06   -42169.329    3559.8639   -45729.193   0.14753645 
  109800    290.86175   -369.40258    132514.44   -42219.901    3550.3798    -45770.28   0.14466049 
  110000     294.9765     226.1365    131850.05   -42156.355    3600.6062   -45756.961   0.14732145 
  110200    295.96497    267.42735    131775.95     -42145.7    3612.6718   -45758.372   0.15113677 
  110400    296.72704   -270.71288    132411.77   -42195.811    3621.9741   -45817.785    0.1475138 
  110600    295.88416    -185.2567    132322.29   -42266.979    3611.6855   -45878.665   0.14400091 
  110800    290.40052    323.82674    131699.12   -42261.644    3544.7499   -45806.394   0.14434159 
  111000     288.2426    162.53988    131887.85   -42265.473    3518.4094   -45783.883   0.14578189 
  111200    293.51106   -313.12308     132430.7   -42246.547    3582.7185   -45829.265   0.14725581 
  111400    286.47302   -76.993111    132127.54   -42296.162    3496.8092   -45792.971   0.14911832 
  111600    288.25349    273.90307    131659.17   -42340.017    3518.5423    -45858.56   0.14701221 
  111800    289.93961    28.680038    131982.98   -42371.364    3539.1238   -45910.488   0.14496754 
  112000    286.71888   -272.55285    132323.62   -42370.785    3499.8103   -45870.595   0.14705986 
  112200    290.40013    94.432664    131965.49   -42323.491    3544.7451   -45868.236   0.14516418 
  112400    290.72848    230.94035    131774.74   -42303.394    3548.7531   -45852.147   0.14752003 
  112600    287.53294   -92.972249    132160.06   -42278.505    3509.7471   -45788.252   0.15244911 
  112800    286.13706   -219.97562    132271.94   -42296.296    3492.7084   -45789.004   0.15316724 
  113000    289.08831    119.10124    131897.57   -42274.693    3528.7325   -45803.426   0.14722271 
  113200    290.99009     163.7496    131832.71   -42308.051    3551.9465   -45859.998   0.14326184 
  113400    287.64159   -112.77462    132217.25   -42288.455    3511.0733   -45799.528    0.1425087 
  113600    283.14538   -155.31541    132217.54   -42292.149    3456.1906    -45748.34   0.15026766 
  113800    290.05149    161.71259    131878.24    -42276.83    3540.4895   -45817.319   0.14798901 
  114000    293.95104      89.2187    131964.79   -42264.072     3588.089   -45852.161   0.14095155 
  114200    292.01043   -132.29025    132262.07   -42275.552    3564.4011   -45839.953   0.13989999 
  114400    296.82042   -26.463839    132119.28   -42219.763    3623.1139   -45842.877   0.14109552 
  114600    292.23232     158.0634    131864.91   -42195.926    3567.1096   -45763.035   0.14616864 
  114800    297.50246    6.9966614    132059.42   -42169.156    3631.4392   -45800.595   0.14896588 
  115000    294.17771   -180.17075    132255.44   -42190.868    3590.8559   -45781.724   0.15366756 
  115200    291.49286     32.03633    131994.25   -42217.661    3558.0835   -45775.744   0.15149949 
  115400    290.82192    157.99622    131842.73   -42234.327    3549.8936   -45784.221    0.1507977 
  115600    289.18029   -67.505111    132120.61   -42211.568    3529.8553   -45741.423   0.15022269 
  115800    293.92317   -159.36119    132208.81    -42230.11    3587.7489   -45817.859   0.15329714 
  116000    293.80347    173.32502    131930.86   -42220.075    3586.2877   -45806.363   0.15033994 
  116200     292.4667    103.29079    131954.34   -42236.787    3569.9706   -45806.758   0.15211963 
  116400    281.75367   -160.02269     132248.1   -42282.979    3439.2029   -45722.182   0.15047643 
  116600    292.83388   -48.537372     132107.6   -42300.969    3574.4525   -45875.422   0.14677574 
  116800    291.92813    198.40247    131800.67   -42249.277    3563.3965   -45812.674   0.15129584 
  117000    291.83175    13.356794    132034.99   -42271.095    3562.2201   -45833.315   0.14921067 
  117200     291.2258   -285.29813     132359.6   -42267.374    3554.8236   -45822.198   0.15021171 
  117400    288.46435   -14.063026    132003.22   -42280.047    3521.1162   -45801.163   0.14987391 
  117600    298.58135     360.6604    131674.01   -42252.699    3644.6085   -45897.307   0.14295149 
  117800    290.81103   -127.62075    132208.58   -42216.591    3549.7608   -45766.352   0.14671393 
  118000    292.00275   -356.29652    132501.77   -42204.029    3564.3074   -45768.336   0.14581856 
  118200    296.08124     248.2368    131776.87   -42246.498    3614.0911   -45860.589   0.14742195 
  118400    288.78955    401.15127    131571.97   -42278.826    3525.0857   -45803.912   0.14812362 
  118600    290.24812    -334.9571    132430.99   -42306.656    3542.8896   -45849.545   0.14642643 
  118800    286.96492   -349.20275    132464.63   -42342.836    3502.8135    -45845.65   0.14527524 
  119000    286.34768    449.33357    131519.44   -42352.251    3495.2793   -45847.531   0.14750159 
  119200    285.43247    281.81848    131685.28   -42356.524    3484.1078   -45840.632   0.14649296 
  119400    285.25239   -484.59891    132587.51   -42386.697    3481.9097   -45868.607    0.1501658 
  119600    285.97906   -157.81258    132231.53   -42327.588    3490.7797   -45818.368    0.1504145 
  119800    294.03657    441.76114    131505.19   -42319.854     3589.133   -45908.987    0.1530633 
  120000    287.97268    29.242593    131953.13   -42348.342    3515.1146   -45863.456   0.15081374 
  120200    284.13392   -413.42275    132474.76   -42319.012    3468.2572   -45787.269   0.15344985 
  120400     288.4725    32.838965    131962.07   -42356.205    3521.2157    -45877.42   0.14654735 
  120600    286.18376    324.53567    131617.47   -42341.389    3493.2783   -45834.667    0.1472177 
  120800       286.59   -105.97912    132144.96   -42342.116     3498.237   -45840.353   0.14628975 
  121000    292.11823   -252.61494    132326.93   -42327.737    3565.7169   -45893.454   0.14423397 
  121200    287.19359     131.3723    131828.02   -42335.814    3505.6048   -45841.419    0.1469368 
  121400    286.88292    169.73173    131770.23   -42327.747    3501.8126    -45829.56   0.14850103 
  121600    291.33433   -183.26483    132219.81   -42319.089    3556.1484   -45875.237   0.14396831 
  121800    286.14937   -130.93511    132208.67   -42314.875    3492.8586   -45807.734   0.14306727 
  122000    291.82169    224.81342    131804.31   -42295.527    3562.0973   -45857.624   0.14116456 
  122200     292.5251    129.39966    131917.33   -42270.474    3570.6835   -45841.158   0.14439592 
  122400    293.88838   -222.58684    132326.84   -42229.668    3587.3241   -45816.992   0.14731272 
  122600    294.50158   -42.224331    132167.32   -42149.115    3594.8091   -45743.925   0.15028252 
  122800    296.50045     210.0654    131871.57   -42146.318    3619.2081   -45765.526   0.14857418 
  123000    288.35399   -18.847752    132122.16   -42183.478    3519.7691   -45703.247   0.15210291 
  123200    292.67464    -206.1881    132305.59   -42206.906    3572.5087   -45779.415   0.15211208 
  123400    289.19987    43.240876    131942.23   -42288.048    3530.0942   -45818.142    0.1526366 
  123600    289.58688     243.0176    131809.14    -42246.67    3534.8183   -45781.488   0.14885329 
  123800     296.0158   -116.56475    132215.62    -42260.12    3613.2923   -45873.412   0.14819315 
  124000    292.23638   -215.09196    132281.47   -42238.412    3567.1592   -45805.571   0.15354018 
  124200     292.0697    183.68436    131889.74   -42228.579    3565.1246   -45793.703   0.14952979 
  124400    288.72423    127.87744    131931.01   -42250.141    3524.2884   -45774.429   0.14984866 
  124600    289.20457   -248.65647    132320.53   -42263.913    3530.1517   -45794.065   0.14877484 
  124800    292.01337   -51.251961    132156.79   -42270.453     3564.437    -45834.89   0.14443739 
  125000     290.9155    271.14141    131766.63    -42282.11    3551.0359   -45833.146   0.14076696 
  125200    294.67811    55.987414    131995.27   -42271.641     3596.964   -45868.605   0.14278711 
  125400    289.54337   -230.53614     132332.7   -42322.762    3534.2872   -45857.049   0.14637161 
  125600      291.151    14.800296    131998.49    -42333.93    3553.9106   -45887.841   0.14421477 
  125800    287.47744    266.93841    131718.15   -42307.464    3509.0696   -45816.533   0.14729978 
  126000    293.36891   -88.575095    132131.89   -42295.646    3580.9833   -45876.629   0.14159465 
  126200    288.86122   -286.85958     132356.7   -42267.271    3525.9606   -45793.231   0.14757329 
  126400    290.65169     148.8002    131901.75   -42298.768    3547.8158   -45846.584   0.14490823 
  126600    292.22702    214.41819    131763.62   -42308.204    3567.0449   -45875.249   0.14850486 
  126800      289.463   -154.72194       132228   -42289.271    3533.3061   -45822.577   0.15170167 
  127000     292.4745   -163.42297    132303.15   -42309.496    3570.0658   -45879.562   0.14564925 
  127200     286.3119    176.09648    131833.71   -42341.106    3494.8425   -45835.949   0.14774439 
  127400     285.6896    136.71399    131868.46   -42334.873    3487.2465    -45822.12   0.14996755 
  127600     285.4438   -197.23158    132326.38   -42330.324    3484.2461   -45814.571   0.14625773 
  127800    289.80433   -102.48275    132190.09   -42332.227    3537.4726     -45869.7   0.14654535 
  128000    291.32959    228.44859    131804.42   -42310.815    3556.0905   -45866.906    0.1449119 
  128200    290.17178    9.2987689    131997.18   -42279.364    3541.9577   -45821.322     0.150524 
  128400    290.70931   -174.40577    132272.21     -42311.2    3548.5192   -45859.719   0.14083108 
  128600    292.03643    59.583923    132014.96   -42329.155    3564.7185   -45893.873   0.14138161 
  128800    289.27393    192.25379    131794.24   -42385.866    3530.9983   -45916.864   0.14297315 
  129000    283.80684    25.086436    132013.54   -42403.237    3464.2647   -45867.502   0.14451161 
  129200    283.83039   -190.18933     132174.2   -42381.196    3464.5522   -45845.748    0.1475865 
  129400    286.56494    49.977152    131974.51   -42371.632    3497.9312   -45869.564   0.14128651 
  129600    285.64713    99.038814     131915.9   -42354.626     3486.728   -45841.354   0.14315039 
  129800     291.9452   -44.274171    132106.64   -42366.881    3563.6049   -45930.486   0.13934871 
  130000     288.2132   -69.192434    132116.84   -42389.032    3518.0506   -45907.082   0.14321582 
  130200    282.77053    65.956033    131919.32   -42390.753    3451.6151   -45842.368    0.1489054 
  130400    288.94178    92.450455    131912.33   -42387.182    3526.9439   -45914.125   0.14626025 
  130600    286.42613   -97.786655    132110.74   -42343.736    3496.2368   -45839.973   0.15037106 
  130800    292.81371   -63.860366    132097.52    -42363.83    3574.2063   -45938.036   0.14673436 
  131000    289.39268    113.77134    131889.93   -42387.646    3532.4478   -45920.094   0.14447816 
  131200    290.35827    33.291063    131945.84   -42356.216    3544.2341    -45900.45   0.14699959 
  131400    289.78624   -95.878529     132120.2   -42364.313    3537.2517   -45901.565   0.14891731 
  131600    287.81156    -9.238469    132014.93   -42350.336     3513.148   -45863.484   0.15332277 
  131800    291.01255    79.433037    131881.37   -42328.298    3552.2206   -45880.518   0.15391715 
  132000     292.5978   -8.0762672    132042.16   -42280.739    3571.5707    -45852.31   0.14820809 
  132200     294.9124   -142.82393    132157.66   -42298.654    3599.8238   -45898.478   0.14452499 
  132400     290.2303    65.646596    131961.13   -42305.697    3542.6721   -45848.369    0.1461981 
  132600    294.40885    124.82612    131891.95   -42266.739    3593.6772   -45860.416   0.14888073 
  132800    290.24944   -93.107511    132122.02     -42244.6    3542.9058   -45787.506   0.15573407 
  133000    293.04616   -93.117587    132174.63   -42232.139    3577.0437   -45809.183   0.14522834 
  133200    292.78862    114.51624     131988.8    -42205.63       3573.9    -45779.53   0.14100756 
  133400    296.19746    61.267443    132008.76   -42183.407    3615.5097   -45798.917   0.14173485 
  133600    296.48165   -99.559777    132214.09   -42187.519    3618.9787   -45806.497   0.14453548 
  133800    292.39856   -88.328534    132169.42   -42213.541    3569.1387    -45782.68   0.15293662 
  134000    298.84804    167.62536    131968.61   -42168.634    3647.8639   -45816.498   0.14527603 
  134200    289.40872    19.510723    132074.44   -42179.724    3532.6436   -45712.367   0.14798666 
  134400    291.03689   -133.67003    132263.75   -42169.528    3552.5177   -45722.046   0.15022092 
  134600    299.79694   -11.003769    132104.51   -42193.126    3659.4465   -45852.573    0.1464854 
  134800    292.83816    155.74833    131929.39    -42225.05    3574.5047   -45799.555    0.1508434 
  135000    287.70875   -74.092471    132134.71   -42295.149    3511.8931   -45807.042   0.14890506 
  135200    291.26037   -125.01346    132233.36    -42279.12    3555.2456   -45834.365   0.14637688 
  135400    290.62305    64.156177    131973.37   -42295.962    3547.4662   -45843.429   0.14773825 
  135600     295.8634    162.15697     131894.9   -42269.997    3611.4321   -45881.429   0.14097525 
  135800    288.73463    -140.0255    132202.38   -42343.795    3524.4153    -45868.21   0.14572112 
  136000    286.91962   -128.64918    132217.71   -42366.366    3502.2606   -45868.627   0.14376245 
  136200     287.7577    228.68615    131838.04   -42361.832    3512.4905   -45874.322    0.1403161 
  136400    289.03485    116.93885    131919.59   -42332.175      3528.08   -45860.255   0.14155689 
  136600    292.18668   -258.57544    132394.48   -42274.957    3566.5525   -45841.509   0.13819681 
  136800    287.78427    -118.3753    132195.24   -42287.062    3512.8148   -45799.876   0.14307695 
  137000    291.29599     342.7174    131653.77   -42293.915    3555.6803   -45849.596   0.14138166 
  137200    293.61629    37.895702    132003.37   -42320.854    3584.0029   -45904.857   0.14205903 
  137400    291.17878   -374.98463    132516.55    -42283.13    3554.2497   -45837.379   0.13980796 
  137600    294.02273    64.533568     132025.9   -42275.803    3588.9641   -45864.767   0.14042203 
  137800    292.69307    377.15416    131596.08   -42239.438    3572.7337   -45812.172   0.14913063 
  138000    291.96848   -114.57748     132200.2   -42263.034    3563.8891   -45826.923   0.14665373 
  138200    289.60477   -396.82041    132533.46   -42301.951    3535.0367   -45836.987   0.14899708 
  138400    292.55427    248.32699    131818.18   -42279.732    3571.0395   -45850.771   0.14818603 
  138600    292.78722    372.28642    131626.91    -42297.37    3573.8829   -45871.253    0.1464028 
  138800    295.49762   -261.71146    132386.42   -42230.248    3606.9672   -45837.215   0.14807942 
  139000     292.7053   -269.44178    132436.18   -42238.457     3572.883    -45811.34   0.14874231 
  139200    292.91359    324.79066    131714.41   -42235.973    3575.4254   -45811.398   0.15219207 
  139400    294.03015    181.39681    131834.07   -42265.974    3589.0547   -45855.029   0.14928675 
  139600    292.66044   -326.88287    132466.72   -42248.592    3572.3355   -45820.928   0.14821531 
  139800    300.68378   -112.78123    132236.43   -42205.473    3670.2717   -45875.745   0.14513697 
  140000    296.13956    318.67395    131718.42   -42186.418    3614.8031   -45801.221   0.14830796 
  140200    296.36342    23.785627    132038.46   -42221.571    3617.5355   -45839.106   0.14797446 
  140400    296.93122   -296.59186    132421.11   -42246.432    3624.4663   -45870.898   0.14763531 
  140600    291.44893    47.993653    132024.19   -42248.521    3557.5472   -45806.068   0.14742225 
  140800    294.15698    302.08696    131749.29   -42240.703    3590.6027   -45831.306   0.14425783 
  141000     292.0813   -89.834075    132180.12   -42281.739    3565.2662   -45847.005   0.14428548 
  141200    293.38768   -209.74844    132309.53   -42237.453    3581.2124   -45818.666   0.15043671 
  141400    291.89878    123.10067    131900.43   -42230.523    3563.0382   -45793.561   0.15116432 
  141600    294.45622    156.31172    131883.77   -42212.827    3594.2554   -45807.083   0.15057967 
  141800    291.72265   -220.11999    132287.44   -42274.334    3560.8883   -45835.222   0.15234546 
  142000     289.9377    -127.6073    132186.83   -42272.544    3539.1005   -45811.645   0.15305653 
  142200    283.84409     193.4767    131816.96   -42287.763    3464.7194   -45752.482   0.15267233 
  142400    288.08989    33.222391     131999.6   -42286.309    3516.5454   -45802.855   0.15468819 
  142600    291.38259   -167.92147    132318.41   -42257.007    3556.7375   -45813.744   0.15305315 
  142800    293.27895   -19.864028    132106.55   -42281.153    3579.8852   -45861.038   0.15129593 
  143000     294.8349    167.16471    131844.81   -42312.253    3598.8778   -45911.131   0.14757544 
  143200    293.04588    18.493725    132077.98   -42300.893    3577.0403   -45877.934   0.14537784 
  143400    292.67735   -200.94289    132287.72   -42278.417    3572.5418   -45850.959   0.15142753 
  143600    293.05785   -23.450349    132041.35   -42257.535    3577.1864   -45834.722   0.15377639 
  143800    296.83577    156.51617     131870.8   -42265.032    3623.3013   -45888.333   0.14879657 
  144000    292.10649   -63.840693    132124.31   -42247.407    3565.5737    -45812.98   0.15038504 
  144200    297.57963   -124.47167     132257.2   -42224.387    3632.3811   -45856.768   0.14580398 
  144400    292.10483    96.938271     131982.6   -42219.651    3565.5534   -45785.204   0.14967017 
  144600    291.62348    172.14647    131895.63   -42198.837    3559.6778   -45758.515   0.14993876 
  144800    292.65896   -124.93834    132206.41   -42183.271    3572.3174   -45755.589   0.15091432 
  145000    297.31694   -92.156887    132210.21   -42225.015    3629.1746    -45854.19    0.1435756 
  145200    291.34027    166.84223     131896.6   -42253.245    3556.2209   -45809.466    0.1460236 
  145400    295.88347    125.66253    131940.39   -42250.304    3611.6771   -45861.981   0.14636737 
  145600    285.73173   -210.18756    132254.11   -42271.129    3487.7607   -45758.889   0.15276439 
  145800    286.99448   -54.789928    132096.71   -42291.113    3503.1744   -45794.287   0.15084422 
  146000    288.26168    247.70872    131762.92   -42271.063    3518.6423   -45789.706   0.15137046 
  146200    289.21099    29.233165     132000.2    -42303.43      3530.23    -45833.66     0.150358 
  146400    290.93529    -213.5691    132298.99   -42256.346    3551.2775   -45807.624   0.15164332 
  146600    290.98242    79.999334    132015.52   -42207.905    3551.8528   -45759.758   0.15138521 
  146800    295.91426    227.70256       131779   -42172.463    3612.0529   -45784.516   0.15689674 
  147000     290.7222   -105.56594    132136.87   -42172.285    3548.6765   -45720.962   0.16151746 
  147200    296.46494   -167.73465    132301.79   -42148.392    3618.7748   -45767.167   0.15460618 
  147400    294.60007    153.29813    131905.42   -42201.864    3596.0114   -45797.875   0.14762949 
  147600     293.9879    158.34925    131856.11    -42231.57     3588.539   -45820.109   0.14658408 
  147800    288.23638   -227.36864    132270.18   -42272.484    3518.3335   -45790.817   0.15368812 
  148000      297.395   -98.252463     132195.4   -42238.485    3630.1275   -45868.612     0.148481 
  148200    290.97523    254.60823    131769.82   -42289.295     3551.765    -45841.06   0.14873624 
  148400    286.18676    114.03117    131901.41   -42312.092     3493.315   -45805.407   0.14642705 
  148600    293.89409   -207.96336    132297.13   -42283.952    3587.3939   -45871.346   0.14465745 
  148800    286.64566   -87.270751    132118.51   -42296.832    3498.9165   -45795.748   0.15273137 
  149000    287.22535    217.91991    131736.58   -42303.201    3505.9925   -45809.194   0.15291045 
  149200    289.85368    2.7023921    131967.19   -42324.132     3538.075   -45862.207   0.15427312 
  149400    289.45177   -236.15456    132302.27   -42342.758     3533.169   -45875.927   0.14873043 
  149600    292.63133   -5.7251478    132009.78   -42323.994    3571.9801   -45895.974   0.15013899 
  149800    291.81934    277.81173    131715.37   -42337.051    3562.0686   -45899.119   0.14988055 
  150000    285.97601   -44.290082    132070.27   -42279.843    3490.7425   -45770.586   0.15658249 
  150200    292.38805   -233.52705    132343.62   -42224.652    3569.0105   -45793.662   0.15652079 
  150400    292.49364    78.445639    131959.02   -42227.778    3570.2994   -45798.078   0.15561933 
  150600    290.28271    188.07228    131804.65   -42239.438    3543.3119    -45782.75   0.15369605 
  150800    286.92838    -135.7219    132210.37   -42230.121    3502.3675   -45732.489   0.15089369 
  151000    287.23411   -192.57082    132296.67   -42256.652    3506.0993   -45762.751   0.15115322 
  151200    291.72376    138.85063     131882.1   -42243.371    3560.9019   -45804.273   0.15557315 
  151400    294.75651    145.45361    131926.94   -42171.699    3597.9209    -45769.62   0.15378916 
  151600    293.21308   -284.08742    132384.72   -42155.298    3579.0811   -45734.379   0.15281402 
  151800    293.73849   -138.59792    132214.39   -42123.624    3585.4945   -45709.119   0.14991614 
  152000    302.98355     314.1499    131788.99   -42148.707    3698.3436   -45847.051   0.14254116 
  152200      294.716    38.254803    132021.61   -42169.499    3597.4265   -45766.925   0.15404053 
  152400    288.54736   -268.72396     132415.8   -42207.437    3522.1294   -45729.566   0.15527372 
  152600    295.37428   -19.040443    132103.64   -42197.793    3605.4616   -45803.254   0.14896407 
  152800    297.34204    307.29493    131724.96    -42138.36    3629.4809   -45767.841   0.14899957 
  153000    296.03071   -48.609449    132121.53   -42189.486    3613.4744    -45802.96   0.14740074 
  153200    297.85329   -256.92989    132412.63   -42131.335    3635.7215   -45767.056   0.15557339 
  153400    297.16931    84.776419    131984.62   -42179.134    3627.3725   -45806.507   0.15400523 
  153600     292.3868    269.15264    131765.12    -42219.16    3568.9952   -45788.155   0.15307586 
  153800    293.39458   -99.263101     132209.6   -42225.552    3581.2967   -45806.849   0.14986921 
  154000    293.60993   -201.67089    132306.51   -42258.259    3583.9253   -45842.185   0.15029926 
  154200    294.11233    193.78804    131849.06   -42211.435    3590.0578   -45801.493   0.15400647 
  154400    294.65555    176.30339    131835.97   -42193.981    3596.6886    -45790.67   0.15799505 
  154600    296.14946   -184.40906    132307.67   -42213.061    3614.9239   -45827.985   0.15087831 
  154800    294.25474    -130.5597    132227.64   -42243.401    3591.7961   -45835.197   0.14878167 
  155000    291.05071    261.04502     131753.5   -42215.843    3552.6864   -45768.529   0.14981597 
[...]
  163000    287.92673   -189.72932    132258.41   -42293.363    3514.5537   -45807.917   0.14652965 
  163200    291.73765    219.27713    131830.62   -42285.012    3561.0714   -45846.083   0.14205825 
  163400    285.28152    110.97205    131916.37   -42312.924    3482.2652   -45795.189    0.1461169 
  163600     290.1267    -232.5233    132369.54   -42279.158    3541.4075   -45820.565   0.14357111 
  163800    292.52512   -65.060195     132207.6   -42341.956    3570.6836   -45912.639   0.13734169 
  164000    291.00412    272.22304    131724.42   -42335.132    3552.1176    -45887.25   0.14391358 
  164200    288.18123    77.562206    131963.96   -42348.226    3517.6603   -45865.887    0.1455404 
  164400    296.15116   -293.59787    132448.33   -42301.688    3614.9447   -45916.632   0.14296863 
  164600     290.8244    -41.87501    132087.14    -42267.66    3549.9239   -45817.584   0.14531625 
  164800    291.56423    378.92046     131603.7   -42312.071    3558.9547   -45871.025   0.14229814 
  165000    287.63523   -74.599624    132103.32   -42301.083    3510.9956   -45812.078   0.15129813 
  165200    294.21928   -443.75761    132565.15   -42285.993    3591.3633   -45877.357   0.15318164 
  165400    292.68502    100.42169    131920.42   -42301.301    3572.6354   -45873.936   0.14647501 
  165600    288.53804     475.4985    131543.56   -42255.378    3522.0157   -45777.394   0.14653483 
  165800      290.259   -260.04859    132325.28   -42261.228    3543.0224    -45804.25   0.14681997 
  166000    296.84243   -354.93555    132515.04   -42223.186    3623.3825   -45846.568   0.14822736 
  166200    289.69253    336.27292    131667.47   -42267.619    3536.1078   -45803.727   0.14683715 
  166400    287.35771     293.3186    131666.85   -42261.841    3507.6081   -45769.449   0.15099008 
  166600     293.7633   -366.66199    132505.09   -42260.148    3585.7973   -45845.945   0.14766304 
  166800    286.57732   -205.74059    132317.73   -42322.154    3498.0823   -45820.236   0.14117934 
  167000     286.0509    369.31396    131569.85   -42310.006    3491.6566   -45801.662   0.15210379 
  167200    293.35618    170.72035     131859.2   -42275.607    3580.8279   -45856.435   0.14413793 
  167400     288.1462    -368.0711    132434.02   -42299.843    3517.2327   -45817.075   0.15022373 
  167600    288.60986   -47.410283    132053.71   -42296.535    3522.8924   -45819.427   0.14608035 
  167800     288.5741    336.30536    131638.05   -42339.813    3522.4558   -45862.269   0.14424715 
  168000    291.05174    8.7995918    132007.32   -42355.487     3552.699   -45908.186   0.14614891 
  168200    290.19271    -252.2659    132291.25   -42342.919    3542.2132   -45885.132   0.14769027 
  168400    289.96559    79.186445    131961.32    -42320.76     3539.441   -45860.201   0.15041613 
  168600    294.80061    173.93322    131805.44   -42279.914    3598.4593   -45878.373   0.15052171 
  168800    287.27044   -91.505544    132123.46   -42344.614    3506.5429   -45851.157    0.1462009 
  169000    287.07505   -86.642334    132184.18   -42335.446    3504.1578   -45839.604    0.1446583 
  169200    287.39748    104.46964    131905.87   -42317.289    3508.0935   -45825.382   0.14614513 
  169400    288.06623    119.40342    131915.24   -42333.962    3516.2566   -45850.219   0.15292627 
  169600    291.00911   -134.83813       132167   -42346.489    3552.1786   -45898.667   0.14719305 
  169800    288.15979   -33.279122     132087.7   -42343.591    3517.3986    -45860.99   0.14587882 
  170000    286.99768    147.58012    131853.09   -42381.909    3503.2134   -45885.122   0.14233352 
  170200      287.266    66.804573    131957.63   -42387.026    3506.4886   -45893.515   0.14128686 
  170400    287.79938   -165.53875    132166.53   -42374.553    3512.9993   -45887.552   0.15264192 
  170600     287.5368    7.4235139    132017.79    -42347.94    3509.7941   -45857.734   0.14760105 
  170800    291.26222    128.67203    131850.03   -42381.176    3555.2681   -45936.444   0.14542768 
  171000    290.82751   -21.424702    132049.44   -42364.884    3549.9619   -45914.846   0.14151252 
  171200     287.5075   -157.43539    132209.57   -42383.656    3509.4364   -45893.092   0.14191314 
  171400    283.03871    27.162056    131964.78   -42387.802    3454.8886   -45842.691   0.15059188 
  171600    289.52865    203.03009    131854.79    -42360.08    3534.1075   -45894.188   0.14267915 
  171800    288.71327   -102.75208    132184.09   -42330.646    3524.1546   -45854.801   0.14759481 
  172000    288.49253    -147.3692    132226.78   -42333.826    3521.4601   -45855.286   0.14847726 
  172200     290.5238    203.91082     131840.6    -42365.58    3546.2547   -45911.835   0.13922361 
  172400     291.0702    155.71161     131855.8   -42339.221    3552.9242   -45892.145   0.14773341 
  172600    288.15382   -189.74006    132270.41   -42304.978    3517.3258   -45822.304   0.14854292 
  172800    286.69921   -141.56376    132217.42   -42311.516    3499.5702   -45811.086   0.15177001 
  173000    290.87147    214.52363    131792.27   -42322.377    3550.4985   -45872.876   0.15027261 
  173200    287.09421    89.776133    131904.99   -42356.343    3504.3917   -45860.735   0.14676239 
  173400    288.80569   -247.91359     132278.9    -42357.24    3525.2827   -45882.523   0.14790648 
  173600      291.247   -27.343729    132051.05   -42311.326    3555.0824   -45866.409   0.14662573 
  173800    289.93598    268.76529    131730.74   -42301.803    3539.0795   -45840.883   0.15302788 
  174000    289.66055   -49.593119    132058.19   -42269.848    3535.7176   -45805.566   0.15650068 
  174200    287.21866   -287.96068    132352.23   -42256.256    3505.9107   -45762.166   0.15249306 
  174400    288.25591    81.918155    131927.44   -42245.661    3518.5719   -45764.233   0.15166449 
  174600    291.33802     282.6631    131699.31    -42249.48    3556.1935   -45805.673   0.14618218 
  174800    294.36488   -144.08532    132245.96   -42232.701    3593.1405   -45825.841   0.15169511 
  175000    290.93635   -294.18856    132401.28   -42262.746    3551.2904   -45814.036   0.15143037 
  175200    291.35859    272.37682    131746.02     -42265.3    3556.4444   -45821.745   0.14991426 
  175400    292.87114     246.6439    131703.27   -42282.371    3574.9073   -45857.278   0.15250106 
  175600    288.38506   -360.18611    132408.56   -42288.921    3520.1483   -45809.069   0.15174962 
  175800    293.88387    -193.2503    132255.61   -42260.811    3587.2691    -45848.08   0.15158576 
  176000    286.29996    403.16484    131506.12   -42267.261    3494.6967   -45761.957   0.15821697 
  176200    297.66777    131.39393    131873.86   -42218.379    3633.4569   -45851.835   0.15513354 
  176400     293.9574   -504.74206    132654.64   -42229.603    3588.1667    -45817.77   0.15446386 
  176600    293.90155   -27.346423    132068.08   -42219.508     3587.485   -45806.993   0.15275789 
  176800    291.40849    551.99038    131385.16   -42238.249    3557.0537   -45795.302   0.15439376 
  177000    294.33488   -52.382159    132117.89   -42233.355    3592.7744   -45826.129   0.15230981 
  177200    287.47329    -570.6115     132611.5   -42263.349    3509.0188   -45772.368   0.15886306 
  177400    286.74233    198.69333    131750.46   -42326.055    3500.0965   -45826.152    0.1549712 
  177600    292.16837    478.72818    131457.59   -42317.883    3566.3291   -45884.212   0.14431559 
  177800    292.06888   -256.76064    132266.73   -42282.305    3565.1146    -45847.42   0.15056198 
  178000    293.80311   -315.89555    132366.42   -42257.689    3586.2834   -45843.972    0.1496996 
  178200    296.55013    281.79193    131747.39   -42264.531    3619.8146   -45884.346   0.15293717 
  178400    294.59415     192.1007    131779.06    -42274.93    3595.9391   -45870.869   0.15335753 
  178600    292.25724   -201.74477    132243.12    -42258.44    3567.4138   -45825.854   0.15261903 
  178800    295.96421   -67.445089    132116.88   -42245.275    3612.6626   -45857.937   0.15078022 
  179000    292.18682    200.37389     131808.5    -42210.34    3566.5542   -45776.894   0.14974959 
  179200    297.06321    43.712046    131996.68   -42241.477    3626.0774   -45867.554   0.15194114 
  179400    291.32815   -164.14079    132240.72   -42228.087    3556.0729    -45784.16   0.15501551 
  179600    291.69644   -5.7248338    132068.43   -42233.384    3560.5685   -45793.952   0.15068792 
  179800    294.00012    128.84812    131897.48    -42249.09    3588.6881   -45837.778   0.15466703 
  180000    295.16865   -26.188568    132120.53   -42235.869    3602.9516   -45838.821   0.14701579 
  180200    297.26228   -134.47038    132253.86   -42185.669    3628.5074   -45814.176   0.15190922 
  180400    301.46684    101.53008    132020.88   -42163.737    3679.8301   -45843.568   0.15286009 
  180600    289.59719    90.076251    131951.19   -42209.622    3534.9441   -45744.566   0.15323074 
  180800    292.99776    -101.8075    132176.72   -42204.999    3576.4529   -45781.452   0.15509217 
  181000    297.64206   -63.297593    132217.34   -42241.506    3633.1432   -45874.649   0.14407403 
  181200     293.4076    71.188308    132018.46   -42225.399    3581.4555   -45806.855   0.15091442 
  181400    291.31493    79.754973    131977.63   -42265.219    3555.9115   -45821.131   0.15227044 
  181600    295.62901   -69.556635    132155.64   -42282.983     3608.571   -45891.554   0.14529076 
  181800    287.57949   -79.491279    132145.04   -42275.128    3510.3152   -45785.444   0.15054968 
  182000    296.09066    127.16207    131953.44   -42252.874    3614.2062    -45867.08    0.1412656 
  182200    292.49514    63.368366     132026.1   -42264.944    3570.3177   -45835.262    0.1493926 
  182400    289.38742   -110.53117     132218.8   -42273.204    3532.3835   -45805.588   0.15331793 
  182600    291.58951   -39.133769    132104.35   -42251.318    3559.2631   -45810.581    0.1518294 
  182800    290.79999    135.96097    131921.08   -42225.247    3549.6259   -45774.873   0.15147048 
  183000    297.64836    10.288651    132085.24   -42198.301    3633.2201   -45831.521   0.14453946 
  183200    293.02909   -158.67988    132253.76   -42187.858    3576.8353   -45764.693   0.15476081 
  183400    291.78985    45.413243    132035.16   -42196.075    3561.7087   -45757.784   0.15708133 
  183600    294.17516    151.50155     131880.9    -42232.65    3590.8248   -45823.475   0.15633695 
  183800    294.63441   -58.159932     132107.2   -42243.781    3596.4305   -45840.212    0.1547199 
  184000    291.27107   -141.97216    132217.48    -42272.72    3555.3762   -45828.096   0.14672356 
  184200    288.62885    84.717626    131929.23   -42313.305    3523.1241   -45836.429   0.15270506 
  184400    286.02309    162.16224    131861.35    -42298.68    3491.3172   -45789.997   0.15475926 
  184600    284.88202   -158.26696    132190.04   -42326.224    3477.3888   -45803.613   0.15424211 
  184800    292.95332   -66.991722    132168.58   -42307.217    3575.9104   -45883.127   0.14994276 
  185000    292.87696    165.43273     131812.3   -42306.911    3574.9784   -45881.889   0.15157438 
  185200    283.73349     79.50008    131934.52   -42348.824    3463.3693   -45812.193   0.14933893 
  185400    287.91759   -212.73297    132290.07   -42327.709    3514.4422   -45842.152   0.14788259 
  185600    291.47347   -7.8860984    132055.22   -42335.236    3557.8467   -45893.083   0.14887432 
  185800    290.06445    254.65684    131714.03   -42291.218    3540.6477   -45831.866   0.15597632 
  186000    295.48385   -57.797251     132049.2   -42287.252    3606.7991   -45894.051   0.15146009 
  186200    289.05473   -263.37298    132352.93   -42265.949    3528.3227   -45794.272   0.15275193 
  186400    294.14806    95.424738    131946.37   -42231.004    3590.4939   -45821.498   0.14878652 
  186600    295.34008    267.28431    131721.94   -42244.601    3605.0442   -45849.645   0.15423059 
  186800    288.26766   -144.18094     132173.3    -42270.47    3518.7153   -45789.185   0.15480625 
  187000    289.92767   -221.57569    132293.34   -42231.391     3538.978   -45770.369   0.15571369 
  187200    290.80457    154.11239    131831.65   -42263.522    3549.6819   -45813.203   0.15238343 
  187400    291.88423    207.56695    131813.96     -42247.9    3562.8607   -45810.761   0.15350456 
  187600    289.27045   -204.64578    132301.43   -42288.235    3530.9557   -45819.191    0.1501171 
  187800    286.20427   -157.69051    132181.04   -42288.908    3493.5287   -45782.437   0.15520291 
  188000    297.83798    290.50456    131698.22   -42260.798    3635.5347   -45896.333   0.14993335 
  188200     294.9207    130.57618    131918.37   -42234.375    3599.9251     -45834.3   0.14725973 
  188400    297.18555   -281.46554    132390.38   -42222.149    3627.5708    -45849.72   0.15327852 
  188600    292.32172   -79.260778    132101.53   -42230.306    3568.2009   -45798.507   0.15491076 
  188800    292.31675    284.06174    131674.75   -42239.681    3568.1402   -45807.821   0.15739112 
  189000    296.25421    28.320808    132034.08   -42240.969    3616.2024   -45857.172   0.14869166 
  189200    291.83518   -307.17618    132394.93   -42241.076     3562.262   -45803.338   0.15435255 
  189400    287.45378    63.265608    131964.07   -42230.623    3508.7807   -45739.403   0.15310757 
  189600    295.38553    299.07454     131712.4   -42224.376     3605.599   -45829.975   0.14849113 
  189800    292.01301   -139.65716    132193.17   -42266.751    3564.4326   -45831.183   0.14896437 
  190000    294.30905   -229.14144    132295.01   -42288.257     3592.459   -45880.716   0.14660292 
  190200    289.62002    183.13455    131795.29   -42267.602    3535.2228   -45802.825   0.15084165 
  190400    287.47064     130.9439    131788.63   -42272.587    3508.9866   -45781.573   0.15492976 
  190600    296.97774   -182.96838    132248.83    -42224.83    3625.0341   -45849.864   0.14730259 
  190800    291.31178   -98.976156    132178.68   -42217.613    3555.8731   -45773.486   0.15135203 
  191000    290.44323    199.13952    131776.48   -42259.392    3545.2712   -45804.663   0.14747268 
  191200    291.94399     69.21251    131922.78   -42269.496    3563.5901   -45833.086    0.1487697 
  191400    296.48864    -192.2962    132297.96   -42279.353    3619.0641   -45898.417   0.14383695 
  191600    293.88815   -39.568923    132081.53    -42224.57    3587.3213   -45811.891   0.14869263 
  191800    295.40449    255.44215    131771.31   -42261.136    3605.8304   -45866.966   0.15025311 
  192000    289.91476   -40.106523    132058.02   -42275.304    3538.8205   -45814.124   0.15548091 
  192200    291.05771   -207.23091    132333.16    -42239.22    3552.7718   -45791.992   0.15096498 
  192400    289.15831    61.405066     132028.1   -42242.476     3529.587   -45772.063   0.14375121 
  192600    288.59635    182.11001    131851.02   -42283.453    3522.7274   -45806.181   0.14557724 
  192800    293.26595   -105.24817    132178.63    -42260.49    3579.7265   -45840.217   0.15151575 
  193000    294.47772   -190.06589    132288.18   -42251.279    3594.5179   -45845.797    0.1516462 
  193200     294.6681    114.52697    131972.77   -42222.376    3596.8418   -45819.218   0.15030932 
  193400    293.66183     156.8616    131930.07   -42208.573    3584.5588   -45793.132   0.14289373 
  193600    297.75211   -158.47341    132264.79   -42232.925    3634.4865   -45867.412   0.14420933 
  193800    290.98257   -119.74582    132219.75   -42256.612    3551.8546   -45808.466   0.14695291 
  194000    293.81324    149.24722    131877.41    -42295.36    3586.4069   -45881.767   0.14182714 
  194200    293.02419    67.090933    131956.76   -42269.977    3576.7755   -45846.752   0.14799591 
  194400    291.82231    -121.6696    132224.89   -42262.937    3562.1048   -45825.042   0.14481899 
  194600    289.75313   -65.829346    132090.44   -42263.901    3536.8475   -45800.749   0.15088471 
  194800    291.73418    149.19544    131872.91   -42269.322     3561.029   -45830.351   0.14369845 
  195000    295.82741    32.174128    132030.08   -42248.816    3610.9928   -45859.808   0.14212541 
  195200    294.06141   -149.00384    132199.52   -42218.518    3589.4363   -45807.954   0.14986364 
  195400    294.96712    59.462019    132036.26   -42240.153    3600.4917   -45840.645    0.1488583 
  195600    291.82877    107.57917     131939.5       -42247    3562.1837   -45809.183   0.15393207 
  195800    286.90389   -67.091731    132123.56   -42284.501    3502.0685   -45786.569    0.1514528 
  196000    288.48761   -118.15647    132159.74   -42268.065    3521.4002   -45789.465    0.1456267 
  196200    291.33709    52.979315    131978.23   -42231.363    3556.1821   -45787.546   0.14949658 
  196400    293.67762    58.681233    132016.21   -42255.422    3584.7515   -45840.174   0.14240606 
  196600    289.94032    -150.1651    132179.82   -42302.154    3539.1324   -45841.286   0.14748835 
  196800     293.4952    37.258388    132073.52   -42289.131    3582.5248   -45871.655   0.13915616 
  197000    296.22339    142.57039    131960.24    -42297.15    3615.8263   -45912.976   0.13925041 
  197200      286.151   -60.128282    132093.02   -42334.725    3492.8785   -45827.603    0.1510348 
  197400    292.68864   -63.938044    132143.66   -42328.737    3572.6796   -45901.417   0.13804127 
  197600    291.92692    113.23175    132012.27   -42260.619    3563.3817   -45824.001   0.13602648 
  197800     296.3594    84.466451    132022.07   -42227.788    3617.4864   -45845.274   0.14139958 
  198000    290.16729   -65.305642    132139.49   -42251.997    3541.9029     -45793.9   0.14879694 
  198200    291.96039   -46.820536    132075.17    -42276.97    3563.7904   -45840.761    0.1508096 
  198400    290.22912    124.08626    131956.87   -42214.719    3542.6577   -45757.377   0.14555694 
  198600    294.76248    2.4483769    132075.77   -42192.284    3597.9937   -45790.278   0.14629476 
  198800    291.08441   -136.68516    132164.17   -42228.751    3553.0977   -45781.849   0.14835668 
  199000     292.9144    34.915324    131982.18   -42218.039    3575.4354   -45793.474    0.1529561 
  199200    294.76139    108.76092    131925.51   -42226.623    3597.9804   -45824.603   0.14970933 
  199400    294.70043   -91.176245    132131.39   -42233.993    3597.2363    -45831.23   0.14738033 
  199600    293.67953   -40.009161    132124.92   -42257.761    3584.7749   -45842.536   0.14707702 
  199800    290.17691    159.69746    131877.35   -42236.188    3542.0204   -45778.208   0.14622739 
  200000    294.86789    72.229569    131963.64   -42241.593    3599.2804   -45840.873    0.1479427 
Loop time of 113.032 on 6 procs for 200000 steps with 4096 atoms

Performance: 764.388 ns/day, 0.031 hours/ns, 1769.416 timesteps/s
97.8% CPU use with 6 MPI tasks x no OpenMP threads

MPI task timing breakdown:
Section |  min time  |  avg time  |  max time  |%varavg| %total
---------------------------------------------------------------
Pair    | 68.962     | 71.661     | 73.304     |  17.6 | 63.40
Neigh   | 11.465     | 11.695     | 11.993     |   6.3 | 10.35
Comm    | 17.009     | 18.895     | 21.756     |  37.6 | 16.72
Output  | 3.0987     | 3.1004     | 3.1071     |   0.2 |  2.74
Modify  | 6.0464     | 6.0608     | 6.0916     |   0.6 |  5.36
Other   |            | 1.619      |            |       |  1.43

Nlocal:        682.667 ave         705 max         664 min
Histogram: 2 0 0 1 1 0 0 0 1 1
Nghost:        1382.67 ave        1420 max        1355 min
Histogram: 2 0 1 1 0 0 0 0 0 2
Neighs:        0.00000 ave           0 max           0 min
Histogram: 6 0 0 0 0 0 0 0 0 0
FullNghs:      19482.3 ave       20131 max       18913 min
Histogram: 2 0 0 1 1 0 0 0 1 1

Total # of neighbors = 116894
Ave neighs/atom = 28.538574
Neighbor list builds = 12443
Dangerous builds = 0

Total wall time: 0:02:47
