LAMMPS data file via write_data, version 29 Oct 2020, timestep = 800000

4175 atoms
1 atom types

-0.5362897013228576 50.536289701324385 xlo xhi
-0.5362897013228576 50.536289701324385 ylo yhi
-0.5362897013228576 50.536289701324385 zlo zhi

Masses

1 18.015

Atoms # atomic

4144 1 38.16414034541924 0.03276726817437958 4.541371060759531 0 1 1
401 1 36.09035139193858 2.4367098273063665 0.5888556763269488 0 0 0
446 1 5.429737888565216 1.0607134687928204 0.6062209674156256 0 0 0
3753 1 6.080572791445437 2.932060697623738 2.43985645906614 0 1 1
125 1 3.558985851484076 24.705707525867965 8.939649542227059 1 0 0
3594 1 9.55208989110703 15.986115408388908 -0.4365041020882564 1 0 1
2496 1 12.902499660877321 0.465700444444741 0.9269818319405567 0 1 0
1195 1 14.731792809325894 2.303127595130532 1.6871205557542073 1 0 0
686 1 21.088489125065315 0.5741502372411857 2.6225407077453187 0 0 0
1732 1 5.515133176517357 24.64992495761114 1.5200555045988438 0 0 1
319 1 27.610147334652044 0.35322249897541647 1.164388099219341 0 0 0
1906 1 32.43512658575215 1.678043737016587 0.6099539776846323 0 0 1
2581 1 13.980688580690845 24.86196452111639 12.76001443944804 0 0 0
3160 1 0.091022126006989 -0.5142186966378111 12.733864285965094 0 1 0
2343 1 38.34538042660356 2.096425212011772 2.7146282170489617 -1 1 0
2647 1 40.991355491168 2.3773257136834918 2.0174189204170743 0 0 0
1618 1 20.074109195085153 19.77333266831537 0.0505858384442065 0 0 1
1932 1 45.43601157515085 0.6312021210573158 0.6905584849423867 0 0 1
1633 1 14.043128899162992 0.013098683922032284 9.6769103828023 0 0 1
2638 1 1.668802163801518 3.9349658945232866 1.8801842364586543 1 1 0
4142 1 37.35868461306351 5.360018539839592 -0.30483267067403275 -1 0 1
38 1 8.464096532751958 3.656387833796276 1.4045524761913757 0 0 0
588 1 14.222455015289526 5.095636201925935 1.8659024512214457 0 0 0
295 1 27.111322695164482 3.063134321654944 1.8730645465913232 0 0 0
3828 1 30.37592592944772 5.876601117455165 1.080907480057809 0 1 1
1423 1 33.76272671720903 3.7880077665642666 0.20804300094152994 0 0 1
1463 1 33.049095032152564 6.082146171076688 1.704948108022752 0 0 1
1814 1 39.57178920613175 14.500105672156952 0.369293283530727 0 0 1
1888 1 41.838753741603405 5.0734121432281745 2.4265857457592515 0 0 1
2428 1 44.6168646943962 5.636272076751185 1.6944532212344035 0 0 0
249 1 45.72358335796079 3.3726266477255122 0.6103891552551755 0 0 0
3546 1 48.16361208696089 3.3164360308038865 1.5058680294074236 -1 1 1
1764 1 1.6229842625080884 8.082914134603836 1.1637336581076623 1 0 1
1954 1 0.22886235896932694 6.0299651372295004 3.1225061430934233 1 0 1
1772 1 5.105453239008292 6.592440778269232 0.923948305340555 1 0 1
2539 1 7.910881848253144 6.5232978588390615 1.4455407645023914 0 1 0
2421 1 13.807026230759623 8.380124572999234 2.631417494647791 1 1 0
1074 1 33.58896584401215 -0.0692563938794929 4.438566965411498 0 0 0
666 1 49.16572407803223 13.38067066111435 0.11594689257543278 0 0 0
2665 1 18.207289322911347 6.4528275406399205 0.5739208317601006 0 1 0
1751 1 21.010513767158592 6.511519159288215 0.6865600655709052 0 0 1
3715 1 26.35301901038893 6.510669128503481 1.4234473165649961 0 1 1
1875 1 41.02039731681343 0.7938807498588492 -0.39674591288567185 -1 0 1
637 1 30.48547688791207 8.699612872580325 1.2229963929268248 0 0 0
1065 1 35.41001412051018 7.579668528983367 0.8938308995556248 0 0 0
1534 1 39.75333907640428 6.725226518693152 1.2167894020550727 0 0 1
1585 1 44.31511572619497 7.830027907516248 0.03964622644643667 0 0 1
502 1 49.1535378984534 5.853490515286552 1.6527229538722947 -1 0 0
3155 1 -0.4905187158405576 9.932758889338585 1.5633007141947268 1 1 0
4 1 4.193739738309957 9.151838925222046 1.274856410666609 0 0 0
2313 1 9.052055781035843 11.464415840671146 2.4593166909930435 0 1 0
360 1 26.564843495148793 23.946230184398416 12.209478973377882 0 0 0
783 1 11.97629626395273 10.60743150582308 1.7511194971389195 1 0 0
3756 1 16.557067556329613 10.646439001858333 0.5521803935207923 0 0 1
615 1 22.674981422037146 8.97913962054008 0.29946182571946134 0 0 0
1916 1 21.240519828281595 10.946651102239528 1.7002593444625465 0 0 1
1780 1 26.41842229850505 10.933298238403058 0.6502197293914247 0 0 1
461 1 33.60429944613047 11.062518540890833 2.1989241810289784 0 0 0
1710 1 -0.15088613083578212 24.1955746032107 1.033269924455268 1 0 1
698 1 35.809013699931704 9.493919709755883 2.864350673678643 0 0 0
2404 1 38.01216406471339 10.985704333310235 2.232359019078333 0 0 0
284 1 40.06910872779349 9.403975826714158 0.8632690222174317 -1 0 0
1613 1 27.152999958914517 4.466899084535993 -0.28558887993298726 0 0 1
583 1 42.62732625127599 9.839358978638852 0.8824522426642221 0 0 0
2489 1 47.76122135558808 9.92072791872084 1.302704035538546 0 0 0
275 1 2.4714244876524285 14.73118672260648 0.1563739996436555 1 0 0
1434 1 6.124818048103577 14.021968549724903 0.06122602091104179 1 0 1
2374 1 8.478962162966056 12.464098208789386 0.24625207803196258 0 0 0
3563 1 13.09193214238477 14.778489810492443 1.8569261143862597 0 0 1
1918 1 1.381999306970972 -0.14927060617873333 1.9281105329487511 0 0 1
2635 1 39.2051248038046 24.80865947099501 15.781568250819006 0 0 0
363 1 17.066931920657314 14.869431788780066 2.591931113701655 0 0 0
136 1 22.57442515172036 13.368197569433834 2.4555609169991213 0 0 0
898 1 24.9932876088672 13.300130653627482 1.071553659504886 0 0 0
900 1 27.295947440102786 14.770269753482548 1.5868591311560065 0 0 0
553 1 29.724174265225376 13.862947714763015 0.7845145690378474 0 0 0
3521 1 9.452931746912055 21.536205463684265 -0.0037846115856390306 0 1 1
675 1 37.2363643278631 13.247040222851975 1.062271429778467 0 0 0
1892 1 35.93989534647536 15.027651952078907 3.083326803981932 0 0 1
541 1 7.59986792086505 -0.2241344075691874 -0.0468417707353595 0 0 0
101 1 42.11576175349881 13.816206056329477 1.7059456888881703 0 0 0
3840 1 44.0353469138602 15.94961801142874 1.911625519010261 -1 0 1
2795 1 46.65273429483069 12.459842937222815 0.9360234601976121 0 0 0
3548 1 17.588895116727258 15.151388672479088 -0.26996593781558664 0 1 1
2026 1 50.09401983457754 15.460198130944688 1.4440128920740278 -1 0 1
2995 1 4.489479931356706 16.495217657307045 1.1626375077269846 0 0 0
2881 1 33.08600486925426 24.84920272639532 6.299660791977779 0 0 1
614 1 10.691134589566092 15.839710752758794 1.9482419927730397 1 0 0
1440 1 2.3558732448779303 24.99499135298365 14.278663380166593 0 0 1
2914 1 15.420072750186272 18.175212809374138 1.1347506200000088 1 0 1
2618 1 27.27323940413508 21.928458029703176 14.209296454269285 0 0 0
1550 1 21.250663609581594 15.713306551849254 1.6659880432592677 0 0 1
617 1 23.458517052277834 17.533955385715615 1.6001233136862343 0 0 0
1746 1 27.398739399775994 17.074552137871457 0.05505830530683187 0 0 1
3495 1 32.34388899960035 17.36415773820038 0.9838600386215304 0 0 1
1105 1 35.08187149343863 17.222217753988826 1.653886142164362 0 0 0
922 1 41.8632368373283 24.322241103904396 9.550059701594538 -1 0 0
1540 1 39.760954015048846 17.203168252638925 0.6750860823677354 0 0 1
539 1 41.45242710349294 16.77670005900787 3.041086290906071 0 0 0
377 1 44.877686123426265 18.870973257187906 1.4629379076876685 -1 0 0
3168 1 2.0117881968063487 20.439416017372942 1.1453673321479427 0 0 0
3067 1 4.377075355825419 20.418009698328298 2.475820893705609 0 1 1
4169 1 6.86242894511203 19.242972683077927 0.9279680335910065 0 0 1
457 1 8.554171685885512 19.264482833701926 2.8822377238926173 0 0 0
2380 1 47.26425901320689 16.483449222106863 16.37852567917312 -1 1 0
3681 1 13.431640048859487 19.964407119864365 1.8652422217696496 0 0 1
1506 1 17.761807757971223 19.64682899146138 1.3811563700454579 0 0 1
297 1 6.9729986929564545 16.7951739454144 -0.21137396639805878 0 0 0
172 1 22.57866402833155 19.866591554471256 1.4011891000455061 0 0 0
368 1 29.250392251100315 -0.3383730234024263 3.273516601112807 0 0 0
1945 1 27.817189025813594 19.507313835921366 1.0227571465923015 0 0 1
2006 1 30.676373560503563 19.60666062103019 1.0129151601010022 0 0 1
587 1 31.516727935820775 21.96202168634492 2.257893585347086 0 0 0
307 1 35.80777167330294 20.13507796328644 2.0944281443464794 0 0 0
2585 1 38.47742948777765 19.92184709080211 0.5037354090556403 0 0 0
681 1 40.67775930111357 21.42607766079518 0.21030961260366232 0 0 0
2320 1 47.75034902322452 -0.15778249540460682 8.472036184922981 0 1 0
2383 1 28.84878589260755 24.959086626621463 3.3204007577500705 0 0 0
4016 1 45.023241638710054 19.287552541808157 4.16915502501385 -1 0 1
150 1 49.252885771923836 18.012013826613995 1.9894790046213129 -1 -1 0
3374 1 46.99266230473112 21.581032420161034 -0.29280789823965603 0 0 0
1972 1 33.695478493957076 -0.3256295523975874 0.007853995750478848 0 0 1
1363 1 25.561724065398273 15.570185248941105 14.701669865932505 0 0 0
3538 1 9.526471611516026 23.267784293422423 2.2022756095487024 0 0 1
2066 1 1.4464175801248875 22.61520451663628 -0.5268643109575165 0 0 1
2668 1 15.20099954414343 23.435881598638467 0.8717338422146477 0 0 0
63 1 17.61378568137834 22.275477081318208 1.103575411634629 1 0 0
1603 1 23.3233406576316 22.961183740302626 1.3794657488761506 0 0 1
3617 1 25.793163803791877 24.186099143269615 0.6023080037745054 0 0 1
516 1 30.513455086778194 24.233257349362518 1.072873449908572 0 0 0
1921 1 33.894137634734825 22.247804817580036 1.215903277505595 0 0 1
2273 1 28.92505663028625 24.514508648802213 8.197750249880997 0 0 0
602 1 41.54190515468601 24.347954891087426 2.923616396314267 -1 0 0
311 1 47.366376603675945 22.498793748339406 2.2297037177240333 -1 0 0
216 1 1.3414490551485492 1.5396579921218443 4.095567689896229 0 0 0
1180 1 2.718449407689136 0.604692671826857 6.24866527428489 1 0 0
486 1 6.211101494488156 1.4804725771316085 4.8430037677642055 0 0 0
1985 1 11.206595539076572 0.34574313805668677 2.790019454316131 0 0 1
321 1 14.45662057616583 1.2103090974193005 5.655256292812888 0 0 0
379 1 16.37009600316958 1.4436008998288379 3.6864394097818325 0 0 0
2524 1 23.66534445092003 0.10200328394832003 2.933990950285492 0 1 0
532 1 25.07621756572482 2.5015760383836767 3.5931735169198573 0 0 0
537 1 26.48084700871895 2.105486203606155 5.863240196834605 0 0 0
945 1 44.19504239609387 0.3371651273950471 13.876564472680714 0 0 0
3799 1 31.672563692644957 1.2397013182384855 3.1733013999346924 0 1 1
523 1 40.829023657882125 18.467539145355218 15.192763643642417 0 0 0
273 1 41.93479685815121 0.6147276431574509 4.020503996038862 0 0 0
3988 1 42.485213636141644 0.9037813329601216 6.685934130535142 0 1 1
2130 1 49.824460396015844 0.45452371483675846 4.628756451947915 0 1 0
521 1 4.181813386686428 4.799455948211211 2.8995596450645773 0 0 0
627 1 8.365473980694086 2.9852629601825775 5.601598123798859 0 0 0
5 1 10.152296305319226 2.908126641936184 3.3294278003398543 0 0 0
388 1 12.321578639717151 4.728327695337218 3.716259152662662 1 0 0
426 1 17.869722444920505 3.6224477292065167 3.9807453040743823 0 0 0
2183 1 20.517713903587975 3.1322027407301034 3.864202072930463 0 1 0
1898 1 24.348444526285192 5.118103346629667 3.2001317034179717 0 0 1
691 1 28.797508686083276 4.823782595684842 3.265389037344312 0 0 0
712 1 31.07127788187484 3.7635256528772256 4.537415649242535 0 0 0
2082 1 33.36132668356815 5.154316806376362 4.318831911033919 0 0 1
10 1 37.50971048372575 4.185062025792791 4.104728685648906 0 0 0
88 1 35.202591745844394 3.7435049348526404 5.674376209599052 0 0 0
1902 1 39.426450151709275 4.754331440672583 5.989368582355892 -1 1 1
2 1 41.73081407081062 5.766687912098745 4.978030158051674 0 0 0
219 1 46.592652952927025 5.270196478505246 5.714041048291646 -1 0 0
833 1 -0.17837562217675695 3.8837927673563275 5.106767043108985 1 0 0
3951 1 48.213188167249 3.0571303245251635 4.7002989189311 0 1 1
12 1 0.5484444866146234 8.017955492948794 5.039583759430546 0 0 0
629 1 4.723430135331466 5.637490367709929 5.58041890291087 1 0 0
839 1 7.5431810710282114 5.697440569908563 5.900308894834537 0 0 0
1147 1 8.819040259193153 7.3073067716787925 3.9100774012921073 0 0 0
2436 1 11.859346149428516 7.286441508305257 3.981471316800299 0 1 0
282 1 16.793113490740456 5.683530398972303 2.698499813798878 0 0 0
1718 1 16.14976066434196 8.280819775060555 4.086568598155421 0 0 1
2076 1 21.604367757954662 5.629421961026542 3.3772778976064535 0 0 1
1548 1 21.088373345813444 7.746701448501126 5.290786398982084 0 0 0
138 1 24.65135042293088 6.235390078232177 5.480432203653084 0 0 0
459 1 28.271502039407718 7.855308374191663 2.760524487763858 0 0 0
95 1 27.4517938696165 6.508592480262421 5.555469965718684 0 0 0
1156 1 31.034769481869866 9.449931266383713 6.038010981713424 0 0 0
1804 1 37.49059329066263 6.5076448409172984 2.885264334071625 0 0 1
175 1 38.46470554651594 8.22360086367962 4.833154960335214 0 0 0
1238 1 41.55592395095973 8.364693865840234 5.139679450989802 -1 0 0
2583 1 46.86890728250724 6.4818306918688435 3.028150740180928 -1 1 0
281 1 0.596751849280883 10.707497663351393 4.261643589183273 1 0 0
1776 1 4.9899399922558825 9.811489031937983 5.065435434384713 1 0 1
2409 1 3.2363501884515045 11.972987115831092 5.286030632428614 0 0 0
55 1 5.9840688999855685 10.711463803198356 2.637360066235217 0 0 0
2420 1 8.999389471299331 9.732086658940233 5.094578940437509 0 0 0
16 1 17.355525282366887 10.478927674331407 3.2103900525892435 0 0 0
2034 1 20.05231438858775 10.51535341946927 4.446935738790422 0 0 1
2793 1 20.97493256198607 12.524648779202321 6.129367984200741 0 1 0
317 1 25.214084186252265 10.836872357021122 5.153362814336216 0 0 0
1975 1 27.192182088637384 10.425339123356684 3.15933597687774 0 0 1
2751 1 29.47004471724049 12.437426862571149 3.254715618285936 0 1 0
432 1 31.302569834784453 10.293874022460642 3.295965306461463 1 0 0
1094 1 36.168975570337295 9.821329897937915 5.679795278644589 0 0 0
1656 1 39.44054489886792 11.09493566739865 4.651928090872192 0 0 1
645 1 43.40869300125041 9.824475969760774 3.5171162002873357 0 0 0
4077 1 45.17722778112263 12.299542513675139 3.7581255380728686 0 1 1
1411 1 46.29005198538583 9.10919094778188 3.4626804373187863 0 0 1
372 1 47.53632503750484 10.081217929095963 5.856075062244196 0 0 0
183 1 49.9190249823334 11.836883811524183 5.867596710188538 0 0 0
4003 1 2.07305564113568 13.151379877523377 2.481601009000597 1 1 1
3794 1 5.066044426617624 13.19569112335435 2.482254798554609 0 1 1
3551 1 5.309979704646993 13.642199005491708 6.122908616405623 1 0 1
3170 1 6.696697089003755 14.689331332404828 4.093138269562744 0 1 0
289 1 9.247521269707391 13.913171432527406 3.74482802382059 0 0 0
3890 1 10.921343775503777 14.863921966156042 5.84635061069315 0 0 1
3933 1 13.582338617875758 12.507087319239155 3.354194081463213 0 0 1
1984 1 12.664105534686382 12.501731279108526 5.880353982695816 0 0 1
2055 1 16.214542183884035 12.648661749411806 4.346646089018678 0 0 1
1692 1 19.435117413133817 14.834235687800732 5.906343709959072 0 0 1
1637 1 23.771947178365146 13.000300834179104 5.070020709264275 0 0 1
1816 1 25.06050873150999 15.131301241161479 5.799422147932546 0 0 1
972 1 28.738837721771965 13.12024882277478 5.994943135348088 0 0 0
2406 1 27.424192352492668 15.024027240517281 4.313095186656756 0 1 0
1252 1 31.695194257512718 14.013513065723323 4.662481975555891 0 0 0
1314 1 34.20962413151889 13.027052522896952 4.029211819923325 0 0 1
413 1 37.74432379204072 12.479839247229592 6.371157198417018 0 0 0
4025 1 38.05392151923609 14.886392221311642 4.845294489703885 -1 0 1
256 1 41.938278725283034 12.605980651697147 4.291654529996095 0 0 0
3657 1 40.74785341764681 15.13387805410496 5.1210184892872 -1 0 1
433 1 46.52582417341219 14.929601455435302 2.7611998706528467 0 0 0
380 1 49.830471048871175 14.521860861217329 5.682920162835297 -1 0 0
1845 1 0.6866617445393515 15.10071908036447 3.6540561545121992 1 0 1
1646 1 2.2922305473390443 16.78178027432862 4.653254762497323 1 0 1
447 1 4.581661696647004 17.75680923691628 3.5804255687617834 0 0 0
1792 1 7.2062915060044 17.496684544174457 4.620873162408014 0 0 1
3942 1 11.262026452972759 18.34403858970409 3.0325320912648484 0 0 1
2031 1 14.935978528169695 16.3538206369957 3.0721772811146155 0 0 1
1822 1 15.539309369817605 16.672198256069176 5.762151509040096 0 0 1
1565 1 19.31122653354892 16.133507022728114 3.442490779233878 0 0 1
1337 1 25.024831450539732 17.408371541936425 4.016015860801601 0 0 1
530 1 28.96703800123933 17.381431478458698 5.208327676503135 0 0 0
40 1 31.575603698500238 16.750566741819394 3.6981697042419874 0 0 0
361 1 33.123387820831745 17.875265384691637 5.590690533282644 0 0 0
1847 1 35.81631190213039 17.607829282153535 4.7262507251365085 -1 0 1
950 1 46.8647584657433 14.781209587253002 5.887688274253581 -1 0 0
304 1 47.24234115473907 17.617853003675226 3.8506346406233387 0 0 0
4084 1 -0.02022025486758061 19.993065716485283 2.7826307636827186 1 0 1
3073 1 1.499735573808275 19.267792042088338 5.029269684372924 0 0 0
3745 1 17.166222635602644 18.96906121188652 5.5133687659097 0 0 1
2175 1 15.973042675842905 21.46213104154319 4.991919208253865 0 0 0
2253 1 19.16770668356607 19.006114409414398 3.6938681850724935 0 0 0
376 1 21.602485720482 19.613085911441416 4.142023860336917 0 0 0
1672 1 23.54412674118452 18.520906935374608 6.150663566513248 0 0 1
2304 1 27.048821140898276 19.249075489207762 3.8448646307057626 0 0 0
1544 1 26.982389516596587 21.961255888497174 5.027279205834562 0 0 1
1567 1 36.69265390511579 20.380912946559288 4.853675659102645 0 0 1
1455 1 41.0131474346432 21.62763820226851 2.858528705270269 -1 0 1
255 1 39.18986700708162 21.662695618326985 5.195811296678981 0 0 0
584 1 42.29037762267135 19.275024611508638 4.348265716705254 -1 0 0
1217 1 46.06328798148027 21.789388095110734 4.462944756144163 0 0 0
3984 1 48.510671745044355 18.07540971538547 6.321322815122467 -1 0 1
579 1 2.1971766511008735 24.06319531989804 4.473910757224585 1 0 0
2802 1 3.439322370058306 21.300022454130424 5.645760554293503 0 0 0
2228 1 8.037343818368688 21.843295155184975 3.8872653790062692 0 0 0
861 1 5.314701976343897 22.91405369977943 3.756239074431986 1 0 0
706 1 11.101605398704299 24.188594897898575 6.117721638975052 0 0 0
707 1 9.307135613063293 22.105161001875636 6.338097041746463 1 0 0
3957 1 11.961163313267592 23.777506223810022 3.450050441916194 0 0 1
3048 1 14.163830361974945 22.351209354691846 3.1502219406549963 0 0 0
1582 1 18.260100890792504 22.563129528214056 3.760360728184091 0 0 1
3863 1 20.941785142722125 22.221802226341325 5.024245313288735 0 0 1
1823 1 22.512007942362413 23.76722310739945 3.7334412052763426 0 0 1
329 1 25.115991275549263 24.18077334840282 4.597697366526423 0 0 0
2664 1 47.899152451003204 5.598505434185612 16.039031801615028 0 1 0
1886 1 29.22577832750905 23.44210578797251 5.677166943847037 0 0 1
968 1 31.70942639276712 22.773062100401297 5.001012342416189 0 0 0
3545 1 34.65861870898627 24.26847737501759 2.8794441265477535 0 0 1
2683 1 49.72644609062106 21.292867430755262 15.110411550013644 0 0 0
2710 1 35.47046163365482 22.986744892948447 5.3557362550801715 0 0 0
230 1 38.409687053931236 24.42518592555788 5.797839352217582 0 0 0
69 1 42.91296081868635 21.72399242318536 14.048372337734436 0 0 0
2180 1 50.01898371276888 22.734952319917888 3.138000139358463 0 0 0
274 1 50.4676323406487 24.141982926932197 5.6366711647088605 0 0 0
2723 1 0.7331698630664714 0.39894726249059775 8.151086793963094 0 1 0
80 1 4.728434646238748 1.8753505705056046 7.083836668767856 0 0 0
526 1 6.094684138755109 0.6898501399056318 9.366860938143136 0 0 0
3316 1 9.7440328622397 1.9488854769992008 7.782739570200551 0 1 0
3009 1 29.079595984892048 23.483601913925682 15.654648292776471 -1 0 0
1817 1 28.01866710974578 -0.16672628610938933 5.685681378031984 0 0 0
449 1 15.934478405365212 0.49173621419129754 7.626810981284665 0 0 0
509 1 17.803448099506518 2.3130993399732542 8.253664653129874 0 0 0
1245 1 20.489623458803887 1.2095536505951785 8.258936772710394 0 0 0
919 1 24.41248658943703 0.9402547408846265 6.868982366296216 0 0 0
2646 1 31.826454909660917 1.7075897072577466 8.217891383864309 0 1 0
556 1 34.027475915539256 1.4618845169261825 6.6587726089507075 0 0 0
383 1 35.98335905450162 0.47713455053301934 8.522230111819368 0 0 0
3511 1 14.171434131683238 24.500723255950195 6.718346040843844 0 0 0
2226 1 40.35848731451279 2.604221168400727 7.483944131361268 0 1 0
190 1 44.534781242049206 2.478161087700197 7.341203104379986 0 0 0
581 1 46.532548319719034 1.0938442198636196 6.254525186659743 0 0 0
431 1 13.85373677723353 11.192979668430194 -0.4489473123818466 0 0 0
2013 1 1.493345367287351 4.6218677766380765 9.27111219834596 0 0 0
375 1 -0.31357122208810023 3.11296461243529 7.88736982109277 0 0 0
803 1 4.065097594502334 4.28175379198997 7.849198156545214 0 0 0
2730 1 13.887099347233372 3.8067507519650796 5.80505939116656 0 1 0
82 1 11.871743081995588 3.6262588279074546 8.128342703151693 0 0 0
524 1 15.523057095220452 5.344455598582201 7.6256164753067335 0 0 0
2287 1 18.05281801674478 4.503717585622875 6.655024656551338 0 0 0
802 1 22.088840195861255 2.533641234700403 6.478877117124328 0 0 0
109 1 23.210757797967297 5.090600038333933 7.574140341498978 0 0 0
74 1 27.74730566109316 4.250374158935187 7.147151796184191 0 0 0
2211 1 30.415048408710813 3.928194315201832 7.054538358137822 0 1 0
44 1 35.70486803211809 5.122801486425551 7.942363627648469 0 0 0
222 1 44.0224703301727 5.055197032459705 6.285589597030164 0 0 0
4115 1 47.97264032576413 3.600675886009741 7.91702411801027 -1 1 1
2375 1 0.22903685940327823 7.239920198823007 9.047112844323642 0 0 0
238 1 2.721972971442324 8.45639678337237 8.670929092775957 0 0 0
3381 1 3.217535418678806 7.644566094347946 5.950719236856474 0 1 0
2427 1 8.45458067336968 6.146818843289276 8.508217040350923 0 0 0
2952 1 11.324661811755117 6.284039044366347 8.448714134058656 0 1 0
3930 1 12.649196069345267 7.549223889185816 6.504674672560152 0 0 1
354 1 15.394946457120785 7.94837898669385 6.853597106788193 0 0 0
2240 1 19.110359793059587 6.907927523709853 7.166558029541679 0 1 0
61 1 21.254042195744105 6.783199665409718 8.773771027701269 0 0 0
15 1 23.599334131566007 8.886232046798519 5.704970857189415 0 0 0
1107 1 28.551426406517947 8.587778603237362 7.149497696467582 0 0 0
1808 1 31.363969147637686 6.139234482555927 8.27149597443104 0 0 1
2159 1 32.59942567464411 7.2610281096269595 6.127803093342297 0 0 0
1435 1 33.56401670835977 5.478009388572161 9.724602257233274 0 0 1
1310 1 34.8055347742374 7.853695060001986 7.305828210922074 -1 0 0
145 1 37.93409373324631 6.757386909203926 7.238677262831004 -1 0 0
104 1 39.05880462230889 7.907172044684351 9.638611070753553 0 0 0
2472 1 43.73749580109536 6.734686208395324 8.343470535695863 0 0 0
481 1 45.49806192356026 8.997639068447643 8.611511797189117 0 0 0
2839 1 47.42145291284584 7.422843243213065 7.484371353131154 -1 0 0
474 1 49.92110971915667 8.689220645702653 7.2256424108160004 0 0 0
128 1 48.4327430994269 5.917508838814418 9.538883826129732 0 0 0
1581 1 2.7092090961501536 11.078376711847202 7.876842785781648 0 0 0
475 1 8.256158768497908 8.936149078069034 9.428563241921854 1 0 0
1536 1 7.1666086897040895 10.27605868323261 6.917957130700195 0 0 1
53 1 11.523224711742403 10.127057625084003 6.431243070830597 0 0 0
2027 1 15.548427058486457 10.00195122496557 8.788629555869855 0 0 1
771 1 18.23188922059998 9.53393581776795 6.328973297638179 0 0 0
22 1 17.91832756147292 11.783744700632658 8.00427096959637 0 0 0
2898 1 22.955712885165095 9.05092037367858 8.535975908739081 0 1 0
3101 1 21.808625019752878 11.523703761401832 8.555241747197856 0 1 0
2750 1 27.2544874101295 10.84415471752217 6.785874166697645 0 1 0
2002 1 31.984910994658016 10.937764317624838 8.368277860699397 0 0 1
1727 1 34.66580577678757 10.144363214711912 9.31950956126668 0 0 1
1240 1 40.57666158866158 10.116389411116234 9.410582258246665 0 0 0
359 1 39.00175469850909 12.33745669980859 8.87766806782308 0 0 0
841 1 42.43161332292604 9.24663699097203 7.6192419412067505 0 0 0
3053 1 43.13960345247455 11.789263046294908 6.502795213934909 0 0 0
663 1 46.30726020347915 11.773363686536545 9.345303338482186 0 0 0
2140 1 -0.049259231331296005 11.136957220998795 8.14559833210342 1 0 0
2749 1 6.702087315596497 12.79761045964277 8.036617923330008 1 0 0
1368 1 9.053428328541377 14.618174620640396 7.780781991049231 1 0 0
3426 1 10.791337704874364 13.48602549687662 9.602308236162813 0 1 0
875 1 13.284405939704884 14.079606451676177 9.496963499822323 0 0 0
2506 1 16.751592102035698 14.191064840078592 6.509878451977306 0 0 0
465 1 14.835281190432182 12.449798475755461 7.912495523613078 0 0 0
3295 1 23.781315153274164 12.870355955903916 9.458411620858122 1 0 1
2461 1 31.488472318429864 13.512588055091488 7.448981282641308 0 0 0
1040 1 34.57495546611458 12.230211440552972 6.8039688601746695 0 0 1
1859 1 41.79128303171158 13.42078282656486 8.467909800497306 0 0 0
27 1 46.02406056254369 12.352219656135343 6.6713347364638755 0 0 0
1462 1 47.20004942784363 16.26377654538235 8.089139437867686 0 0 0
4089 1 49.28756695043686 15.442005843655826 9.67334557436448 -1 0 1
2495 1 0.07052654086780263 15.95433685162736 7.918167816883457 1 0 0
2152 1 -0.13502823296442745 18.58474919437389 7.2359902616010565 1 0 0
592 1 2.5048360593942824 15.45491012703095 9.056929031723794 0 0 0
316 1 3.7607583936802502 15.864986308900157 6.818933645049542 0 0 0
299 1 5.824277970660974 17.871374052508866 6.974978032771077 1 0 0
3818 1 7.698143931307914 16.758622173658512 8.702130556528127 0 0 1
155 1 12.275033661402608 17.489992959592268 5.5315471860147785 0 0 0
1361 1 13.643983552374674 16.63796248357683 8.312476309074531 0 0 0
648 1 20.433169508083797 16.548340098058944 7.602963758144746 0 0 0
787 1 18.763743541117268 18.725334736473624 8.013558587849596 0 0 0
272 1 22.832595955667266 17.477040899872975 8.50652116240382 0 0 0
3647 1 24.486299715869276 15.444097889518732 8.505962503782563 0 0 1
1795 1 29.470995261288362 17.093053802764363 8.102365012456943 0 0 1
2551 1 26.801867126017008 16.353542878464825 9.731122770158546 0 0 0
1687 1 29.30830723334354 14.311308292493601 9.077180979490066 0 0 1
498 1 32.41398341899684 16.0960771014403 7.8036662080502595 0 0 0
1960 1 37.1171992690151 16.32182375740707 7.046685774155156 -1 0 1
828 1 35.16197557978179 14.714284374215255 7.754620426266248 0 0 0
313 1 39.14347272099425 16.66820824221143 8.921872864337095 0 0 0
2679 1 41.30434897023793 15.833611184593813 7.722602787585108 0 0 0
2129 1 42.80021795086289 18.224091208027446 7.274113928109608 0 1 0
2054 1 44.816294484618446 18.195243189610352 9.235644166188028 -1 0 1
1225 1 0.14383254940108559 20.650965474033182 9.125996534192291 0 0 0
610 1 5.174101731975988 20.34999604353405 7.56345745358068 0 0 0
647 1 3.1546743694102815 19.99685949995549 9.557588438436413 0 0 0
3923 1 9.79224057525043 18.407624207505634 8.539987738187397 0 0 1
2379 1 11.49151562931855 19.94352745813472 6.663670577137823 0 0 0
129 1 13.202982904851446 20.927073159594773 8.46768556687613 0 0 0
558 1 19.318700943681232 20.81978163455115 9.54732780502508 0 0 0
3839 1 25.392981606088288 20.591446594184063 6.65834866074298 0 0 1
2846 1 27.659257759952034 20.09002341889115 8.348148755920299 0 0 0
837 1 29.201099431844895 20.16000729998377 5.8551554502686 0 0 0
332 1 34.591758154701935 21.048360962899626 7.455682363091096 0 0 0
2351 1 31.994485915251083 20.26907689508171 6.475447725197239 0 0 0
1856 1 35.69891154641282 18.924477348090655 9.89415509122857 0 0 1
81 1 37.044244067291736 19.09927544733345 7.514314756285055 -1 0 0
2699 1 39.11639640797009 20.324855966883945 8.391209285757327 0 0 0
196 1 41.57557680253604 20.877987245588024 6.881787841834654 -1 0 0
331 1 47.34989793471732 20.255945370048366 6.75401680838652 -1 0 0
3553 1 46.96127875325374 20.23140109409724 9.3607269200972 0 0 1
2296 1 1.6606866080685387 22.92320652525026 7.373799342834401 0 0 0
3787 1 6.968172403055506 22.384630435894568 7.839917888718551 1 0 1
656 1 11.988995834208321 23.31637606137467 8.838881853190534 0 0 0
3119 1 0.4797065901430764 12.05935615748241 -0.0026444227900997985 0 0 0
2728 1 15.401307926999184 22.268418804017486 7.424066788241455 0 0 0
3307 1 20.911939637281705 22.41884253681489 8.055492686769204 0 0 0
2939 1 22.89183662472493 21.87470037258011 9.994409604279534 0 0 1
1228 1 24.985145156752388 22.648388760191196 8.362522157243781 0 0 0
2500 1 50.10090038250171 17.065506957720636 16.183131091007283 -1 0 0
3533 1 33.42917959895087 23.710385435018164 8.831058780818188 0 0 1
3006 1 35.50426114677041 21.653510204303142 10.323244566341979 0 0 0
3437 1 37.8406556018774 22.87753700554019 9.501192681931187 0 0 0
1176 1 43.49116180394701 22.785206012599595 8.256769827712262 0 0 0
1562 1 44.7555042766642 23.694881790610147 6.21651567609931 0 0 0
1066 1 49.18788178054127 22.238944550474457 7.42207165292447 -1 0 0
2491 1 48.3368922718514 23.53941239431565 9.436177391970542 0 0 0
2557 1 31.210290892499373 23.849954413216086 13.993208941012147 0 0 0
3278 1 38.63571043477199 0.5381567465002772 7.22951784937507 0 1 0
203 1 4.069532383115305 0.8280097805545896 11.194283699515472 0 0 0
2127 1 8.556463392153903 2.1154940379798073 10.058599266933218 0 1 0
149 1 10.384172471228567 1.0195695536751035 11.590776000533554 0 0 0
591 1 12.749409514893511 2.398318677778293 10.525082407197113 0 0 0
1132 1 15.123487720956586 1.840826381371972 12.40644041659011 0 0 0
306 1 17.52847293580844 0.08845209799410458 12.013837181322742 0 0 0
3680 1 21.548613369159337 1.1030496828035017 10.897946911531545 0 1 1
3206 1 24.147850282634153 1.173764240339866 10.599281178356355 0 1 0
1953 1 28.838676690396884 2.135885553650353 11.2977468225424 0 0 0
2726 1 31.516125039036694 1.696994110944539 10.818784615070411 0 1 0
1400 1 37.12971380615232 17.203933196257566 -0.2722886626742572 0 0 0
2260 1 40.76712473975914 1.4889597973083015 11.803466575330754 -1 0 0
604 1 44.6312363784685 2.8563445701355725 10.163940109774305 0 0 0
1743 1 43.2450698369038 0.6203318980941455 11.326216577610378 0 0 1
3672 1 47.22855892749334 1.968728864855271 10.159527353927492 -1 1 0
2560 1 0.9527508714288193 3.9573389134969412 11.875048785231073 1 1 0
425 1 4.9030673847610275 5.117911693012177 10.504356908799616 1 0 0
18 1 3.6152244735853722 3.3631759427966093 12.215415198361686 0 0 0