
# Create simulation box of size 50 x 50 x 50 Angstrom
#
lattice	            sc 1
Lattice spacing in x,y,z = 1.0000000 1.0000000 1.0000000
region 	            all block 0 50 0 50 0 50 units box
create_box          1 all
Created orthogonal box = (0.0000000 0.0000000 0.0000000) to (50.000000 50.000000 50.000000)
  1 by 2 by 3 MPI processor grid

# fill box with 4175 randomly distributed atoms
#
create_atoms        1 random 4175 63782 all
Created 4175 atoms
  create_atoms CPU = 0.001 seconds
mass                1 18.015

# Define potential
#
pair_style          sw
pair_coeff          * * ML_mW.sw mW
Reading sw potential file ML_mW.sw with DATE: 2019-02-27

# Run minimization
#
minimize            1.0e-8 1.0e-8 10000 1000
WARNING: Using 'neigh_modify every 1 delay 0 check yes' setting during minimization (../min.cpp:187)
Neighbor list info ...
  update every 1 steps, delay 0 steps, check yes
  max neighbors/atom: 2000, page size: 100000
  master list distance cutoff = 6.0032907
  ghost atom cutoff = 6.0032907
  binsize = 3.0016454, bins = 17 17 17
  1 neighbor lists, perpetual/occasional/extra = 1 0 0
  (1) pair sw, perpetual
      attributes: full, newton on
      pair build: full/bin/atomonly
      stencil: full/bin/3d
      bin: standard
Per MPI rank memory allocation (min/avg/max) = 4.255 | 4.258 | 4.261 Mbytes
Step Temp E_pair E_mol TotEng Press 
       0            0    7792709.3            0    7792709.3    5898794.3 
     630            0   -45180.336            0   -45180.336   -154.07449 
Loop time of 1.17682 on 6 procs for 630 steps with 4175 atoms

98.0% CPU use with 6 MPI tasks x no OpenMP threads

Minimization stats:
  Stopping criterion = max force evaluations
  Energy initial, next-to-last, final = 
      7792709.32924461  -45180.0188663597   -45180.336116598
  Force two-norm initial, final = 2.0191930e+08 4.9721331
  Force max component initial, final = 1.0948746e+08 0.73126211
  Final line search alpha, max atom move = 0.053306038 0.038980685
  Iterations, force evaluations = 630 1000

MPI task timing breakdown:
Section |  min time  |  avg time  |  max time  |%varavg| %total
---------------------------------------------------------------
Pair    | 0.88677    | 0.99621    | 1.0592     |   6.1 | 84.65
Neigh   | 0.024094   | 0.024824   | 0.026098   |   0.5 |  2.11
Comm    | 0.072476   | 0.13518    | 0.2458     |  16.7 | 11.49
Output  | 0          | 0          | 0          |   0.0 |  0.00
Modify  | 0          | 0          | 0          |   0.0 |  0.00
Other   |            | 0.02061    |            |       |  1.75

Nlocal:        695.833 ave         704 max         685 min
Histogram: 1 1 0 0 1 0 0 1 0 2
Nghost:        1494.17 ave        1515 max        1468 min
Histogram: 1 1 0 0 0 0 1 1 1 1
Neighs:        0.00000 ave           0 max           0 min
Histogram: 6 0 0 0 0 0 0 0 0 0
FullNghs:      19997.0 ave       20462 max       19320 min
Histogram: 1 1 0 0 0 0 0 2 0 2

Total # of neighbors = 119982
Ave neighs/atom = 28.738204
Neighbor list builds = 26
Dangerous builds = 0

# Add velocity/set timestep
#
velocity            all create ${TEMP} 120598 rot yes dist gaussian
velocity            all create 215 120598 rot yes dist gaussian
timestep            5.0

# Define output
#
compute	            1 all msd
thermo	            100
thermo_style        custom step temp press vol etotal ke pe c_1[4] density

# Neighbor lists
#
neigh_modify        delay 0 every 1 check yes

# Set fixes
#
fix                 1 all momentum 10 linear 1 1 1 rescale
fix                 2 all nve
fix                 3 all temp/csvr ${TEMP} ${TEMP} 500.0 928347
fix                 3 all temp/csvr 215 ${TEMP} 500.0 928347
fix                 3 all temp/csvr 215 215 500.0 928347
fix                 4 all press/berendsen iso ${PRES} ${PRES} 1000.0 modulus 20000
fix                 4 all press/berendsen iso 150 ${PRES} 1000.0 modulus 20000
fix                 4 all press/berendsen iso 150 150 1000.0 modulus 20000

# Run 0.5 ns equilibration
#
dump                1 all custom 1000 eq.${NAME}.dump id type x y z vx vy vz
dump                1 all custom 1000 eq.liquid_density_MLmW.dump id type x y z vx vy vz
run                 100000
Per MPI rank memory allocation (min/avg/max) = 3.506 | 3.508 | 3.511 Mbytes
Step Temp Press Volume TotEng KinEng PotEng c_1[4] Density 
     630          215    824.17143       125000   -42505.327    2675.0087   -45180.336 2.7295415e-33   0.99914793 
     700    137.23123     92.66948    125337.44   -41684.678    1707.4174   -43392.096   0.25052948   0.99645801 
     800    170.30985    2.2433605    125313.67   -40941.979    2118.9784   -43060.957   0.58826938   0.99664695 
     900    188.57162    204.90564    125114.94    -40528.51    2346.1894   -42874.699   0.99649086   0.99823007 
    1000    195.58719     153.1114    124935.56   -40267.656    2433.4765   -42701.132     1.406178   0.99966326 
    1100    208.14767    316.69085    125008.85   -40072.278    2589.7527   -42662.031    1.7754113   0.99907722 
    1200    204.41141    238.44469    125017.52   -40086.824    2543.2665    -42630.09    2.1824179   0.99900791 
    1300    205.72492    340.19033    125408.23   -40065.135    2559.6091   -42624.744    2.6247245    0.9958955 
    1400    206.83048    167.41312    125707.41    -40061.02    2573.3644   -42634.384    2.9231574   0.99352527 
    1500    212.89822    131.75591    125826.64   -40011.217    2648.8586   -42660.076    3.2834933   0.99258389 
    1600    215.77703    347.70861     125710.3   -39937.901    2684.6765   -42622.577    3.6445724   0.99350248 
    1700    213.46085    146.63559    125960.04   -39974.829    2655.8589   -42630.688    3.9540548   0.99153268 
    1800    210.30637    72.552885    125805.84   -40078.825    2616.6111   -42695.436    4.3723442   0.99274798 
    1900    210.31903    113.24452    125946.55   -40075.892    2616.7686    -42692.66    4.8009005   0.99163881 
    2000    215.28764    107.75156    125942.87   -40048.212    2678.5875   -42726.799    5.1390278    0.9916678 
    2100    221.51466    207.89469    125989.91   -40008.213    2756.0636   -42764.276    5.4165571   0.99129754 
    2200    220.00677    288.29675     125930.6   -40048.902    2737.3025   -42786.204    5.7713404   0.99176445 
    2300    216.20903    113.09689    126043.79    -40048.67    2690.0513   -42738.722    6.1308904   0.99087379 
    2400    217.66112    186.52465    125871.27    -40088.01    2708.1181   -42796.128    6.4873151   0.99223191 
    2500     221.8691    154.29247    125945.47   -40050.905    2760.4734   -42811.378    6.8547331   0.99164736 
    2600    223.77643    78.502027    125801.12   -40008.529    2784.2043   -42792.733    7.1207857   0.99278524 
    2700    223.27157    194.71008    125835.89   -40044.854    2777.9228   -42822.776    7.3894568   0.99251088 
    2800    219.13828    103.73231    125787.33   -40040.248    2726.4969   -42766.744    7.6598312   0.99289408 
    2900    213.51796    308.37763    125577.79   -40115.536    2656.5693   -42772.106    7.9484905   0.99455083 
    3000    215.94913    419.30283    125880.07   -40134.193    2686.8177   -42821.011    8.2819899   0.99216257 
    3100    213.39243    145.73224    125901.91   -40107.747    2655.0075   -42762.754    8.5922161   0.99199046 
    3200    216.78907    174.93868    125831.44   -40156.346    2697.2682   -42853.614    8.8605712   0.99254597 
    3300    220.00101    9.2320176     125955.4   -40165.969    2737.2308     -42903.2    9.2028347   0.99156919 
    3400    216.27915    182.18126    126096.99   -40220.434    2690.9238   -42911.358    9.5226877   0.99045575 
    3500    215.32163    356.29847    126295.05   -40251.655    2679.0105   -42930.666    9.7114898   0.98890247 
    3600    211.81009    240.69101    126353.84   -40310.851    2635.3202   -42946.171    9.9321327    0.9884424 
    3700    214.43596    162.79853    126327.67   -40379.415     2667.991   -43047.406    10.100952   0.98864713 
    3800    212.21786    278.93014    126527.72   -40346.827    2640.3937   -42987.221    10.355834     0.987084 
    3900    209.49412    195.61225    126523.24   -40387.798    2606.5051   -42994.303    10.666406   0.98711901 
    4000    212.80786    133.95424    126916.25   -40392.709    2647.7343   -43040.443    11.000556   0.98406227 
    4100    211.75213    119.22647    126723.37   -40377.523    2634.5991   -43012.122    11.134946   0.98556006 
    4200    213.49699    228.68289    126852.71   -40390.955    2656.3084   -43047.264      11.3449   0.98455513 
    4300    211.93405    232.56214    126796.07   -40397.084    2636.8625   -43033.947    11.618255   0.98499495 
    4400    214.12571    44.769913    126726.93   -40389.832    2664.1309   -43053.963    11.626556   0.98553239 
    4500     214.1773    49.605016    126805.31   -40384.915    2664.7728   -43049.688    11.751192   0.98492317 
    4600     215.7153    177.32465    126946.82   -40434.768    2683.9084   -43118.677    11.891861   0.98382532 
    4700    217.35553    -6.220322    126915.55   -40368.419     2704.316   -43072.735    12.115386   0.98406768 
    4800    217.07595     247.4469    127051.34   -40421.494    2700.8375   -43122.331    12.311427   0.98301592 
    4900    219.53698    220.58562    127133.07    -40307.38    2731.4574   -43038.838    12.555672   0.98238397 
    5000    217.16009    2.4495884    126911.55   -40255.745    2701.8844   -42957.629    12.712522   0.98409869 
    5100    218.31402    168.56701    126935.75   -40310.324    2716.2414   -43026.565    12.982431   0.98391112 
    5200    214.24676    238.84715    126852.99   -40372.038     2665.637   -43037.675    13.256043   0.98455296 
    5300    216.76715   -90.143455    126870.64   -40354.218    2696.9954   -43051.214    13.503574   0.98441603 
    5400    208.80379    57.508695    126710.16   -40375.484    2597.9161     -42973.4    13.881674   0.98566277 
    5500    216.15335    302.61866    126763.68   -40372.818    2689.3586   -43062.177    14.053695   0.98524667 
    5600    214.53815    90.359743     126757.3   -40373.066    2669.2625   -43042.328    14.156529   0.98529623 
    5700    211.66707    320.07005     126687.9   -40361.044    2633.5407   -42994.585    14.410726   0.98583602 
    5800     214.6753    236.19955    126842.19   -40381.968    2670.9689   -43052.936    14.696572    0.9846368 
    5900    211.61149    96.552375    127053.44   -40411.175    2632.8492   -43044.024    15.024201   0.98299971 
    6000    214.84388    329.79402     127045.3   -40423.714    2673.0664   -43096.781    15.139414   0.98306263 
    6100    216.79186    241.40323    127165.99   -40384.216    2697.3029   -43081.519    15.501516   0.98212965 
    6200    213.93891    227.94271    127322.81   -40461.716    2661.8067   -43123.523      15.6513      0.98092 
    6300    214.83707    27.354732    127215.21   -40449.048    2672.9815   -43122.029    15.775567   0.98174967 
    6400    214.46626    252.57783    127267.99   -40426.451     2668.368   -43094.819    15.915827   0.98134252 
    6500    218.55027    164.65234    127278.43   -40381.323    2719.1808   -43100.504    16.170407   0.98126201 
    6600    216.88193    219.42328    127259.44   -40469.085    2698.4235   -43167.508    16.227617   0.98140846 
    6700    208.36795   -48.939352    127130.53   -40542.627    2592.4935    -43135.12    16.375579   0.98240359 
    6800    216.43922   -29.231098    127029.45   -40469.891    2692.9154   -43162.807    16.628786   0.98318529 
    6900    220.17671   -18.213386    127160.19   -40410.475    2739.4169   -43149.892    16.879622   0.98217449 
    7000    216.65959    332.36442    127157.98    -40406.92    2695.6572   -43102.577    17.129859   0.98219157 
    7100    217.52205     483.7338    127236.37   -40424.624    2706.3879   -43131.011     17.29783   0.98158638 
    7200    213.25941    53.758088    127307.49   -40491.999    2653.3525   -43145.352    17.396077   0.98103804 
    7300    208.75483    208.76312    127352.06   -40544.254     2597.307   -43141.561    17.591515   0.98069474 
    7400     208.8064    5.0686374    127230.63   -40562.424    2597.9486   -43160.372    17.780359   0.98163072 
    7500    214.91736    149.06507    127370.69   -40522.724    2673.9806   -43196.704    17.875639   0.98055129 
    7600    209.79597    163.58413    127407.14   -40606.941    2610.2607   -43217.202    18.181802   0.98027077 
    7700    214.17436    97.100439    127486.77   -40515.508    2664.7363   -43180.244    18.128802   0.97965844 
    7800    212.84031    265.51092    127450.61   -40504.183    2648.1381   -43152.321    18.325797   0.97993639 
    7900    213.92097    270.09222    127584.67   -40569.571    2661.5835   -43231.154       18.543   0.97890675 
    8000    209.70322    254.73601    127614.13   -40540.742    2609.1068   -43149.849    18.804353   0.97868072 
    8100     212.8916    125.76789     127754.8   -40614.707    2648.7763   -43263.483    18.995408   0.97760313 
    8200    212.06962    176.14672     127699.4   -40631.259    2638.5493   -43269.808     19.27992   0.97802726 
    8300    212.78497    152.07769    127738.84   -40626.518    2647.4496   -43273.967    19.538518   0.97772527 
    8400    210.77673    199.63977    127971.82   -40590.216    2622.4632   -43212.679    19.713798   0.97594526 
    8500    215.73715     368.3651    128054.07   -40538.863    2684.1803   -43223.044    19.943332   0.97531838 
    8600     216.7189   -11.391223    128093.97   -40554.035    2696.3951    -43250.43    20.186801   0.97501463 
    8700    215.90338    223.74746    127993.06   -40540.123    2686.2485   -43226.372    20.444103   0.97578334 
    8800    212.42087   -64.064665    127972.45     -40582.3    2642.9195    -43225.22    20.536457   0.97594046 
    8900    210.45711    237.33991    128058.22   -40648.833    2618.4865   -43267.319     20.78578   0.97528678 
    9000    213.59791    25.316581    128172.81    -40602.28    2657.5641   -43259.844    20.897376   0.97441486 
    9100    211.05883     145.1077    128301.93   -40667.679    2625.9731   -43293.652    21.095312   0.97343426 
    9200    215.26664    81.247988    128184.55   -40588.122    2678.3263   -43266.448    21.155755   0.97432559 
    9300    212.60212    29.707002    128140.59   -40638.073    2645.1745   -43283.248    21.585609   0.97465988 
    9400     214.0986    228.37651    128257.57   -40584.011    2663.7936   -43247.804    21.622687   0.97377095 
    9500    211.00949     267.0315    128387.55   -40587.801    2625.3592    -43213.16      21.9386   0.97278508 
    9600     215.7694    122.29244    128347.85    -40564.05    2684.5816   -43248.631    22.060351   0.97308597 
    9700    218.89184    164.35065     128238.6   -40495.271    2723.4307   -43218.702    22.268292   0.97391497 
    9800    211.86413    203.30988    128164.02   -40565.599    2635.9926   -43201.592    22.397554   0.97448169 
    9900    210.63029    166.83778     128071.6   -40645.013    2620.6413   -43265.655    22.632096    0.9751849 
   10000     214.6761    193.59932    128065.08   -40637.642    2670.9788   -43308.621    22.970354   0.97523454 
   10100    208.63603   -19.899844    128271.07   -40599.853    2595.8288   -43195.682     23.07151   0.97366843 
   10200    213.44199    77.581251    128323.53   -40654.474    2655.6241   -43310.098    23.285161   0.97327041 
   10300     212.5508    283.70277    128267.99   -40641.892    2644.5361   -43286.428      23.5692   0.97369178 
   10400    214.68657    79.640854    128584.57   -40591.098    2671.1091   -43262.207    23.656367   0.97129455 
   10500    215.26339    70.662583    128674.32   -40577.375    2678.2858   -43255.661    23.779265   0.97061708 
   10600    215.49841    197.02644    128662.39   -40515.825    2681.2099   -43197.034    23.859185   0.97070706 
   10700    220.76128    65.697676    128412.01   -40507.874      2746.69   -43254.564    23.848479   0.97259977 
   10800    213.86861    261.57219    128415.19   -40482.978     2660.932    -43143.91    24.096999    0.9725757 
   10900    217.36726    149.39088    128378.55   -40515.471    2704.4619   -43219.933    24.273823   0.97285327 
   11000    219.54057    108.02956    128477.27   -40517.881     2731.502   -43249.383    24.541544    0.9721057 
   11100    209.47142    137.46467    128410.83   -40549.208    2606.2227   -43155.431    24.886795   0.97260871 
   11200    220.33729   -2.8015022    128412.38   -40545.911    2741.4147   -43287.326    25.047772     0.972597 
   11300     216.5505      207.061    128463.01   -40540.243    2694.2999   -43234.543     25.27706   0.97221365 
   11400    214.09397    26.753642    128474.52   -40557.454     2663.736    -43221.19    25.466596   0.97212658 
   11500     212.5067    266.72663    128587.66   -40592.543    2643.9874    -43236.53    25.601343   0.97127122 
   11600    211.08357   -26.106495    128654.03   -40600.919    2626.2809     -43227.2    25.876377   0.97077017 
   11700    218.25554    70.295846    128423.45   -40488.857    2715.5138   -43204.371    26.026726    0.9725131 
   11800    215.38005    100.33774    128448.13   -40559.507    2679.7373   -43239.245    26.129808   0.97232627 
   11900    212.91438    117.15784     128465.5   -40578.002    2649.0597   -43227.062    26.001628   0.97219477 
   12000     213.8349    103.49967    128398.49    -40588.48    2660.5126   -43248.992     26.04052   0.97270222 
   12100    215.86498    311.02453     128446.6    -40550.09    2685.7708   -43235.861    26.393269   0.97233786 
   12200     216.8027   -111.63776    128360.45   -40567.163    2697.4377   -43264.601     26.50192   0.97299043 
   12300     215.4761   -75.965456    128322.29   -40600.032    2680.9324   -43280.965    26.679925   0.97327979 
   12400    212.20581    287.01917    128268.23   -40578.298    2640.2437   -43218.542    26.732523   0.97368999 
   12500    216.51673    225.40991    128377.77   -40682.772    2693.8798   -43376.651    26.721896   0.97285915 
   12600     217.7219    5.8530819    128381.35   -40621.503    2708.8743   -43330.378    26.778774   0.97283204 
   12700    217.43874    -134.0315    128342.39    -40608.09    2705.3513   -43313.441    26.887329   0.97312738 
   12800    221.15069    213.45963       128436   -40595.263     2751.535   -43346.798     27.13209   0.97241807 
   12900    212.57444    180.32699    128587.33   -40657.119    2644.8301   -43301.949     27.29099   0.97127372 
   13000    219.22344    171.27832     128564.2   -40616.328    2727.5564   -43343.884    27.070991   0.97144847 
   13100    220.94403    220.13768    128634.46   -40620.052    2748.9638   -43369.016    27.350062   0.97091782 
   13200    224.83925    175.02613    128580.13   -40547.665    2797.4277   -43345.093    27.548108   0.97132808 
   13300    218.63297    165.88428    128656.21   -40608.928    2720.2099   -43329.138    27.863637   0.97075368 
   13400    218.66287    157.81621    128779.65   -40696.437    2720.5818   -43417.019    28.061774   0.96982323 
   13500    212.22325    78.750984    128811.45   -40726.694    2640.4606   -43367.155    28.481894    0.9695838 
   13600    215.64881    200.56517    128855.03   -40757.947    2683.0812   -43441.028    28.693446   0.96925588 
   13700    216.91022    185.32493    129107.39   -40760.422    2698.7756   -43459.197     28.97517   0.96736132 
   13800    219.99324    301.07818    129154.96   -40676.334    2737.1341   -43413.468    28.966102   0.96700496 
   13900    219.64958    36.584073    129090.78   -40737.662    2732.8583   -43470.521    28.871404   0.96748573 
   14000    219.29621       103.27    129163.89   -40730.737    2728.4617   -43459.199     28.95513   0.96693817 
   14100    215.83289    130.75669    129038.18   -40739.148    2685.3715    -43424.52    29.061695   0.96788016 
   14200    215.31163    248.08655    129246.75    -40786.37     2678.886   -43465.256     29.09819   0.96631824 
   14300    212.21821    39.360389    129241.77   -40836.932     2640.398    -43477.33    29.423199   0.96635545 
   14400     212.9295    98.464537    129430.98   -40812.111    2649.2477   -43461.359    29.463432   0.96494282 
   14500    217.09469      137.394    129388.55   -40767.491    2701.0707   -43468.562    29.431098   0.96525925 
   14600    217.93025   -132.45734    129545.33   -40795.607    2711.4666   -43507.074    29.496646   0.96409103 
   14700    210.49924     101.4352    129676.32   -40842.843    2619.0107   -43461.854    29.785945   0.96311717 
   14800    208.81225     11.05108    129485.55   -40879.994    2598.0213   -43478.015    30.011253   0.96453611 
   14900    209.29639    100.21994    129387.02   -40943.387    2604.0451   -43547.432    29.951408   0.96527067 
   15000    210.59822    133.40269     129451.2    -40950.75    2620.2422   -43570.993    29.999103   0.96479208 
   15100    212.91949   -69.047583    129548.63   -40973.562    2649.1232   -43622.685    30.156347   0.96406644 
   15200    214.36878      188.282    129456.19    -40907.06    2667.1551   -43574.215    30.144191   0.96475492 
   15300    213.49625    34.221747    129395.34   -40920.754    2656.2992   -43577.054    30.396403   0.96520859 
   15400    211.21441    214.00223    129325.99   -40903.407    2627.9087   -43531.316    30.463158   0.96572618 
   15500    213.88819    74.218647    129412.42   -40881.185    2661.1757   -43542.361    30.425655   0.96508116 
   15600    216.14035     220.6152    129527.94    -40837.39    2689.1969   -43526.587    30.386327   0.96422048 
   15700    208.86134    225.64195       129423   -40908.443    2598.6321   -43507.075    30.529122   0.96500232 
   15800    213.00366    102.04563    129584.91   -40896.231    2650.1704   -43546.401    30.758156   0.96379659 
   15900     209.5136    216.99816    129489.59    -40923.36    2606.7475   -43530.107    30.845563   0.96450602 
   16000    213.76626    233.72853    129363.59   -40850.345    2659.6587   -43510.003     30.76344   0.96544543 
   16100    214.85125    129.20571    129470.84   -40791.439     2673.158   -43464.597    30.905148   0.96464572 
   16200    214.22226    276.13594     129534.8   -40845.718    2665.3322   -43511.051    30.946768   0.96416941 
   16300    212.94373    112.86152    129569.06   -40866.057    2649.4248   -43515.482    31.117094   0.96391444 
   16400     219.2891    167.78687    129758.86   -40765.541    2728.3733   -43493.914    31.264348   0.96250456 
   16500    217.96405    200.82674    129709.02   -40762.712    2711.8871   -43474.599    31.328414   0.96287436 
   16600    218.17744    95.080718    129883.85    -40748.13    2714.5422   -43462.672    31.518155   0.96157828 
   16700     219.0569    145.53354    129726.74   -40778.984    2725.4843   -43504.468    31.697089   0.96274283 
   16800    215.63112    257.44497    129918.02   -40770.212    2682.8611   -43453.073    31.992324   0.96132536 
   16900    218.82663    70.655306    130192.73    -40736.63    2722.6193   -43459.249    32.328826   0.95929697 
   17000    217.71288    214.25077    130141.04   -40783.836    2708.7622   -43492.598    32.282825   0.95967795 
   17100    216.90421    32.596672    130128.31   -40720.665    2698.7008   -43419.366    32.125038   0.95977183 
   17200    218.34564    171.17087    129932.53   -40744.389    2716.6349   -43461.024     32.12744   0.96121804 
   17300    216.34558    145.29069    129673.99   -40809.263    2691.7503   -43501.013    32.326987   0.96313445 
   17400    216.45199    193.51349    129660.92   -40839.806    2693.0743    -43532.88    32.371034   0.96323158 
   17500    216.03904    116.90188    129740.93   -40827.903    2687.9364    -43515.84    32.303237   0.96263752 
   17600    218.04903    227.79628    129809.76   -40819.358    2712.9444   -43532.302    32.514202   0.96212714 
   17700    216.60508    199.96182    129748.96   -40854.931     2694.979    -43549.91    32.686451     0.962578 
   17800    216.70212    153.06152    129774.45   -40855.023    2696.1864    -43551.21    32.772581   0.96238888 
   17900    219.77851    35.047203    129838.84   -40821.887    2734.4624   -43556.349    32.830432   0.96191166 
   18000    215.44584     401.2222    129884.32   -40774.549    2680.5559   -43455.105    32.865328   0.96157485 
   18100    215.47619    31.008745    130045.14   -40876.928    2680.9335   -43557.862    32.994953   0.96038572 
   18200    215.30692    321.54219    130071.03   -40871.157    2678.8274   -43549.985    33.051898   0.96019456 
   18300     218.9434    197.90291    129833.11   -40791.902    2724.0721   -43515.974    33.233041   0.96195409 
   18400    218.12695    280.57243    130165.79    -40844.92     2713.914   -43558.834     33.51502   0.95949552 
   18500     218.1104   -186.13529    130181.26   -40824.006    2713.7081   -43537.714    33.398243   0.95938146 
   18600    211.76831    176.09158    129943.04     -40872.5    2634.8004     -43507.3    33.569433   0.96114029 
   18700    216.54992    300.27768    129999.94   -40833.689    2694.2927   -43527.982    33.625004   0.96071957 
   18800    216.30916    38.062375    130005.78   -40820.838    2691.2972   -43512.135    33.534304   0.96067646 
   18900    217.89985   -54.150219    129970.48   -40860.542    2711.0885    -43571.63    33.654487   0.96093734 
   19000    217.48779    268.19084    129917.19   -40835.021    2705.9616   -43540.982    33.752079   0.96133151 
   19100    215.91512    160.42932    129999.98    -40893.04    2686.3946   -43579.434    33.761975   0.96071933 
   19200    216.55385    98.493116    130001.59   -40865.538    2694.3416    -43559.88      33.9959   0.96070739 
   19300    217.35645    168.09377    130062.92   -40805.869    2704.3275   -43510.196    34.130528    0.9602544 
   19400    214.01374   -52.975619    130114.68   -40801.641    2662.7378   -43464.379    34.150252   0.95987243 
   19500    214.69304    139.54497    129921.21   -40791.971    2671.1896    -43463.16    34.219458   0.96130178 
   19600    215.55132    108.71442    129836.38   -40823.022    2681.8683    -43504.89    34.334405   0.96192986 
   19700    214.54637    204.52977    129734.97   -40788.226    2669.3647   -43457.591     34.45845   0.96268176 
   19800    213.18298    318.65254    129760.75   -40806.244    2652.4016   -43458.645    34.543559    0.9624905 
   19900     216.5161    197.35115    129788.65   -40801.588    2693.8719    -43495.46    34.591175   0.96228364 
   20000    210.14549   -5.2797685    129913.27   -40838.198    2614.6094   -43452.807    34.621333   0.96136055 
   20100     212.0138    93.069886    130026.93   -40795.769    2637.8547   -43433.624    34.704471    0.9605202 
   20200    210.18625    239.96842    129926.42   -40838.843    2615.1166    -43453.96    34.784026   0.96126323 
   20300    217.54012    205.63035    129876.13   -40875.262    2706.6127   -43581.875    34.909315   0.96163548 
   20400    214.61397   -52.688285    129800.92   -40878.827    2670.2058   -43549.033    35.043763   0.96219268 
   20500     214.7157    85.008813    129867.59   -40858.594    2671.4715   -43530.066    35.143854   0.96169872 
   20600    212.14595    280.00902    130021.32   -40892.553    2639.4989   -43532.052    35.280407   0.96056167 
   20700    215.29181    89.216147    129874.54   -40839.639    2678.6394   -43518.278    35.192658   0.96164722 
   20800    213.98867    273.52964    129961.59   -40847.855    2662.4259   -43510.281    35.347221   0.96100309 
   20900    214.35603    130.66934    129941.68   -40889.278    2666.9966   -43556.275    35.407642   0.96115033 
   21000    210.31928    255.17851    129651.32   -40987.895    2616.7717   -43604.667    35.630934   0.96330287 
   21100    209.80264    19.697483    129694.64   -40988.462    2610.3437   -43598.806    35.777386   0.96298116 
   21200     210.5217    223.56732     129562.3   -40946.803    2619.2901   -43566.093    35.890335   0.96396475 
   21300    209.03464    197.20214       129325   -40954.646    2600.7884   -43555.434    35.535363   0.96573352 
   21400    213.52434    98.309223    129398.14   -40922.181    2656.6487    -43578.83    35.712788   0.96518768 
   21500    213.02246    165.80223    129455.35   -40918.715    2650.4044   -43569.119    35.695286   0.96476116 
   21600    213.88797    233.16228    129582.56   -40864.054     2661.173   -43525.227    35.938128   0.96381407 
   21700    212.87844    133.61576    129687.22   -40837.258    2648.6125   -43485.871    36.109293    0.9630362 
   21800    214.83511    44.878754    129716.89   -40822.852    2672.9572   -43495.809    36.406426   0.96281592 
   21900    215.44254    116.16477    129700.81    -40838.18    2680.5147   -43518.695    36.573667    0.9629353 
   22000    212.62438    94.186685    129612.86   -40870.373    2645.4516   -43515.825    36.731715    0.9635887 
   22100    214.71149     156.7342    129664.32   -40806.509    2671.4192   -43477.928     36.94864   0.96320628 
   22200    214.39192    204.01286    129693.31   -40840.642    2667.4431   -43508.085     36.87406     0.962991 
   22300    216.79969    11.432701    129507.27   -40833.666    2697.4003   -43531.067     36.81061   0.96437434 
   22400    217.75228     -39.1256    129539.83   -40794.365    2709.2523   -43503.617    36.740649     0.964132 
   22500    214.60308     164.7671    129360.05    -40788.84    2670.0703   -43458.911    36.751304   0.96547187 
   22600    218.39632    166.37912    129445.44   -40762.946    2717.2654   -43480.211      37.0851   0.96483499 
   22700    215.82311    289.07585    129640.29   -40775.674    2685.2498   -43460.924    37.267388   0.96338488 
   22800    220.10996    155.07567    129706.34   -40765.065    2738.5863   -43503.652    37.331835    0.9628943 
   22900    219.89242    101.41136    129906.48   -40828.293    2735.8798   -43564.173    37.515202   0.96141082 
   23000    215.86544   -22.580763    129814.24    -40818.25    2685.7765   -43504.026    37.518102   0.96209392 
   23100    211.99929    178.91209    129603.05   -40932.661    2637.6742   -43570.336     37.70179   0.96366163 
   23200     217.4372    47.493758    129776.24   -40876.333    2705.3322   -43581.665    37.854024   0.96237566 
   23300    213.49602     142.4393     129792.2   -40923.962    2656.2964   -43580.259     38.00412    0.9622573 
   23400    215.90318    247.27308    129783.99   -40865.093     2686.246   -43551.339    38.187562   0.96231814 
   23500    214.50454    264.10148    129831.58   -40898.824    2668.8443   -43567.668    38.186634    0.9619654 
   23600    220.00758    169.16328    129864.19   -40882.979    2737.3126   -43620.291    38.207197    0.9617239 
   23700    211.90848    228.69447    129922.87   -40906.933    2636.5444   -43543.478      38.1132   0.96128951 
   23800    212.28768    17.055514    129787.13   -40961.384    2641.2623   -43602.646     38.02807   0.96229491 
   23900    209.90709    158.43392    129703.46   -40971.098    2611.6433   -43582.742    38.058761   0.96291562 
   24000    215.64517    81.965924    129848.33   -40887.879     2683.036   -43570.915    38.069293   0.96184131 
   24100    211.10482    213.59942    129903.19   -40876.241    2626.5454   -43502.787    38.487167   0.96143516 
   24200    213.45509    244.06212    129827.33    -40930.38    2655.7871   -43586.167    38.617818   0.96199693 
   24300    213.98785    149.27845    129904.39   -40905.709    2662.4156   -43568.124    38.931726   0.96142629 
   24400    213.03275    87.686433    129901.94   -40952.883    2650.5324   -43603.416    39.026491    0.9614444 
   24500    212.29004    98.741836    129772.65   -40911.985    2641.2917   -43553.277    38.771823   0.96240224 
   24600    213.12305    68.912411    129733.33    -40904.53     2651.656   -43556.186    38.769606   0.96269391 
   24700     216.4175    43.371363    129823.77   -40926.965    2692.6451    -43619.61    39.020093    0.9620233 
   24800    213.28961    62.190437     129916.1   -40923.752    2653.7282    -43577.48    39.092579   0.96133962 
   24900    213.46042    271.10913    129929.87   -40872.887    2655.8535    -43528.74    39.406472   0.96123774 
   25000    215.80789     108.5219    129907.75   -40858.409    2685.0605    -43543.47    39.631005    0.9614014 
   25100    216.87297    115.91034    129892.87   -40859.902     2698.312   -43558.214    39.684001    0.9615115 
   25200    213.19728     81.10651    129686.87     -40898.7    2652.5794   -43551.279    39.773102   0.96303884 
   25300    213.07489    79.576479    129567.05   -40893.577    2651.0567   -43544.633    39.671054   0.96392945 
   25400    217.14206    97.923196    129742.72    -40876.27    2701.6601    -43577.93    39.768528   0.96262426 
   25500    213.42598    264.02021    129569.91   -40812.548     2655.425   -43467.973    39.834727   0.96390812 
   25600    212.25451    219.78225    129672.93   -40890.679    2640.8496   -43531.528     39.94333   0.96314236 
   25700    213.10265    150.30018     129732.4   -40903.736    2651.4021   -43555.138    40.019974   0.96270086 
   25800    212.74482    216.44577    129787.61   -40883.062      2646.95   -43530.012     40.12516   0.96229132 
   25900    217.60252    180.15121    129855.48   -40846.903    2707.3891   -43554.292    40.293314   0.96178841 
   26000    218.56132    64.360433    129876.26   -40795.954    2719.3184   -43515.272    40.401292   0.96163447 
   26100    214.39343    221.22132     129763.8    -40874.72    2667.4619   -43542.182     40.50241   0.96246789 
   26200    217.65416     107.2594    129896.08   -40878.598    2708.0316   -43586.629     40.86324   0.96148776 
   26300    213.48038    172.24871    130028.93   -40873.319    2656.1018   -43529.421    41.073043   0.96050542 
   26400    219.21052   -17.875031    129845.65   -40873.971    2727.3956   -43601.367    41.178897   0.96186116 
   26500    213.95787    83.835379    129621.15   -40913.878    2662.0427    -43575.92    41.181885   0.96352707 
   26600    216.24998    104.25223     129488.7   -40967.152    2690.5609   -43657.713    41.267454   0.96451265 
   26700    212.41749    73.053117    129659.33   -40988.277    2642.8774   -43631.155     41.39615   0.96324337 
   26800    213.08751    317.46466    129794.19   -40916.321    2651.2138   -43567.535     41.48478   0.96224256 
   26900    214.46539    165.00388     129899.9     -40909.9    2668.3571   -43578.257    41.549799   0.96145946 
   27000    215.98343    225.51101    129998.65   -40961.582    2687.2445   -43648.827    41.661948   0.96072916 
   27100    212.98165     72.75626    129900.27   -40962.013    2649.8966    -43611.91    41.709876   0.96145677 
   27200    213.56853    312.13222    129986.56   -40981.424    2657.1985   -43638.623    41.811277   0.96081848 
   27300    211.75708    54.010588    129960.97   -41014.516    2634.6606   -43649.177     41.89919   0.96100772 
   27400    214.77834    184.99477    129593.53   -40954.625    2672.2509   -43626.876    41.814723   0.96373246 
   27500    217.17158    114.59839     129880.6   -40879.272    2702.0273     -43581.3    42.017397   0.96160237 
   27600    215.33561    138.99379    130056.68   -40919.188    2679.1844   -43598.372    41.854307   0.96030044 
   27700    216.64291   -49.096203    130049.98   -40922.007    2695.4496   -43617.457    42.044585   0.96034991 
   27800    216.53484    125.31551    130091.81   -40850.832    2694.1051   -43544.937    42.250376   0.96004118 
   27900    217.72709     121.1807    130222.51   -40871.735    2708.9389   -43580.674    42.357305    0.9590776 
   28000     214.4296    116.89643    130197.27   -40908.185    2667.9119   -43576.097    42.234904   0.95926353 
   28100    212.35336    82.527799     130273.5   -40877.454    2642.0795   -43519.533    42.424864   0.95870217 
   28200    216.76838    46.143956    130173.02   -40911.404    2697.0108   -43608.415     42.57286    0.9594422 
   28300    214.39415    83.025902    130163.05   -40905.582    2667.4708   -43573.053    42.830033   0.95951574 
   28400    211.98551     80.08273    130225.98   -40945.152    2637.5028   -43582.655    42.974767   0.95905204 
   28500    213.59659   -15.973253    130337.11   -40963.134    2657.5477   -43620.682    42.979806    0.9582343 
   28600    213.26886    146.29481    130296.09   -40909.051    2653.4701   -43562.522    43.007005   0.95853602 
   28700    210.58452    2.9698322     130048.3   -40923.702    2620.0718   -43543.774    43.163977   0.96036236 
   28800    218.47616    272.76256    129946.11   -40894.794    2718.2588   -43613.052    43.283362   0.96111757 
   28900    215.96188    177.92775    129976.38   -40861.446    2686.9764   -43548.423    43.274857   0.96089375 
   29000    213.58983    240.65601    130164.64   -40920.732    2657.4635   -43578.196    43.319929     0.959504 
   29100    217.89859    87.767788    130153.71   -40872.381    2711.0727   -43583.454    43.505179   0.95958456 
   29200    214.12248    148.88239    130061.52   -40834.051    2664.0907   -43498.142     43.46693   0.96026472 
   29300    215.24125    98.693153    130062.95   -40901.563    2678.0104   -43579.573    43.542544   0.96025421 
   29400    213.16821    455.32138    130304.02   -40962.902    2652.2178    -43615.12     43.71997   0.95847765 
   29500    214.27772    170.03412    130450.62   -41008.498    2666.0222    -43674.52    43.760482   0.95740055 
   29600    213.27426    36.516671     130460.8   -40924.658    2653.5372   -43578.195    43.821905   0.95732579 
   29700    213.59739    195.91411    130418.73   -40985.096    2657.5577   -43642.653    43.880275   0.95763459 
   29800    212.49666    162.79995    130404.52   -40962.657    2643.8624   -43606.519    44.110128   0.95773901 
   29900    215.27418     170.0498    130579.34   -41000.848      2678.42   -43679.268    44.167978   0.95645674 
   30000    217.87777    181.60188    130666.21    -40994.12    2710.8136   -43704.934    44.234275   0.95582084 
   30100    217.77591   -41.043612    130534.25   -41001.233    2709.5463    -43710.78    44.296108   0.95678713 
   30200    213.37411    213.09537    130251.51   -41003.911    2654.7796    -43658.69    44.410086   0.95886405 
   30300     214.0006    143.39587    130292.73   -40962.589    2662.5743   -43625.164     44.70685   0.95856072 
   30400     218.6085    114.08696     130505.8   -40946.687    2719.9054   -43666.592    44.802275   0.95699572 
   30500    215.33312    131.76552    130511.54   -40959.346    2679.1533     -43638.5    44.662637   0.95695364 
   30600    215.45792    262.43096    130403.89   -40955.274    2680.7061    -43635.98    44.633147   0.95774356 
   30700    215.87278    159.57603    130560.67   -40966.247    2685.8678   -43652.114    44.886229   0.95659354 
   30800    214.08832    217.61269    130393.02    -40897.46    2663.6657   -43561.126    44.737413   0.95782343 
   30900    211.45705    112.33914    130452.46   -41004.468    2630.9278   -43635.396    44.801953   0.95738699 
   31000    210.44444    143.85986    130432.02   -41043.961    2618.3289    -43662.29    44.995628   0.95753707 
   31100    209.95991    227.22782    130504.77   -41043.737    2612.3004   -43656.037    45.176529   0.95700327 
   31200     213.5475   -23.220656    130365.53   -41075.528    2656.9369   -43732.465     45.27861   0.95802539 
   31300    212.93462    254.94325     130410.6   -41036.071    2649.3115   -43685.382    45.417248   0.95769432 
   31400    216.40152    247.63848    130293.34   -41003.768    2692.4463   -43696.215    45.384264   0.95855624 
   31500    213.24152    60.869336    130344.22   -41059.613    2653.1299   -43712.743    45.393375   0.95818207 
   31600    212.88027    69.470066    130439.27   -40994.397    2648.6353   -43643.032    45.269162   0.95748379 
   31700    214.14791    43.822158    130486.34   -41022.913    2664.4071    -43687.32    45.415759   0.95713845 
   31800    220.24337    186.09869    130468.96    -40957.08    2740.2463   -43697.326    45.544526   0.95726596 
   31900    219.97716    230.22927    130567.42   -40957.505    2736.9341    -43694.44    45.681815   0.95654409 
   32000    216.56609    248.47358     130596.3   -40950.585    2694.4938   -43645.079    45.975102   0.95633251 
   32100    215.03443     29.99214    130415.72   -40965.089    2675.4372   -43640.526     46.02161   0.95765669 
   32200    216.88141    180.79045    130405.33   -40953.331    2698.4171   -43651.748    46.114966   0.95773301 
   32300    217.69103    114.60665    130409.72    -40932.01    2708.4903     -43640.5    46.179892   0.95770078 
   32400    211.90708    158.29112    130333.24   -40976.903     2636.527    -43613.43    46.048506   0.95826277 
   32500    215.56256    118.75609    130138.56   -40985.597    2682.0081   -43667.605    45.982375   0.95969627 
   32600    214.76091   -34.062413    130160.33   -40917.566    2672.0341     -43589.6    46.074725   0.95953579 
   32700    214.64641    168.58871    130059.46   -40969.469    2670.6094   -43640.079    45.899941   0.96027994 
   32800    213.63948    63.525328     130235.3   -41015.194    2658.0813   -43673.275    46.159525    0.9589834 
   32900    216.69567    195.87094    130189.51   -41014.951    2696.1061   -43711.057    46.195303   0.95932066 
   33000    213.58753    273.09872    130200.66   -41062.019     2657.435   -43719.454    46.322185   0.95923851 
   33100     213.7299    146.80418    130209.84   -40986.972    2659.2063   -43646.178    46.384807   0.95917095 
   33200    212.65055    124.28577    130136.01   -41016.706    2645.7772   -43662.483    46.650105   0.95971508 
   33300    211.61649    206.06849    130259.64   -40953.699    2632.9114   -43586.611    46.851854   0.95880424 
   33400     213.5857    228.75973    130286.04   -41045.615    2657.4122   -43703.028    46.899818   0.95860995 
   33500    214.47108   -23.206358    130309.39   -41013.554    2668.4279   -43681.982    46.879134   0.95843818 
   33600    216.53072    119.67984    130178.29    -40989.21    2694.0538   -43683.263    46.865147   0.95940338 
   33700    213.79346    106.04599     130226.9   -40983.456    2659.9971   -43643.453    47.086906   0.95904527 
   33800    215.65791     262.6531    130303.77   -40978.047    2683.1944   -43661.241    47.341161   0.95847948 
   33900    217.38318    132.44794    130525.31   -40983.006    2704.6601   -43687.666     47.44816   0.95685264 
   34000    220.84193    177.71374    130468.92   -40962.957    2747.6935   -43710.651    47.687693   0.95726621 
   34100    216.92254    62.599729    130305.84   -41011.511    2698.9288   -43710.439    47.625791   0.95846428 
   34200    217.45348     91.39807    130409.27   -41027.385    2705.5347    -43732.92    47.893682   0.95770406 
   34300     212.3201    287.03744    130400.94   -41066.999    2641.6658   -43708.665    47.971259   0.95776529 
   34400    214.70549    162.85887    130429.34   -40992.996    2671.3445    -43664.34    48.093353   0.95755669 
   34500    215.03103    141.31974    130652.63   -41013.561    2675.3949   -43688.956    48.373027   0.95592024 
   34600    212.05176    292.40696       130656   -40981.226     2638.327   -43619.553    48.494793   0.95589559 
   34700    213.16642    133.01409    130619.13   -41063.882    2652.1955   -43716.077    48.634232    0.9561654 
   34800    214.42993    338.21728     130686.5   -41057.691     2667.916   -43725.607    48.962177   0.95567245 
   34900    209.28633    117.00765    130623.38   -41060.051    2603.9199    -43663.97    49.068125   0.95613424 
   35000    213.89854    189.30327    130699.37   -41131.881    2661.3045   -43793.185    49.078942   0.95557834 
   35100    214.33071    188.96134    130736.06   -41083.793    2666.6816   -43750.475    49.071686   0.95531019 
   35200    211.34457     238.7555    130823.22    -41093.98    2629.5283   -43723.508    49.079852   0.95467371 
   35300    215.60636     227.1377    130806.42   -41085.948    2682.5531   -43768.501    49.247115   0.95479637 
   35400    211.10504     37.66515    130725.45   -41111.447     2626.548   -43737.995    49.321846   0.95538776 
   35500    217.07378    103.98861    130783.25   -41011.885    2700.8106   -43712.695    49.266604   0.95496548 
   35600     214.4582    152.67588    130736.52   -41056.693    2668.2677   -43724.961     49.33168   0.95530683 
   35700    213.91944    114.45733    130874.69   -41023.373    2661.5646   -43684.937    49.686607   0.95429825 
   35800    214.11306    27.449133    130675.67   -41056.988    2663.9735   -43720.962    49.409402   0.95575168 
   35900    215.90246    87.821034     130701.4   -41000.627     2686.237   -43686.864    49.319345   0.95556353 
   36000    217.02042    204.51141    130629.92   -40964.206    2700.1466   -43664.353    49.549725   0.95608639 
   36100    216.80211    184.68642    130681.24   -40981.942    2697.4304   -43679.373    49.616716   0.95571092 
   36200    211.35277    95.718232    130705.31   -41019.279    2629.6302   -43648.909     49.88318   0.95553493 
   36300    214.16996    193.21283    130646.79   -41062.935    2664.6815   -43727.616     49.83567   0.95596296 
   36400    213.64996    49.663266    130621.67   -40994.618    2658.2117    -43652.83    49.918763   0.95614679 
   36500    214.43049    179.97995    130655.96   -40970.131     2667.923   -43638.054    49.887595   0.95589589 
   36600    213.24813    180.34477     130561.8   -41092.015    2653.2121   -43745.227    49.886444   0.95658523 
   36700    212.22978    118.83906    130791.19   -41033.725    2640.5419   -43674.267    49.912947   0.95490754 
   36800    214.46784    123.80481    130939.28    -41028.37    2668.3877   -43696.758    50.075836   0.95382751 
   36900    215.72478     142.8945    130824.06   -41054.179    2684.0264   -43738.206       49.939   0.95466761 
   37000    213.79767    14.766925    130768.99   -41006.269    2660.0495   -43666.318    49.851964   0.95506963 
   37100    216.62813    166.59635    130882.42   -40993.261    2695.2657   -43688.526    49.961133   0.95424194 
   37200    214.29498    82.989604    130931.94   -41048.852     2666.237   -43715.089    50.118335   0.95388098 
   37300    216.11499   -28.204278    130967.91    -41074.18    2688.8813   -43763.062    50.497253   0.95361902 
   37400    211.53784    93.583112    130824.31   -41112.909    2631.9329   -43744.841    50.588572   0.95466577 
   37500    214.85624    168.76993    130826.02   -41123.733    2673.2201   -43796.953    50.713631   0.95465331 
   37600    219.43742    80.179254    130911.17   -41081.856    2730.2187   -43812.075    50.738605   0.95403233 
   37700    214.29956    145.59114     130699.7    -41097.55    2666.2939   -43763.844    50.642997   0.95557594 
   37800    209.20492    161.39417    130655.08   -41205.262    2602.9069   -43808.169    50.714602   0.95590229 
   37900    213.09514    106.05265    130786.65   -41165.072    2651.3087   -43816.381    50.736569   0.95494064 
   38000    214.69344     289.2407    130867.73   -41133.288    2671.1946   -43804.482    50.769939   0.95434906 
   38100    210.63596    24.731554    130702.49   -41093.344    2620.7117   -43714.056    50.722651   0.95555558 
   38200     214.0116    168.32984    130624.31   -41105.286    2662.7112   -43767.997    50.940552   0.95612749 
   38300    217.23133    105.58636    130577.78   -41042.282    2702.7707   -43745.053    50.960753   0.95646818 
   38400    212.11895     144.3785    130423.86   -41097.726     2639.163   -43736.889    51.054092   0.95759696 
   38500    212.63559    82.521278    130436.14   -41108.713     2645.591   -43754.304    51.190318   0.95750677 
   38600    218.54103    157.24015    130476.14   -41064.855    2719.0659   -43783.921    51.335378   0.95721329 
   38700    217.65474    222.23609    130561.38   -41071.492    2708.0387    -43779.53    51.496467   0.95658828 
   38800     212.9308    293.45848       130541   -41095.567    2649.2639   -43744.831    51.448199   0.95673768 
   38900    209.99008    144.93537    130444.35   -41042.372    2612.6758   -43655.048    51.549322   0.95744652 
   39000    214.12387    189.34275    130490.26   -41095.545     2664.108   -43759.653    51.579735   0.95710972 
   39100    213.36294    85.023897    130358.65   -41055.073    2654.6406   -43709.714    51.527454   0.95807595 
   39200    211.27152    161.25094       130392   -41079.501    2628.6194   -43708.121     51.60759   0.95783096 
   39300    215.62738     112.9071    130519.96   -41067.622    2682.8145   -43750.436    51.585594   0.95689192 
   39400    216.96214     118.1025    130576.57   -41036.708    2699.4215    -43736.13    51.602116   0.95647704 
   39500    218.76732    151.35111    130489.29   -41024.751    2721.8813   -43746.632    51.806824   0.95711681 
   39600    215.21761    205.63923    130497.96    -41078.91    2677.7163   -43756.626    52.111794   0.95705323 
   39700    213.64058    125.82113    130558.22   -41030.461    2658.0949   -43688.556     52.28288   0.95661148 
   39800    214.94643    187.49336    130693.59   -41081.008    2674.3422   -43755.351    52.262451   0.95562066 
   39900    213.51071    9.4807918    130647.89   -41127.347    2656.4791   -43783.826    52.151457   0.95595491 
   40000    214.23062    75.647893       130556   -41150.704    2665.4362    -43816.14    51.878995   0.95662771 
   40100    215.05238    202.20641    130388.42   -41052.456    2675.6604   -43728.117    52.113533   0.95785722 
   40200    213.39736    250.53653    130531.01   -41067.005    2655.0688   -43722.073    52.303767   0.95681089 
   40300    213.73802    96.497112    130308.87   -41047.083    2659.3073    -43706.39     52.48445   0.95844199 
   40400    219.27205    187.60317    130268.21   -40951.199    2728.1611   -43679.361    52.424245    0.9587411 
   40500    213.16579    84.161932    130125.68   -40961.744    2652.1876   -43613.931    52.542517    0.9597913 
   40600    216.02882     139.1823    130210.77   -40995.746    2687.8092   -43683.555    52.459724    0.9591641 
   40700    216.02997    397.20833    130275.25   -41032.687    2687.8236   -43720.511    52.392908   0.95868933 
   40800    211.28048    272.24676    130413.94   -41087.108    2628.7309   -43715.838    52.386011   0.95766981 
   40900    213.57322    120.92257    130394.24   -41119.522    2657.2569   -43776.779    52.646411   0.95781447 
   41000     219.1221    272.93536    130304.23   -41054.201    2726.2955   -43780.496    52.545405   0.95847611 
   41100    220.02962    138.75421    130469.88   -41057.803    2737.5868    -43795.39    52.507553   0.95725915 
   41200    214.59053    152.57377    130446.34   -41079.337    2669.9142   -43749.252    52.647377   0.95743196 
   41300    213.81477    201.11501    130408.96   -41230.468    2660.2623   -43890.731     52.71751   0.95770636 
   41400    212.76386   -23.893662    130436.73    -41184.16    2647.1869   -43831.347    52.897186   0.95750248 
   41500    212.01312    59.506029       130482   -41186.512    2637.8463   -43824.358    52.905748   0.95717024 
   41600    212.78233     69.38439    130309.55   -41148.998    2647.4167   -43796.414    52.880132   0.95843695 
   41700     213.6749    78.228856    130272.96   -41103.907     2658.522   -43762.429    52.788722   0.95870621 
   41800    214.62585  -0.56576718    130174.37   -41112.034    2670.3536   -43782.388     52.96793   0.95943228 
   41900    211.44431     328.7103    130239.58   -41075.019    2630.7692   -43705.789    53.034213   0.95895189 
   42000    217.20559    329.14511       130574   -41064.384    2702.4505   -43766.835    52.939887   0.95649588 
   42100    215.78392    57.661495    130472.59    -41060.85    2684.7621   -43745.612    53.239201   0.95723933 
   42200    214.73353    134.57843    130430.64    -41002.71    2671.6934   -43674.404    53.601792   0.95754721 
   42300    217.04328    164.68695    130362.29    -40978.08     2700.431   -43678.511    53.729266   0.95804922 
   42400    215.48704    367.05265    130410.39   -41003.274    2681.0685   -43684.343    53.710173   0.95769584 
   42500    217.43495    104.42524    130507.58   -40998.936    2705.3042    -43704.24    53.615069   0.95698264 
   42600    217.66763    19.827936     130459.7   -41006.157    2708.1991   -43714.356    53.629964   0.95733391 
   42700    213.00903    56.726476    130431.75   -41006.304    2650.2373   -43656.541     53.50611   0.95753899 
   42800      217.204    198.54063    130351.55    -40964.79    2702.4307    -43667.22    53.805018   0.95812816 
   42900    214.62112    239.77175    130126.07   -41030.879    2670.2948   -43701.174    53.727793   0.95978836 
   43000    214.50855    145.34206    130312.32    -41058.05    2668.8942   -43726.944    54.008624   0.95841658 
   43100    211.27535    220.54116    130410.68   -41040.996     2628.667   -43669.663    54.071798   0.95769372 
   43200    218.09322    196.42497    130419.11   -41002.428    2713.4943   -43715.923    54.154684   0.95763182 
   43300    215.38455    76.797512    130507.94   -41015.144    2679.7932   -43694.937     54.46342      0.95698 
   43400    217.99999     172.4553     130535.2   -40971.793    2712.3343   -43684.127    54.503909   0.95678017 
   43500    218.58807    136.74591     130489.9   -40974.355    2719.6511   -43694.007     54.55323   0.95711231 
   43600    217.54586     180.1577    130571.25   -40877.619     2706.684   -43584.303    54.732169   0.95651598 
   43700    221.57041    113.67327    130494.94   -40905.807    2756.7571   -43662.564    54.700099   0.95707537 
   43800    214.28252    34.289912    130412.18   -40899.655     2666.082   -43565.737    54.934186   0.95768274 
   43900    215.73739    127.60331    130522.98    -40944.08    2684.1833   -43628.263     54.99717   0.95686973 
   44000     213.0407    62.040155    130325.73   -40978.396    2650.6314   -43629.028    55.241103     0.958318 
   44100    216.28765    13.220744    130486.97   -40986.187    2691.0296   -43677.217    55.358508   0.95713384 
   44200      215.193    166.25762    130482.39   -41023.421      2677.41   -43700.831    55.383681   0.95716743 
   44300    210.68924    188.39921    130227.45   -41019.068    2621.3747   -43640.443    55.237639   0.95904123 
   44400     214.6032    214.75741    130326.55   -40987.734    2670.0718   -43657.805    55.330113   0.95831199 
   44500    216.86943    149.21021    130217.88   -41002.187     2698.268   -43700.455    55.425899   0.95911167 
   44600     211.4026    223.13152    130360.85   -41062.724    2630.2502   -43692.975    55.818582   0.95805979 
   44700    211.45144    99.730461    130396.63   -41027.699    2630.8579   -43658.557    55.901169   0.95779692 
   44800    212.97611    316.80942    130241.22   -40990.224    2649.8277   -43640.052    55.859242   0.95893978 
   44900    215.56811    179.90489    130254.24   -40958.345    2682.0771   -43640.422    55.869732   0.95884397 
   45000    219.90228    125.34401    130276.75   -40980.666    2736.0024   -43716.668    56.028335   0.95867826 
   45100    216.01551     196.9071    130110.45   -40930.931    2687.6437   -43618.575    56.113051   0.95990364 
   45200    217.50778    168.49223    130241.92    -40991.96    2706.2104    -43698.17    56.422453   0.95893469 
   45300    213.88449    79.878837    130119.16   -40998.751    2661.1296    -43659.88    56.401815   0.95983934 
   45400    216.12694    15.831491    129995.25   -40971.857    2689.0301   -43660.887    56.208007   0.96075426 
   45500    213.96006    126.23848    129894.53   -40978.777    2662.0699   -43640.847    56.171044   0.96149925 
   45600    212.15567    239.84195    129991.26   -40966.738    2639.6199   -43606.358    56.212954   0.96078375 
   45700    212.95142     62.13922    130055.03   -40974.278    2649.5205   -43623.799    56.228133   0.96031265 
   45800    221.52777    205.95705    130214.65   -40927.489    2756.2266   -43683.716    56.596808   0.95913545 
   45900    217.99823    205.18978    130266.88   -40875.965    2712.3124   -43588.278    56.515393    0.9587509 
   46000    218.01666   -31.509168     130354.6   -40874.711    2712.5417   -43587.253     56.48674   0.95810573 
   46100    222.03361    246.93686    130372.74   -40831.978    2762.5203   -43594.498     56.81335   0.95797241 
   46200    223.41787    141.20818    130336.97   -40842.121    2779.7431   -43621.864    56.891942   0.95823535 
   46300    220.45917    273.69638    130281.52   -40861.277    2742.9312   -43604.208    56.854054   0.95864317 
   46400    219.67026    221.11355    130390.11   -40897.051    2733.1157   -43630.166    56.924216   0.95784483 
   46500    220.61922    206.89464    130341.74   -40915.726    2744.9225   -43660.649    57.118742   0.95820031 
   46600    218.18126     85.39914    130514.96   -40899.838    2714.5896   -43614.427     57.38974   0.95692857 
   46700    212.68921   -106.14621    130328.36    -40983.35    2646.2581   -43629.608     57.35292   0.95829864 
   46800    213.01655    81.202913    130100.51   -41029.289    2650.3309    -43679.62    57.188702   0.95997695 
   46900    219.33679    84.557715    130146.92   -40953.591    2728.9667   -43682.558    57.144616   0.95963463 
   47000    217.70348    246.90097    130071.22   -40936.281    2708.6452   -43644.926    57.332946   0.96019314 
   47100    215.53452    359.63298    130146.53   -40912.306    2681.6591   -43593.966    57.260934   0.95963753 
   47200    217.62271    221.90316    130059.07   -40971.748    2707.6402   -43679.388    57.436989    0.9602828 
   47300    214.12835    21.993258    130266.86   -40991.427    2664.1638    -43655.59    57.504369   0.95875104 
   47400    216.58511    106.93841    130134.79   -40950.365    2694.7305   -43645.096    57.532575   0.95972406 
   47500      222.193    240.12748    130195.81   -40890.993    2764.5034   -43655.497    57.709344   0.95927428 
   47600    218.76518    196.98548    130253.32   -40855.747    2721.8547   -43577.601    57.757733   0.95885072 
   47700    217.02626   -52.339591    130283.06   -40906.762    2700.2193   -43606.981    57.669895   0.95863187 
   47800    221.43615    205.29446    130292.83   -40934.015    2755.0867   -43689.101    57.847987   0.95855997 
   47900    215.83107    119.56087    130190.14   -41023.267    2685.3488   -43708.616     57.94459   0.95931605 
   48000    212.36391   -2.7143042    130169.68   -41044.053    2642.2108   -43686.264    58.229583   0.95946684 
   48100    214.03246    287.43177    130107.39    -41024.52    2662.9707   -43687.491    58.231223   0.95992619 
   48200    212.81936    120.60667    130234.36   -41052.693    2647.8775   -43700.571     58.14466   0.95899029 
   48300     214.7881    8.7132797    130205.11    -41033.79    2672.3724   -43706.163    58.353917   0.95920575 
   48400    220.86517    244.83821    130300.02   -40949.361    2747.9827   -43697.343    58.288692    0.9585071 
   48500    217.42276    135.32822    130156.65   -41016.447    2705.1524     -43721.6    58.333154   0.95956289 
   48600    215.54761    265.63261     130132.9   -41009.727    2681.8221   -43691.549    58.529381   0.95973802 
   48700    219.42669    148.88623    130231.39   -40968.083    2730.0852   -43698.168    58.443581   0.95901218 
   48800    209.21897    240.30781    130091.36   -40989.361    2603.0817   -43592.442     58.45929   0.96004444 
   48900    217.95566    115.00746    130201.02   -40983.995    2711.7827   -43695.778     58.75835    0.9592359 
   49000    215.81133    339.43321    130092.71   -41021.771    2685.1032   -43706.875    58.804139   0.96003455 
   49100    217.42991    216.50929    130208.65   -41025.641    2705.2415   -43730.883    58.828573   0.95917966 
   49200    215.08416    13.132504    130145.64   -41050.747    2676.0559   -43726.802    58.962949   0.95964406 
   49300    214.41052    142.94648     130243.6   -40998.005    2667.6745    -43665.68    58.894132   0.95892228 
   49400    215.20176     114.4437    130161.74   -40974.567    2677.5191   -43652.086    58.943241   0.95952537 
   49500    216.97069    251.56326    130067.33   -40992.087    2699.5279   -43691.615    59.138661   0.96022181 
   49600    216.76083    52.235929     130121.5   -40985.183    2696.9169     -43682.1    59.405707   0.95982207 
   49700    211.27844    63.192401    130190.19   -40991.589    2628.7055   -43620.295    59.548529   0.95931566 
   49800    213.87785     231.5576     130114.4   -41031.785    2661.0471   -43692.833    59.484309   0.95987444 
   49900    219.29273    112.97319    130225.71   -40936.977    2728.4184   -43665.396    59.659053   0.95905401 
   50000    215.85124     180.6252    130207.98   -40968.421    2685.5998   -43654.021    59.587673   0.95918462 
   50100     218.6475    152.43566    130279.42   -40978.614    2720.3906   -43699.005    59.686251   0.95865862 
   50200    217.40977    132.47932    130338.63   -41028.666    2704.9909   -43733.657    59.663058   0.95822312 
   50300    216.92155    204.79618    130475.17   -41005.406    2698.9165   -43704.323    59.964878   0.95722035 
   50400    214.35974    141.26962    130508.28    -41040.81    2667.0427   -43707.852    60.287085    0.9569775 
   50500    213.06373    299.38101    130392.98   -41086.402    2650.9179    -43737.32    60.198758   0.95782377 
   50600    213.22317     420.5528    130510.77   -41099.659    2652.9016   -43752.561    60.368089   0.95695928 
   50700    214.82554    235.65725    130786.56   -41112.619    2672.8381   -43785.457    60.535164   0.95494135 
   50800    214.17992    55.651402    130685.36   -41116.646    2664.8054   -43781.451     60.51736   0.95568079 
   50900    216.84894   -67.088317    130730.89   -41041.082     2698.013   -43739.095    60.325868   0.95534794 
   51000    212.52831    2.2321048     130765.9   -41081.903    2644.2562    -43726.16    60.237584    0.9550922 
   51100    214.01547    204.37836    130786.81   -41104.481    2662.7593   -43767.241    60.592743   0.95493947 
   51200    215.48494     246.3331    130925.54   -41092.829    2681.0423   -43773.872    60.808722   0.95392764 
   51300     210.2311    147.96446    130881.32   -41146.692    2615.6746   -43762.367    60.698551   0.95424997 
   51400    208.71349    286.26108    131060.53   -41141.572    2596.7926   -43738.365    60.742316   0.95294513 
   51500    213.07296    209.00602    131057.77   -41144.645    2651.0327   -43795.677    60.725093   0.95296518 
   51600    213.72074    7.7383434    130951.28    -41086.51    2659.0923   -43745.603    60.998456   0.95374013 
   51700    214.58161    117.52299    130952.84   -41081.684    2669.8031   -43751.487     61.12371   0.95372878 
   51800    213.19401    183.32839    130981.17   -41126.859    2652.5388   -43779.398    61.046465   0.95352248 
   51900    211.90523     56.09394     130687.7   -41173.547    2636.5039   -43810.051    60.796003   0.95566373 
   52000    215.34951    118.12919    130630.76   -41198.357    2679.3574   -43877.714    60.996424   0.95608023 
   52100    212.00284    282.71859    130642.56   -41136.324    2637.7183   -43774.042    61.145312   0.95599389 
   52200    211.97868    161.57953    130838.52   -41160.526    2637.4178   -43797.944    61.212874   0.95456209 
   52300    217.49523    79.329645    130689.78   -41151.278    2706.0541   -43857.332    61.425681   0.95564847 
   52400     217.7513    167.75513    130884.14   -41114.977    2709.2402   -43824.218    61.572792   0.95422941 
   52500    212.27488    186.92763    130895.62   -41108.123     2641.103   -43749.226    61.710514   0.95414567 
   52600    214.05414    242.72247    130870.87   -41129.351    2663.2404   -43792.591     61.66888   0.95432613 
   52700    214.94049    277.71024       130922   -41149.752    2674.2683   -43824.021    61.816704   0.95395345 
   52800    217.23216    249.41796    130952.85    -41109.59     2702.781   -43812.371    61.735533    0.9537287 
   52900    215.98134    86.337142    130830.66   -41102.275    2687.2185   -43789.493    61.753278   0.95461943 
   53000    212.59892    52.180749    130981.34   -41080.844    2645.1348   -43725.979    61.734933   0.95352123 
   53100    211.17791    75.083406    130959.96   -41126.742    2627.4546   -43754.196    61.817594   0.95367695 
   53200    214.13631    147.25686     130818.7   -41108.032    2664.2628   -43772.295    61.994986   0.95470671 
   53300     212.1597    146.63484     130930.7   -41089.208      2639.67   -43728.878    62.045421   0.95389001 
   53400    211.94521     227.9727    130857.57   -41169.926    2637.0014   -43806.927    61.994075   0.95442316 
   53500    213.24203     144.8068       130820   -41189.052    2653.1363   -43842.188    62.062856    0.9546972 
   53600    209.89501    127.54841    130812.68     -41196.1     2611.493   -43807.593    62.119956   0.95475062 
   53700    211.85617    5.9311709    130778.11   -41230.718    2635.8935   -43866.611    62.289792   0.95500306 
   53800    214.84161   -1.1357755    131042.28   -41125.281    2673.0381   -43798.319    62.321478    0.9530778 
   53900    211.93138    284.78388    131039.31   -41186.874    2636.8293   -43823.704    62.551352   0.95309945 
   54000    219.05133    151.35067    131037.28   -41175.276     2725.415   -43900.691    62.685832   0.95311416 
   54100     217.2357    79.972287    131045.47   -41200.392    2702.8251   -43903.217    62.635303   0.95305461 
   54200    213.57643    28.418259    130989.19   -41183.564    2657.2968    -43840.86    62.867916    0.9534641 
   54300    215.27055    95.103022    131132.16   -41154.844    2678.3749   -43833.219    62.793956   0.95242457 
   54400    215.52499    246.17119    131123.66   -41183.364    2681.5406   -43864.905    62.931502   0.95248629 
   54500    213.28219    181.04635    131133.93   -41176.889     2653.636   -43830.525    62.910584   0.95241172 
   54600    214.88686    116.41444    131111.28   -41086.055    2673.6011   -43759.656    62.871559   0.95257626 
   54700    218.25811   -28.787655    130975.14   -41102.957    2715.5458   -43818.503    62.897352   0.95356637 
   54800     215.6772    31.003031    130981.24   -41161.596    2683.4344    -43845.03    63.039368   0.95352197 
   54900    215.08984     223.9938    131075.76   -41206.786    2676.1265   -43882.913    63.432481   0.95283439 
   55000    209.58104    170.24347    131123.81   -41250.095    2607.5866   -43857.681    63.526557   0.95248521 
   55100    211.23652    265.37606    131058.96   -41212.041    2628.1838   -43840.225    63.760431   0.95295654 
   55200    210.50677    300.55232    131030.78   -41223.556    2619.1045    -43842.66    63.602158   0.95316147 
   55300    216.23479   -44.507425    130945.18   -41164.721    2690.3719   -43855.093    63.408374   0.95378455 
   55400    217.25922    119.13411    130904.21   -41149.808    2703.1177   -43852.926    63.542429   0.95408305 
   55500    215.33813    164.24131    130925.63   -41091.158    2679.2157   -43770.374    63.542031   0.95392697 
   55600    218.41207    138.44557    130753.62    -41126.67    2717.4613   -43844.131      63.7153    0.9551819 
   55700    212.98951    189.25227    130739.47   -41114.205    2649.9945   -43764.199    63.773205   0.95528527 
   55800    219.53697    245.93785    131037.76   -41121.421    2731.4573   -43852.878    63.979718   0.95311071 
   55900    217.46879    302.67299    130982.15   -41084.639    2705.7252   -43790.364    64.120963   0.95351539 
   56000    216.26181    149.45718    130906.36    -41081.34     2690.708   -43772.048    64.081665   0.95406738 
   56100    217.54688     220.2284    131132.23   -41041.686    2706.6968   -43748.383    64.181298   0.95242407 
   56200     220.9435    50.617602    131185.77   -41046.665    2748.9571   -43795.622    64.165032   0.95203533 
   56300    216.29338     58.81425    131194.64     -41101.7    2691.1009   -43792.801    64.158928   0.95197097 
   56400    219.46305    130.13938    131120.35   -41098.125    2730.5376   -43828.662    64.059854   0.95251034 
   56500    213.66448    40.143683    131113.83   -41180.901    2658.3923   -43839.294    64.060407   0.95255773 
   56600    217.23862     143.6543    131095.68   -41202.052    2702.8614   -43904.914     64.21523    0.9526896 
   56700    212.04328    211.19303     131150.6   -41231.108    2638.2215   -43869.329    64.196574   0.95229069 
   56800    219.08762    283.53537    131247.58   -41170.839    2725.8665   -43896.705    64.206889   0.95158701 
   56900    214.21178    331.11288    131288.98   -41156.571    2665.2018   -43821.772    64.390052   0.95128692 
   57000    218.02399    146.75104    131369.18   -41094.371    2712.6329   -43807.004    64.513017    0.9507062 
   57100    212.44462    228.60229    131194.54   -41160.254    2643.2149   -43803.469    64.487258   0.95197175 
   57200    212.26434    109.35495    131177.76   -41195.982    2640.9719   -43836.954    64.414775   0.95209349 
   57300    212.92345    117.44063    131211.72   -41230.135    2649.1726   -43879.307    64.475308   0.95184709 
   57400    212.83337    54.819612    131179.07   -41235.114    2648.0517   -43883.165    64.544729     0.952084 
   57500    212.16243    232.24056       131083   -41288.043     2639.704   -43927.747     64.69954   0.95278176 
   57600    211.08897    86.905036     131020.9    -41241.69    2626.3481   -43868.038    64.762132   0.95323333 
   57700    210.47086    199.30919    131006.65   -41292.788    2618.6577   -43911.446    64.839533   0.95333702 
   57800     209.6694    44.389469    130988.84   -41319.233    2608.6859   -43927.919    64.596308   0.95346668 
   57900    215.69736     52.48992       131032     -41288.2    2683.6852   -43971.885    64.802482   0.95315261 
   58000    206.47671    154.99504    130964.51   -41288.794    2568.9629   -43857.757    64.923763   0.95364379 
   58100    214.14106    257.26193     130994.4   -41226.967    2664.3219   -43891.289    64.847896   0.95342621 
   58200    214.55614    165.44434    131071.19   -41183.718    2669.4863   -43853.204    64.741887   0.95286759 
   58300    215.72999    51.543402    131042.03   -41121.318    2684.0912    -43805.41    64.785676   0.95307962 
   58400    212.89832    153.23199    131009.55   -41119.757    2648.8599   -43768.617    65.040683   0.95331594 
   58500     214.8269    210.24893    131006.57   -41122.801    2672.8551   -43795.656    65.035985   0.95333763 
   58600    216.45908    193.53709    131095.01   -41085.652    2693.1625   -43778.815    65.022447    0.9526945 
   58700     215.0222    64.195629     131102.9   -41075.542    2675.2849   -43750.827    65.284461   0.95263714 
   58800    214.54018    205.76463    130981.01   -41111.944    2669.2877   -43781.232    65.288829   0.95352369 
   58900    211.48428    259.61342    130940.69   -41149.595    2631.2666   -43780.862    65.292681   0.95381725 
   59000     213.9974    119.60892    131012.11   -41115.058    2662.5345   -43777.593    65.402739    0.9532973 
   59100    213.82578    92.316194    131049.55   -41118.202    2660.3992   -43778.601    65.208075   0.95302495 
   59200    215.12711    157.91975    131067.28   -41134.159    2676.5903   -43810.749    65.225605   0.95289606 
   59300    212.44265    169.66952    131124.53   -41122.971    2643.1904   -43766.161    65.445136   0.95247997 
   59400    213.76025    108.28975    131242.15   -41170.236    2659.5839    -43829.82    65.635552   0.95162635 
   59500    215.55512    263.15345       131024   -41136.575    2681.9155    -43818.49     65.68295   0.95321076 
   59600    216.05492    131.29331    130867.57   -41136.536     2688.134    -43824.67    65.798087   0.95435019 
   59700    214.07101    196.38574    130987.25   -41158.337    2663.4504   -43821.788      65.8346   0.95347827 
   59800    212.82928    77.647133     131177.6   -41150.642    2648.0008   -43798.643    66.230221   0.95209462 
   59900    213.99204    316.83926    131066.37   -41140.897    2662.4678   -43803.365    66.104928   0.95290267 
   60000    213.59909    165.70458    131065.68   -41183.536    2657.5788   -43841.115    66.390958   0.95290764 
   60100    214.40559     158.8613    131118.04   -41158.421    2667.6132   -43826.034    66.290567    0.9525271 
   60200     215.3607    82.973287    131269.73   -41138.619    2679.4966   -43818.116    66.566162   0.95142646 
   60300    221.00118    79.952206    131134.86   -41116.148    2749.6748   -43865.823    66.340858   0.95240493 
   60400    218.97028   -59.173664     131176.5   -41082.498    2724.4066   -43806.905    66.395801   0.95210266 
   60500    218.88158    104.26813    131215.07    -41118.27     2723.303   -43841.573    66.636488   0.95182278 
   60600    213.37442    234.25179    131074.45   -41160.859    2654.7834   -43815.643     66.81451   0.95284389 
   60700    213.11633     157.0127    131255.81   -41190.159    2651.5724   -43841.731    66.911146   0.95152737 
   60800    213.58941    218.00745    131080.59   -41146.141    2657.4583     -43803.6    66.856931   0.95279924 
   60900    212.66168    9.9003075    131127.04   -41132.741    2645.9156   -43778.657    67.058722   0.95246174 
   61000    215.19657    170.32126    131132.13   -41162.266    2677.4544    -43839.72    67.037567   0.95242482 
   61100    215.30298    125.57362    131218.33   -41199.609    2678.7783   -43878.387    67.302156   0.95179915 
   61200    215.83653    167.52722     131327.8   -41207.879    2685.4168   -43893.296    67.257316   0.95100572 
   61300    212.55618    213.98973    131278.55   -41210.352     2644.603   -43854.955    67.125348   0.95136248 
   61400    212.04768    163.16413    131246.44   -41248.169    2638.2763   -43886.446    67.191564   0.95159528 
   61500    212.03272    118.63544    131239.15   -41249.541    2638.0902   -43887.632    67.173997   0.95164813 
   61600    213.08544    109.93478    131128.37   -41215.361     2651.188   -43866.549    67.059876   0.95245209 
   61700    213.16467      258.925    131378.39   -41282.666    2652.1738    -43934.84    67.261635   0.95063952 
   61800    205.05849    50.372158    131350.79   -41345.442    2551.3174   -43896.759     67.50589   0.95083931 
   61900    209.42308    150.12662       131405   -41272.519    2605.6213    -43878.14    67.774486   0.95044704 
   62000    214.32184    175.81961    131295.21   -41223.395    2666.5712   -43889.966    67.587781   0.95124182 
   62100    213.95677    193.88891    131177.94   -41236.093     2662.029   -43898.122    67.616598   0.95209218 
   62200    214.33033    248.28305    131030.82   -41195.276    2666.6768   -43861.953    67.346993    0.9531612 
   62300    211.80775    328.54586    131072.08   -41229.602    2635.2911   -43864.893    67.173756   0.95286116 
   62400    216.11587    234.11048    131052.71   -41175.748    2688.8923   -43864.641    67.177704   0.95300197 
   62500    210.17622    98.802168    131036.83    -41194.28    2614.9918   -43809.272    67.260055   0.95311749 
   62600    212.08462    65.393642       131061   -41195.954    2638.7359    -43834.69    67.399474   0.95294172 
   62700    213.77788    104.14501    130893.44   -41220.717    2659.8033   -43880.521    67.318731   0.95416154 
   62800    214.85092    143.81238    131019.85   -41204.115    2673.1539   -43877.269    67.703148   0.95324095 
   62900    218.10482    169.95594     131069.3    -41155.82    2713.6385   -43869.458    67.911693   0.95288137 
   63000    217.86099     253.4985    131025.69   -41115.277    2710.6049   -43825.882    67.857904   0.95319851 
   63100    216.28274    72.173972    130805.72    -41116.98    2690.9685   -43807.949    67.831493   0.95480146 
   63200    215.22429    299.12416    130862.92    -41151.54    2677.7993    -43829.34    67.832695   0.95438413 
   63300    218.44425    230.15769    131130.99   -41185.365    2717.8617   -43903.226    67.745164   0.95243306 
   63400    220.73475    166.76342    131257.19   -41108.198      2746.36   -43854.558    68.002004   0.95151737 
   63500    213.95978    21.423543    131178.05   -41205.559    2662.0664   -43867.625    67.978219    0.9520914 
   63600     211.6971     87.53092    131219.91   -41207.692    2633.9143   -43841.606    67.965681   0.95178766 
   63700    212.80907    162.05345    130995.41   -41198.094    2647.7494   -43845.843    67.853713   0.95341884 
   63800    213.06603    128.62518    131110.04    -41297.74    2650.9465   -43948.687    67.963434   0.95258528 
   63900    210.05854    182.20409    131139.06   -41285.324    2613.5276   -43898.851    68.136358   0.95237444 
   64000    215.04851    45.383087     131117.7    -41271.02    2675.6124   -43946.632    68.367289    0.9525296 
   64100    215.70265   -27.925334    130951.19   -41186.462    2683.7511   -43870.213    68.227126   0.95374077 
   64200    211.49514    211.78745    131002.55   -41173.063    2631.4016   -43804.464    68.123616   0.95336686 
   64300    220.38373    201.18384    131193.87   -41079.529    2741.9926   -43821.522    68.094073   0.95197655 
   64400    217.86565    41.253576    131162.85   -41110.265    2710.6629   -43820.928    68.044441    0.9522017 
   64500    219.41011    227.21526     131264.6   -41094.761    2729.8788    -43824.64    68.030599   0.95146364 
   64600    214.41864    229.47299     131327.3   -41147.512    2667.7756   -43815.287    68.420672   0.95100935 
   64700    216.04148     116.1799    131322.25   -41161.607    2687.9667   -43849.573    68.485396   0.95104596 
   64800    212.07486      145.126    131284.14   -41165.397    2638.6144   -43804.011    68.505371   0.95132199 
   64900    214.05066    90.595737    131119.04   -41146.512    2663.1972   -43809.709    68.544351   0.95251985 
   65000    217.93599    11.707466    131073.12   -41111.278     2711.538   -43822.817    68.410377   0.95285354 
   65100    214.70821    190.69588    131246.42   -41138.404    2671.3783   -43809.783    68.626327   0.95159541 
   65200    217.67585    290.84874    131251.23   -41133.283    2708.3014   -43841.585    68.668405   0.95156056 
   65300    216.88746    162.50147     131038.7   -41136.121    2698.4923   -43834.613    68.663403   0.95310383 
   65400    218.65631    192.23578    131064.19   -41096.959    2720.5002    -43817.46    68.676818   0.95291851 
   65500    215.30726    131.19236    131210.65   -41153.954    2678.8316   -43832.786    68.749089   0.95185483 
   65600    219.39125    105.72957    131319.59    -41190.98    2729.6442   -43920.624    68.906852   0.95106518 
   65700    214.04405    178.52904    131374.57   -41239.125    2663.1149    -43902.24    68.521767   0.95066716 
   65800    210.48031    135.93276    131406.61   -41241.239    2618.7752   -43860.014     68.72031   0.95043535 
   65900    213.94681      167.421    131378.84   -41210.553     2661.905   -43872.458     69.03105   0.95063626 
   66000    218.33499    78.155352     131552.9   -41113.689    2716.5023   -43830.191     69.26182   0.94937848 
   66100    223.30969    45.716354    131494.58   -41065.245    2778.3971   -43843.642    69.202831   0.94979955 
   66200    216.04844     264.1443    131465.95   -41034.325    2688.0533   -43722.378    69.275862   0.95000641 
   66300    220.67532    279.10382    131444.56   -41069.357    2745.6205   -43814.978    69.355274   0.95016094 
   66400    214.18248    105.07993    131385.99   -41109.879    2664.8373   -43774.717    69.257948   0.95058451 
   66500    212.48227    24.828436       131283    -41127.88    2643.6834   -43771.564    69.231261   0.95133029 
   66600    213.04335    243.02609    131351.32   -41141.361    2650.6644   -43792.026    69.473129   0.95083543 
   66700    215.61242    130.73438     131343.6   -41159.226    2682.6284   -43841.855    69.432297   0.95089133 
   66800    218.16129    165.02781     131335.1   -41107.015    2714.3412   -43821.356    69.548223   0.95095291 
[...]
   84600    211.11714    343.24072    131607.27   -41353.052    2626.6986   -43979.751    79.573178   0.94898627 
   84700    209.63745    211.35905    131635.03   -41360.056    2608.2884   -43968.344    79.260994   0.94878612 
   84800    213.00009    152.80586    131586.64   -41325.996     2650.126   -43976.122    79.376518   0.94913501 
   84900    215.18846    174.88035    131545.36   -41304.533    2677.3535   -43981.887    79.319792   0.94943287 
   85000    220.18398    109.44299    131593.18   -41258.539    2739.5073   -43998.046    79.463559   0.94908787 
   85100    217.17424    140.86675    131615.23   -41264.806    2702.0605   -43966.866    79.597097    0.9489289 
   85200    214.51417    100.32981    131556.49   -41257.851    2668.9641   -43926.815    79.727983   0.94935255 
   85300    209.82594    234.00462    131527.44   -41293.978    2610.6336   -43904.612     79.82841   0.94956226 
   85400    217.04412    144.44224    131534.74   -41272.347    2700.4415   -43972.789    79.919364   0.94950956 
   85500    215.90277    147.35705    131618.22   -41232.033     2686.241   -43918.274    80.006863   0.94890732 
   85600    218.11805    72.349077    131729.01   -41216.912    2713.8032   -43930.715    80.196474   0.94810922 
   85700    211.67737    200.22587     131657.9   -41263.028     2633.669   -43896.697    80.219151   0.94862131 
   85800     217.6615    12.631768    131766.88   -41279.177    2708.1228     -43987.3    80.449796   0.94783676 
   85900    221.37748    203.17832     131628.2   -41191.283    2754.3567    -43945.64    80.269412   0.94883534 
   86000    214.34867   -73.425078    131514.33   -41255.388    2666.9049   -43922.293     80.20138   0.94965692 
   86100    218.84376    151.38474    131386.83   -41262.041    2722.8325   -43984.873    80.127467   0.95057844 
   86200     217.8433    168.33277    131332.34   -41231.939    2710.3848   -43942.324    80.207137   0.95097286 
   86300    216.66184    313.47953    131394.24   -41257.439    2695.6852   -43953.124      80.2542   0.95052484 
   86400    215.28059    96.090181    131566.32   -41279.273    2678.4998   -43957.772    80.380396   0.94928166 
   86500    212.86945    121.65576    131549.38   -41272.455    2648.5006   -43920.956    80.824438   0.94940387 
   86600    217.68856  -0.10758372    131485.06   -41221.062    2708.4595   -43929.521    80.565498   0.94986833 
   86700    215.42568    65.171546    131376.67   -41215.994     2680.305   -43896.299    80.612357   0.95065195 
   86800    213.59239    244.45211    131440.45   -41288.433    2657.4954   -43945.928    80.717987   0.95019068 
   86900     219.9461    94.830429    131418.42   -41248.451    2736.5476   -43984.999    80.688114      0.95035 
   87000    213.60647    4.0941943    131510.16   -41248.954    2657.6706   -43906.624     80.85851   0.94968699 
   87100    213.13041    231.36691    131417.16   -41280.245    2651.7475   -43931.992    81.190127   0.95035905 
   87200    216.79313    83.648284    131322.37   -41262.435    2697.3187   -43959.754    81.272189   0.95104506 
   87300    216.78072    252.47611    131401.86   -41275.501    2697.1643   -43972.665    81.295448   0.95046975 
   87400    211.84816    125.58897    131329.37   -41287.492    2635.7938   -43923.286    81.122171   0.95099439 
   87500    216.03201    253.18886    131481.07   -41311.973    2687.8489   -43999.822    80.764144   0.94989711 
   87600    211.29639     101.0445    131533.71   -41321.591    2628.9288    -43950.52    81.057818     0.949517 
   87700    214.84721    246.04013    131416.63   -41339.126    2673.1078   -44012.233    81.290817   0.95036288 
   87800    217.07058    216.37384    131303.53   -41309.046    2700.7707   -44009.817    81.375294   0.95118149 
   87900    211.64376    138.76827    131186.06   -41334.877    2633.2508   -43968.128    81.226703   0.95203322 
   88000    209.71868    62.542783    131231.13   -41348.252    2609.2991   -43957.551    81.239897   0.95170632 
   88100    214.12716    184.75063    131221.95   -41282.178     2664.149   -43946.327    81.313884   0.95177283 
   88200    215.13209    122.91457    131100.07   -41245.567    2676.6522   -43922.219    81.079684   0.95265767 
   88300    214.23037    52.787284    131027.62   -41258.881    2665.4331   -43924.314    81.177372   0.95318447 
   88400    213.77615    123.09868    131151.35    -41353.31    2659.7817   -44013.092    81.424664    0.9522852 
   88500    219.64431    224.82494    131358.21   -41267.651    2732.7928   -44000.444    81.625561   0.95078555 
   88600    216.25853    101.11985    131491.82   -41229.871    2690.6673   -43920.539    82.055537   0.94981951 
   88700      217.483    165.86423    131465.72   -41207.647     2705.902   -43913.549    81.820588   0.95000802 
   88800    217.72585    139.76664     131544.5   -41147.082    2708.9235   -43856.006    81.529617    0.9494391 
   88900    216.61727    278.19506    131550.01   -41204.041    2695.1307   -43899.172    81.536379   0.94939935 
   89000    218.00032    156.51538    131674.63   -41211.479    2712.3384   -43923.818     81.51815   0.94850077 
   89100     215.8711    91.104362    131708.21   -41306.278    2685.8468   -43992.125    81.647153   0.94825893 
   89200    213.21604    196.09765    131759.09   -41352.882    2652.8129   -44005.695    82.037149   0.94789282 
   89300    210.93466    185.53601    132038.88    -41367.98    2624.4282   -43992.408    82.421886   0.94588421 
   89400    214.51429    27.171304    132078.83   -41392.436    2668.9656   -44061.402    82.394623   0.94559811 
   89500    211.60794    259.03152    132055.34   -41430.508     2632.805   -44063.313      82.0576   0.94576629 
   89600    208.62856    146.56325    131942.34   -41469.719    2595.7359   -44065.455    81.988975   0.94657627 
   89700    213.16933    211.43769    131970.88   -41428.596    2652.2318   -44080.828     82.00401   0.94637158 
   89800    211.00773    155.24029    131936.15   -41384.538    2625.3374   -44009.875    82.132439   0.94662068 
   89900    211.73352    129.68743    131820.98   -41434.289    2634.3676   -44068.657    82.128372   0.94744778 
   90000     213.6329     264.6461    131878.49   -41357.016    2657.9995   -44015.015    82.048593    0.9470346 
   90100    212.73327    163.12555    131855.73   -41376.972    2646.8063   -44023.779    82.002668   0.94719807 
   90200    216.98508    84.103035     131812.2   -41413.753    2699.7069    -44113.46    81.840365   0.94751084 
   90300    211.33331    207.83831    131730.63   -41422.396    2629.3881   -44051.784    82.108928   0.94809757 
   90400    211.56698   -18.055476    131671.24   -41410.039    2632.2954   -44042.334     82.08885   0.94852524 
   90500    216.20918    162.16396    131721.96   -41377.736    2690.0533   -44067.789    82.304127   0.94815997 
   90600     219.9133    205.73163    131675.47   -41284.249    2736.1395   -44020.388    82.237765   0.94849473 
   90700    218.08406    195.67045    131757.47   -41282.222    2713.3803   -43995.602    82.199348   0.94790441 
   90800    214.50284    162.65445     131826.1    -41322.92    2668.8232   -43991.744     82.13694   0.94741098 
   90900    211.78581    225.94295    131896.91   -41403.255    2635.0181   -44038.273    82.263512   0.94690233 
   91000    209.03973    132.36138    131830.43   -41415.504    2600.8517   -44016.355    82.285773   0.94737986 
   91100    212.54131     48.26583    131797.92   -41405.311    2644.4179   -44049.729    82.364785   0.94761352 
   91200    212.94886    221.87682    131737.21   -41366.364    2649.4886   -44015.853    82.644584   0.94805026 
   91300    218.54213    260.29124    131790.15    -41277.15    2719.0796    -43996.23     82.97386   0.94766941 
   91400    216.34408    114.35225    131850.82   -41253.144    2691.7317   -43944.875    82.586446    0.9472333 
   91500    215.23709    147.10454     131963.1   -41263.457    2677.9586   -43941.416    82.371466   0.94642737 
   91600     216.6679    130.47248    131822.91   -41315.671    2695.7606   -44011.431    82.609017   0.94743385 
   91700    214.88551     109.9247    131914.65   -41392.219    2673.5843   -44065.803    82.759513   0.94677496 
   91800    215.96898    307.35023    131924.06   -41360.042    2687.0647   -44047.107    83.098618   0.94670748 
   91900    213.88757    24.800706    132078.26   -41356.473     2661.168   -44017.641    83.100065   0.94560221 
   92000    211.79145    35.846491    132008.38   -41363.814    2635.0882   -43998.902    83.157025   0.94610274 
   92100    217.60226    194.53921    131914.08   -41414.426    2707.3858   -44121.812    83.082031   0.94677906 
   92200    216.81157    164.57717    131884.81   -41367.246    2697.5481   -44064.794    83.037287   0.94698924 
   92300    219.66097     150.1657    131890.21    -41291.96    2733.0001    -44024.96    82.943349   0.94695044 
   92400    216.43266    147.95089    132001.75   -41299.409    2692.8337   -43992.242    82.937684    0.9461503 
   92500    215.86427    118.72367    131917.44    -41343.45    2685.7619   -44029.212    82.896662   0.94675496 
   92600    219.30372    210.22512    131851.44   -41310.775    2728.5552   -44039.331    82.911615   0.94722885 
   92700    216.57105    211.20646    131995.19   -41304.153    2694.5555   -43998.709      83.1655   0.94619728 
   92800    215.10271    7.4671817    132005.66    -41358.35    2676.2867   -44034.637    83.252754   0.94612228 
   92900    217.59571    6.2110071    132044.52   -41322.829    2707.3043   -44030.133    83.156815   0.94584378 
   93000    216.45789    182.85175    131979.79   -41347.383    2693.1477   -44040.531    83.066782   0.94630768 
   93100    220.49308    220.13418    131933.64   -41292.221    2743.3531   -44035.574    83.202336   0.94663874 
   93200    216.10255    42.776563    132124.92    -41311.09    2688.7265   -43999.817    83.382582   0.94526826 
   93300    217.03026    194.68458    131807.85   -41329.013    2700.2691   -44029.282    83.133461   0.94754212 
   93400    214.38337    161.98667    131764.18   -41359.355    2667.3367   -44026.692    83.106379   0.94785619 
   93500    215.07511    76.454418    131966.02   -41395.269    2675.9432   -44071.213    83.220494   0.94640643 
   93600    208.58734    57.981738    131888.27   -41449.323    2595.2231   -44044.546    83.256182   0.94696438 
   93700    209.86606     112.8277    131869.95   -41407.423    2611.1328   -44018.556    83.320647   0.94709593 
   93800    211.91683     81.20856     131720.9   -41370.211    2636.6482    -44006.86    83.363319   0.94816762 
   93900    212.52347    141.16821    131855.72    -41357.57    2644.1961   -44001.766    83.430002   0.94719815 
   94000    216.39109    297.01611    131916.22   -41352.872    2692.3166   -44045.188    83.469702    0.9467637 
   94100    211.64798    109.42878    131872.99   -41350.977    2633.3032    -43984.28    83.419274   0.94707408 
   94200    214.93869    127.28319    131887.01   -41336.412     2674.246   -44010.658    83.578817    0.9469734 
   94300     217.0288    206.08208    132010.05   -41286.847    2700.2509   -43987.098    83.745558   0.94609078 
   94400    217.35793    97.434078    132100.25   -41275.492    2704.3458   -43979.838    83.750139   0.94544475 
   94500    219.61743    109.74723    131902.82   -41215.338    2732.4583   -43947.796    83.738065    0.9468599 
   94600    216.29299    235.90711    131844.27   -41253.568    2691.0959   -43944.664    83.648724   0.94728037 
   94700    214.62739    29.435906    131732.45    -41289.06    2670.3728   -43959.432    83.929172   0.94808451 
   94800    213.48099    106.80214    131714.82   -41277.998    2656.1094   -43934.107     84.21699   0.94821135 
   94900    218.19278    194.83203    131739.69   -41244.897     2714.733    -43959.63    84.080397   0.94803236 
   95000    218.86524    292.82247    131937.05   -41236.693    2723.0997   -43959.792    84.371794   0.94661421 
   95100     217.3406    15.432422    131821.56   -41229.962    2704.1302   -43934.092    84.243582    0.9474436 
   95200    214.69553    56.977082     131682.5   -41257.887    2671.2205   -43929.108      84.0744   0.94844408 
   95300    219.56231    66.958595    131480.32   -41167.515    2731.7725   -43899.287    83.726847   0.94990258 
   95400    219.27112    191.59343    131494.32   -41221.712    2728.1496   -43949.862    84.181299    0.9498014 
   95500    217.51834    136.57601    131550.22   -41240.339    2706.3417   -43946.681    84.203881   0.94939785 
   95600    214.80958    5.0361979    131478.56   -41232.136    2672.6396   -43904.776    84.349869   0.94991525 
   95700    215.48097    24.208325    131299.84   -41290.123    2680.9929   -43971.116    84.384413   0.95120824 
   95800    213.88603    298.49966    131328.64   -41319.589    2661.1489   -43980.738    84.326221   0.95099962 
   95900     217.4258    194.27068    131585.92   -41262.082    2705.1903   -43967.272    84.368688   0.94914022 
   96000    214.60638   -49.693631    131637.25   -41328.456    2670.1113   -43998.567    84.316065    0.9487701 
   96100    215.31924     118.1633    131530.31   -41272.158    2678.9807   -43951.138    84.319776   0.94954155 
   96200    210.32228    94.307946       131479   -41312.871    2616.8091    -43929.68    84.384174   0.94991205 
   96300    212.84259    102.21676    131508.03   -41250.632    2648.1664   -43898.799    84.701047   0.94970241 
   96400    215.20716    11.236655    131486.76   -41217.538    2677.5862   -43895.125    84.484938   0.94985601 
   96500    214.86207     313.6743    131428.52   -41253.723    2673.2926   -43927.016    84.385405   0.95027692 
   96600    216.20879    186.31659    131384.07   -41253.443    2690.0483   -43943.491    84.747051    0.9505984 
   96700    213.80763    174.36984    131571.63   -41332.465    2660.1733   -43992.638    84.687212   0.94924331 
   96800    208.40363    280.60158    131544.88   -41386.839    2592.9373   -43979.776    84.620412   0.94943632 
   96900    210.69769    60.722265    131480.26   -41333.346    2621.4798   -43954.826    84.682502   0.94990296 
   97000    212.46695     335.2564    131538.06   -41331.845    2643.4928   -43975.338    84.989737   0.94948558 
   97100     212.3612    174.77592    131588.47   -41326.083     2642.177    -43968.26    84.995248   0.94912184 
   97200    214.70103    187.65217    131419.67   -41332.962     2671.289   -44004.251    85.004698   0.95034096 
   97300    212.16387    202.90976    131407.89    -41337.09     2639.722   -43976.812    85.053612   0.95042616 
   97400    209.35171   -52.171335    131531.91   -41334.743    2604.7332   -43939.476    85.133826   0.94952998 
   97500    216.19756    222.15119    131607.85   -41239.003    2689.9086   -43928.911    85.169572   0.94898208 
   97600    213.52751    58.693182    131517.97   -41313.531    2656.6881   -43970.219    85.303588   0.94963063 
   97700    216.31842    165.10741    131580.56   -41241.642    2691.4124   -43933.055    85.171745   0.94917892 
   97800    216.15206    126.56173    131415.66   -41223.105    2689.3426   -43912.447    85.539489   0.95036991 
   97900    218.00949     168.8341    131421.34   -41192.028    2712.4525    -43904.48    85.647733   0.95032887 
   98000    215.61063    139.71327    131339.16   -41216.429    2682.6062   -43899.035    85.605503   0.95092345 
   98100     213.0306    293.59923    131415.15   -41291.793    2650.5057   -43942.299    85.715594   0.95037359 
   98200    215.55083   -53.235326     131424.2    -41278.83    2681.8621   -43960.692     85.61307   0.95030815 
   98300    217.51163    266.76474    131397.32   -41297.937    2706.2582   -44004.196    85.516905   0.95050261 
   98400    210.68027    61.254819    131434.83   -41321.818    2621.2631   -43943.081    85.460152    0.9502313 
   98500    212.15474    63.353566    131411.65   -41329.699    2639.6083   -43969.307    85.721735   0.95039894 
   98600    212.96148    271.44313    131619.84   -41345.399    2649.6457   -43995.045    85.825688   0.94889566 
   98700    209.88333    128.90683    131450.96   -41397.032    2611.3476    -44008.38    86.047527   0.95011472 
   98800    211.24363    152.86029     131504.3    -41362.31    2628.2724   -43990.582    86.417423   0.94972936 
   98900    214.05441   -3.3428971    131363.53   -41353.639    2663.2439   -44016.883    86.167409    0.9507471 
   99000     209.9282    12.217412    131392.79   -41385.972    2611.9059   -43997.878     85.91591   0.95053533 
   99100    214.30879     265.9104    131288.32   -41301.116    2666.4088   -43967.525    85.881201    0.9512917 
   99200    211.03292     120.1563    131288.34   -41288.769    2625.6507   -43914.419    86.014016   0.95129159 
   99300    214.51702    244.12864    131347.38   -41232.629    2668.9996   -43901.629    86.228855   0.95086395 
   99400    216.02995    86.087984    131571.46   -41204.752    2687.8233   -43892.575     86.45115   0.94924458 
   99500    218.89102    94.915487    131491.56   -41104.186    2723.4204   -43827.606    86.526592   0.94982133 
   99600    218.24806    179.76153    131437.44   -41129.514    2715.4208   -43844.935    86.836095   0.95021246 
   99700    216.58561    82.758954    131466.12   -41144.473    2694.7367    -43839.21    86.985553   0.95000512 
   99800    215.99942    102.08517    131284.67   -41163.879    2687.4435   -43851.322    86.818367   0.95131817 
   99900    219.36863    80.188686    131332.46   -41220.684    2729.3628   -43950.047    86.733436   0.95097201 
  100000     218.1805    153.92896    131241.31   -41234.749    2714.5802   -43949.329    86.513739   0.95163245 
  100100    220.83469    227.99322    131426.75   -41160.907    2747.6033    -43908.51    86.790029   0.95028972 
  100200    215.48294   -73.640079    131403.89   -41165.635    2681.0175   -43846.653    87.157611   0.95045505 
  100300    220.95164    34.074853    131402.88   -41143.689    2749.0585   -43892.748    87.087247   0.95046236 
  100400    217.84518    58.393981    131277.84   -41175.895    2710.4082   -43886.303    86.971635   0.95136769 
  100500    223.25401    196.10563    131273.31   -41100.416    2777.7043    -43878.12    86.995278   0.95140048 
  100600    215.76338    129.20098    131154.41   -41174.582    2684.5067   -43859.089    86.911349   0.95226303 
  100630    213.90866    188.72588    131115.86   -41155.307    2661.4304   -43816.737      86.9133   0.95254294 
Loop time of 81.4114 on 6 procs for 100000 steps with 4175 atoms

Performance: 530.638 ns/day, 0.045 hours/ns, 1228.330 timesteps/s
98.4% CPU use with 6 MPI tasks x no OpenMP threads

MPI task timing breakdown:
Section |  min time  |  avg time  |  max time  |%varavg| %total
---------------------------------------------------------------
Pair    | 65.077     | 66.414     | 68.252     |  12.9 | 81.58
Neigh   | 4.9921     | 5.0085     | 5.0406     |   0.8 |  6.15
Comm    | 5.6065     | 7.451      | 8.8079     |  38.9 |  9.15
Output  | 0.15919    | 0.16003    | 0.16365    |   0.4 |  0.20
Modify  | 1.7436     | 1.7741     | 1.7904     |   1.1 |  2.18
Other   |            | 0.6039     |            |       |  0.74

Nlocal:        695.833 ave         705 max         684 min
Histogram: 1 0 1 0 0 0 1 2 0 1
Nghost:        1470.50 ave        1489 max        1458 min
Histogram: 1 2 1 0 0 0 0 0 1 1
Neighs:        0.00000 ave           0 max           0 min
Histogram: 6 0 0 0 0 0 0 0 0 0
FullNghs:      19307.3 ave       19575 max       18824 min
Histogram: 1 0 0 0 1 1 0 0 1 2

Total # of neighbors = 115844
Ave neighs/atom = 27.747066
Neighbor list builds = 5376
Dangerous builds = 0

undump              1
unfix               2
unfix               3
unfix               4


################################################
#######         Run Simulation         #########
################################################

reset_timestep      0
log                 log.run_${NAME}
log                 log.run_liquid_density_MLmW
