
# Create simulation box of size 50 x 50 x 50 Angstrom
#
lattice	            sc 1
Lattice spacing in x,y,z = 1.0000000 1.0000000 1.0000000
region 	            all block 0 50 0 50 0 50 units box
create_box          1 all
Created orthogonal box = (0.0000000 0.0000000 0.0000000) to (50.000000 50.000000 50.000000)
  1 by 2 by 3 MPI processor grid

# fill box with 4175 randomly distributed atoms
#
create_atoms        1 random 4175 63782 all
Created 4175 atoms
  create_atoms CPU = 0.001 seconds
mass                1 18.015

# Define potential
#
pair_style          sw
pair_coeff          * * ML_mW.sw mW
Reading sw potential file ML_mW.sw with DATE: 2019-02-27

# Run minimization
#
minimize            1.0e-8 1.0e-8 10000 1000
WARNING: Using 'neigh_modify every 1 delay 0 check yes' setting during minimization (../min.cpp:187)
Neighbor list info ...
  update every 1 steps, delay 0 steps, check yes
  max neighbors/atom: 2000, page size: 100000
  master list distance cutoff = 6.0032907
  ghost atom cutoff = 6.0032907
  binsize = 3.0016454, bins = 17 17 17
  1 neighbor lists, perpetual/occasional/extra = 1 0 0
  (1) pair sw, perpetual
      attributes: full, newton on
      pair build: full/bin/atomonly
      stencil: full/bin/3d
      bin: standard
Per MPI rank memory allocation (min/avg/max) = 4.255 | 4.258 | 4.261 Mbytes
Step Temp E_pair E_mol TotEng Press 
       0            0    7792709.3            0    7792709.3    5898794.3 
     630            0   -45180.336            0   -45180.336   -154.07449 
Loop time of 1.21758 on 6 procs for 630 steps with 4175 atoms

99.3% CPU use with 6 MPI tasks x no OpenMP threads

Minimization stats:
  Stopping criterion = max force evaluations
  Energy initial, next-to-last, final = 
      7792709.32924461  -45180.0188663597   -45180.336116598
  Force two-norm initial, final = 2.0191930e+08 4.9721331
  Force max component initial, final = 1.0948746e+08 0.73126211
  Final line search alpha, max atom move = 0.053306038 0.038980685
  Iterations, force evaluations = 630 1000

MPI task timing breakdown:
Section |  min time  |  avg time  |  max time  |%varavg| %total
---------------------------------------------------------------
Pair    | 0.91952    | 1.0333     | 1.1249     |   6.2 | 84.86
Neigh   | 0.024768   | 0.025367   | 0.025824   |   0.2 |  2.08
Comm    | 0.046273   | 0.13809    | 0.25324    |  17.0 | 11.34
Output  | 0          | 0          | 0          |   0.0 |  0.00
Modify  | 0          | 0          | 0          |   0.0 |  0.00
Other   |            | 0.02085    |            |       |  1.71

Nlocal:        695.833 ave         704 max         685 min
Histogram: 1 1 0 0 1 0 0 1 0 2
Nghost:        1494.17 ave        1515 max        1468 min
Histogram: 1 1 0 0 0 0 1 1 1 1
Neighs:        0.00000 ave           0 max           0 min
Histogram: 6 0 0 0 0 0 0 0 0 0
FullNghs:      19997.0 ave       20462 max       19320 min
Histogram: 1 1 0 0 0 0 0 2 0 2

Total # of neighbors = 119982
Ave neighs/atom = 28.738204
Neighbor list builds = 26
Dangerous builds = 0

# Add velocity/set timestep
#
velocity            all create ${TEMP} 120598 rot yes dist gaussian
velocity            all create 215 120598 rot yes dist gaussian
timestep            5.0

# Define output
#
compute	            1 all msd
thermo	            100
thermo_style        custom step temp press vol etotal ke pe c_1[4] density

# Neighbor lists
#
neigh_modify        delay 0 every 1 check yes

# Set fixes
#
fix                 1 all momentum 10 linear 1 1 1 rescale
fix                 2 all nve
fix                 3 all temp/csvr ${TEMP} ${TEMP} 500.0 928347
fix                 3 all temp/csvr 215 ${TEMP} 500.0 928347
fix                 3 all temp/csvr 215 215 500.0 928347
fix                 4 all press/berendsen iso ${PRES} ${PRES} 1000.0 modulus 20000
fix                 4 all press/berendsen iso -750 ${PRES} 1000.0 modulus 20000
fix                 4 all press/berendsen iso -750 -750 1000.0 modulus 20000

# Run 0.5 ns equilibration
#
dump                1 all custom 1000 eq.${NAME}.dump id type x y z vx vy vz
dump                1 all custom 1000 eq.liquid_density_MLmW.dump id type x y z vx vy vz
run                 100000
Per MPI rank memory allocation (min/avg/max) = 3.506 | 3.508 | 3.511 Mbytes
Step Temp Press Volume TotEng KinEng PotEng c_1[4] Density 
     630          215    824.17143       125000   -42505.327    2675.0087   -45180.336 2.7295415e-33   0.99914793 
     700    137.15708   -587.26751    126143.24   -41675.897    1706.4949   -43382.392   0.25356873   0.99009263 
     800    167.55938   -880.48882    126497.21    -40924.11    2084.7573   -43008.867   0.57679763    0.9873221 
     900    187.27433   -593.19285    126769.47   -40496.142    2330.0487   -42826.191   0.96591527   0.98520165 
    1000    199.48793   -587.84564    126904.44   -40235.735    2482.0091   -42717.744    1.3775541   0.98415387 
    1100    208.65004   -418.80456    127048.05   -40061.322    2596.0032   -42657.325    1.7491502   0.98304141 
    1200    210.88803   -776.75984    127447.84   -40122.178     2623.848   -42746.026    2.1305758   0.97995766 
    1300    211.85367   -708.59518    127682.41   -40114.567    2635.8624    -42750.43    2.4832188   0.97815741 
    1400    207.00726     -634.178    127995.84   -40139.594    2575.5638   -42715.158    2.8649781   0.97576213 
    1500    212.73958   -704.04945    128149.88   -40101.495    2646.8849    -42748.38     3.173525   0.97458924 
    1600    219.51445   -643.23203    128278.34   -40021.909    2731.1771   -42753.086    3.5624688   0.97361325 
    1700    217.06252   -587.70806    128566.95    -40070.62    2700.6705    -42771.29    3.9858265   0.97142766 
    1800    215.58807   -800.52495    128715.67    -40176.48    2682.3255   -42858.806      4.15162   0.97030528 
    1900    216.75643   -769.58688    128879.78   -40183.721    2696.8621   -42880.583    4.3699173   0.96906972 
    2000    216.99538   -543.29516    128810.19   -40163.948    2699.8351   -42863.783    4.5293121   0.96959327 
    2100     220.4241   -725.78776    129168.41   -40147.127    2742.4948   -42889.622    4.8604047   0.96690433 
    2200    217.23443   -501.30299    129353.63    -40193.53    2702.8093   -42896.339    5.0863148   0.96551983 
    2300    214.64723   -857.78065    129589.21   -40204.523    2670.6196   -42875.142    5.2749245   0.96376456 
    2400    219.34695   -566.84764    129573.91   -40245.068     2729.093   -42974.161    5.5330305   0.96387837 
    2500    218.26108    -645.0277    129522.98   -40213.271    2715.5827   -42928.854    5.7420296   0.96425742 
    2600       224.58   -740.10798    129639.78   -40171.831    2794.2022   -42966.033    5.9869521   0.96338863 
    2700    218.65291    -880.2737    129893.39   -40217.282    2720.4578   -42937.739    6.1446926   0.96150766 
    2800     221.0703   -665.51033    130155.49   -40227.956    2750.5348   -42978.491    6.3906009   0.95957142 
    2900    218.35973   -899.94733    130229.25   -40311.652    2716.8102   -43028.462    6.6918858   0.95902794 
    3000    217.42543   -682.08304     130164.8   -40350.396    2705.1857   -43055.582     6.957994   0.95950282 
    3100    218.48589   -993.33554    130387.27   -40341.917    2718.3799   -43060.297    7.0871089   0.95786567 
    3200    215.66652    -699.7157    130571.12   -40398.388    2683.3016    -43081.69    7.2154427   0.95651697 
    3300    215.64756   -854.93598    130554.69   -40401.127    2683.0656   -43084.192     7.387722   0.95663734 
    3400    220.76478   -807.15843    130452.53   -40458.856    2746.7336    -43205.59    7.5449731   0.95738649 
    3500    215.12587   -701.44852    130467.42   -40514.429    2676.5748   -43191.004    7.6883731   0.95727723 
    3600    214.00592   -650.72824     130560.3   -40557.536    2662.6405   -43220.176    7.8352505   0.95659625 
    3700    216.19544   -898.35808    130676.13   -40618.924    2689.8823   -43308.806    7.8979955   0.95574832 
    3800    216.35865   -717.22686    130714.28   -40585.355     2691.913   -43277.268    8.0234538   0.95546936 
    3900     215.8158   -729.55158    130959.17   -40618.626    2685.1589   -43303.785    8.2602172   0.95368268 
    4000    215.82309   -771.93018    130914.07   -40630.805    2685.2495   -43316.054    8.3419164   0.95401121 
    4100    218.11559   -563.00472    131118.39   -40618.899    2713.7727   -43332.672    8.4532792   0.95252457 
    4200    212.65717   -635.99661    131133.98    -40644.02    2645.8594   -43289.879    8.4907299   0.95241134 
    4300    213.42914   -727.60437    131217.88   -40659.065    2655.4643   -43314.529    8.6653739   0.95180241 
    4400    210.74072   -852.08071     131187.8   -40662.797    2622.0153   -43284.812    8.8601613   0.95202061 
    4500    215.73086   -741.47466    131070.21   -40665.718    2684.1021    -43349.82    8.9346406   0.95287471 
    4600    215.40213   -526.10917    131187.67   -40723.748     2680.012    -43403.76    9.0777247   0.95202156 
    4700    219.51692   -639.49023    131418.08   -40647.985    2731.2078   -43379.193    9.2239483   0.95035239 
    4800    213.60621   -559.49454     131461.7   -40721.495    2657.6673   -43379.162    9.2992524   0.95003706 
    4900    216.63094     -707.869    131545.57   -40623.756    2695.3007   -43319.057    9.5155865   0.94943135 
    5000    221.26627   -822.27197    131611.57   -40584.875    2752.9731   -43337.848    9.6847211   0.94895526 
    5100    214.84851   -844.69245    131458.62    -40651.78     2673.124   -43324.904    9.8662133   0.95005934 
    5200    214.97052   -687.32933    131373.59   -40706.179     2674.642    -43380.82    9.9643664   0.95067427 
    5300    215.78737    -807.1366    131596.44   -40672.841    2684.8051   -43357.646    9.9967931   0.94906437 
    5400    216.88342   -570.64905    131699.36   -40719.617    2698.4421    -43418.06    10.175787   0.94832268 
    5500    217.11046   -752.00319    131954.97   -40740.795    2701.2669   -43442.062    10.336664   0.94648573 
    5600    214.56556    -732.2915    132174.99   -40762.207    2669.6035   -43431.811    10.527171   0.94491015 
    5700    220.10147   -787.47453    132314.68   -40784.531    2738.4807   -43523.012    10.464974   0.94391258 
    5800    216.63129   -723.88843    132344.72   -40821.489     2695.305   -43516.794    10.545441   0.94369833 
    5900     211.4199   -675.63938    132355.23   -40853.678    2630.4655   -43484.144    10.740633    0.9436234 
    6000    214.52627   -786.94203    132289.33   -40855.715    2669.1146    -43524.83    10.878114   0.94409342 
    6100    215.37738   -738.73524    132388.83   -40796.539     2679.704   -43476.243    10.937344   0.94338393 
    6200    208.39888   -709.74408    132494.32   -40862.878    2592.8783   -43455.756     10.97677   0.94263279 
    6300    219.94514   -709.55794    132419.05   -40836.993    2736.5357   -43573.529    11.088243   0.94316858 
    6400    215.88055   -753.53281    132447.58   -40829.295    2685.9644   -43515.259     11.14709   0.94296543 
    6500    217.20621   -683.63736    132416.78   -40786.739    2702.4582   -43489.197    11.134353   0.94318475 
    6600    211.86339   -705.65839    132371.82   -40857.787    2635.9834    -43493.77    11.274341   0.94350512 
    6700    210.42446   -751.43972    132383.21   -40928.846    2618.0804   -43546.926    11.409632   0.94342393 
    6800    214.76261   -693.49294    132418.19   -40856.618    2672.0552   -43528.673    11.544406   0.94317471 
    6900    215.57979   -541.27367    132486.86   -40799.733    2682.2224   -43481.956    11.637969   0.94268588 
    7000    218.35231    -846.8171    132636.39   -40801.808    2716.7178   -43518.525    11.765946   0.94162314 
    7100    216.39168   -713.90381    132561.67   -40835.243    2692.3238   -43527.567    11.948745    0.9421539 
    7200    213.21135   -939.29532    132382.55   -40899.683    2652.7545   -43552.438    11.927348   0.94342866 
    7300    213.54088    -681.1851     132372.5   -40966.819    2656.8545   -43623.674    11.902518   0.94350025 
    7400    213.52306   -618.59486    132444.06   -40989.407    2656.6328    -43646.04    12.037402   0.94299052 
    7500    216.06772    -790.8868    132477.23   -40961.361    2688.2932   -43649.654     11.99795   0.94275439 
    7600    210.20416    -658.2548    132383.81   -41032.894    2615.3394   -43648.234    12.094331   0.94341968 
    7700     214.9232   -956.37833    132377.78   -40927.298    2674.0532   -43601.352    12.302863   0.94346264 
    7800    213.91128   -636.77721    132442.58   -40907.464     2661.463   -43568.927    12.501901   0.94300103 
    7900    210.94388   -795.81603     132431.6   -40977.597    2624.5429    -43602.14    12.545533   0.94307921 
    8000    215.55836   -792.94803     132644.2   -40936.016    2681.9558   -43617.972    12.613821   0.94156769 
    8100    207.69626   -659.89791    132732.75   -41005.105    2584.1363   -43589.242    12.764501   0.94093956 
    8200    209.25568   -652.30606    132732.61   -41018.297    2603.5384   -43621.836    12.867757   0.94094051 
    8300    209.23033   -725.37235    132874.76   -40998.646    2603.2231   -43601.869    12.753797   0.93993388 
    8400     211.2979   -856.37614    132970.16   -40955.745    2628.9476   -43584.693    12.745209   0.93925956 
    8500    215.49685   -602.74036    133125.34   -40891.407    2681.1905   -43572.597    12.924866   0.93816469 
    8600    213.10635   -841.29873    133286.45    -40921.27    2651.4481   -43572.718    12.995792   0.93703064 
    8700    214.79957   -607.09792    133321.07   -40900.391     2672.515   -43572.906    13.168952   0.93678735 
    8800    212.93515    -667.6327    133584.67   -40937.941     2649.318   -43587.259    13.236452   0.93493883 
    8900    211.48292   -765.68936    133402.18   -41021.654    2631.2496   -43652.904    13.269442   0.93621779 
    9000    211.69187   -693.18623    133392.42   -40982.472    2633.8493   -43616.321    13.301816   0.93628627 
    9100     210.7161   -627.64859    133616.81   -41058.381    2621.7088    -43680.09    13.266786    0.9347139 
    9200    216.39377   -717.05026    133700.28   -40966.708    2692.3499   -43659.058    13.528856   0.93413039 
    9300    215.64624   -837.13986     133459.4   -41032.041    2683.0492    -43715.09    13.575251   0.93581638 
    9400    214.88912   -842.23677    133449.54   -41001.061    2673.6292    -43674.69    13.607025   0.93588549 
    9500    214.31817   -672.47836    133508.53   -41024.467    2666.5254   -43690.992     13.69536   0.93547197 
    9600    210.71882   -798.42335     133714.1   -40995.508    2621.7428   -43617.251    13.729437   0.93403382 
    9700     217.2083   -725.67185    133763.32    -40934.15    2702.4842   -43636.634    13.757857   0.93369013 
    9800    217.46594    -876.1958    133817.71   -41033.985    2705.6897   -43739.675    13.767009   0.93331062 
    9900    212.07451   -898.80927    133534.16   -41100.213    2638.6101   -43738.823    13.903977   0.93529245 
   10000    211.65738   -730.45442    133660.83   -41098.223    2633.4203   -43731.644    14.065845   0.93440607 
   10100    213.34217   -630.85971     133681.5   -41060.341    2654.3822   -43714.723    14.098422    0.9342616 
   10200    209.36996   -850.21493    133576.21    -41113.57    2604.9603    -43718.53     14.21554   0.93499804 
   10300    211.13152   -736.81572    133511.04   -41099.765    2626.8775   -43726.643    14.289943   0.93545441 
   10400    213.19823   -597.64845    133466.67   -41062.854    2652.5913   -43715.446    14.398566   0.93576541 
   10500    217.17896   -753.84881    133574.96   -41030.996    2702.1192   -43733.115    14.476986   0.93500678 
   10600    215.85768   -738.39348    133482.35   -40962.055      2685.68   -43647.735    14.523187   0.93565551 
   10700     213.4041   -718.54043    133366.43    -40967.57    2655.1528   -43622.723    14.557288   0.93646876 
   10800    219.06381   -691.79626    133413.94    -40964.84    2725.5702    -43690.41    14.488538   0.93613523 
   10900    219.31441   -734.52796    133448.34   -41005.216    2728.6882   -43733.904    14.607822   0.93589396 
   11000    220.42676   -629.43765    133746.74   -41007.395    2742.5279   -43749.922    14.738458   0.93380587 
   11100    211.48641   -794.28676    133863.44   -41048.242     2631.293   -43679.535    14.739801   0.93299183 
   11200    215.71398   -895.43752    133772.38   -41051.447     2683.892   -43735.339    14.808449   0.93362688 
   11300    218.93244   -853.06853    133743.12   -41057.919    2723.9358   -43781.855    14.864225   0.93383116 
   11400    212.60769   -855.99987    133443.39   -41076.825    2645.2439   -43722.069    14.928442   0.93592868 
   11500    213.07958   -762.98633    133420.25   -41099.722    2651.1151   -43750.837    15.120656   0.93609096 
   11600    214.56988   -690.25663     133424.8   -41099.594    2669.6573   -43769.251    15.065507   0.93605907 
   11700    215.75202   -889.35083    133453.78   -41009.586    2684.3653   -43693.951    15.140379   0.93585577 
   11800    212.46179   -666.51249    133662.97   -41070.939    2643.4286   -43714.368    15.058973   0.93439109 
   11900    212.66821   -833.13327     133698.7   -41093.312    2645.9969   -43739.309    15.100487   0.93414141 
   12000    219.52475   -778.00917    133678.04   -41108.406    2731.3052   -43839.711    15.139953   0.93428577 
   12100    214.08284   -657.52986    133669.92   -41057.274    2663.5975   -43720.872    15.233274   0.93434255 
   12200    220.96672   -721.34269    133704.79   -41065.931    2749.2461   -43815.177    15.506791   0.93409887 
   12300    212.02308   -848.59133    133683.57   -41075.319    2637.9702   -43713.289    15.605293   0.93424716 
   12400    217.64013   -796.33179    133854.79   -41060.943     2707.857     -43768.8    15.665756   0.93305206 
   12500    213.34273   -717.97925     134000.5   -41167.163    2654.3891   -43821.552    15.631785   0.93203749 
   12600    211.78845   -694.01553    134076.19   -41096.055     2635.051   -43731.106    15.804482   0.93151132 
   12700     217.6797   -639.01707    133928.82    -41078.92    2708.3493   -43787.269    15.734958   0.93253634 
   12800    215.56533   -749.00512    133855.26   -41052.393    2682.0425   -43734.436     15.75053   0.93304879 
   12900    214.83435   -774.66895    133829.82   -41108.913    2672.9478   -43781.861    15.901446   0.93322617 
   13000    217.53814   -880.23939     133773.8   -41048.288     2706.588   -43754.877    15.961147   0.93361697 
   13100    219.17243   -777.71346    133734.25   -41051.742    2726.9217   -43778.664    15.876537   0.93389311 
   13200    221.22215   -852.44053    133724.64   -40983.782    2752.4241   -43736.207    15.989744   0.93396016 
   13300    220.44441   -769.42904    133721.66   -41030.007    2742.7476   -43772.754    15.973429   0.93398099 
   13400    215.19888   -805.78142    133786.32   -41119.291    2677.4832   -43796.774    16.029892   0.93352962 
   13500    218.18732   -678.23524    133727.91   -41159.448     2714.665   -43874.113    16.122065   0.93393739 
   13600     217.3415   -566.53375     133928.7   -41181.217    2704.1414   -43885.358    16.161093   0.93253715 
   13700    212.62947   -678.67847    134042.34   -41175.097    2645.5148   -43820.612    16.339883   0.93174657 
   13800    215.06156   -696.06634    133931.44   -41104.927    2675.7747   -43780.701    16.280242   0.93251808 
   13900    212.70281   -708.71784    133875.48   -41148.202    2646.4273   -43794.629    16.116028   0.93290789 
   14000    213.01734   -748.04964    133971.62    -41138.55    2650.3407    -43788.89    16.194186    0.9322384 
   14100    216.90213   -804.12086    134019.24   -41149.181    2698.6749   -43847.856     16.19504   0.93190716 
   14200    213.90559   -947.93816    133702.75   -41196.656    2661.3922   -43858.048    16.250677   0.93411309 
   14300    213.49764    -624.1152    133719.95   -41245.225    2656.3166   -43901.541    16.202224   0.93399296 
   14400    213.99853   -732.75409    133951.89   -41210.397    2662.5486   -43872.945    16.126411   0.93237575 
   14500    213.76572   -774.65973    134060.16   -41160.325     2659.652   -43819.977    16.393744   0.93162271 
   14600    215.61818    -749.5748    134132.01   -41166.729    2682.7001   -43849.429    16.405832   0.93112369 
   14700    213.47704   -802.54602    133972.36   -41214.749    2656.0602   -43870.809    16.265938   0.93223327 
   14800    211.02846   -824.94321    134034.43    -41250.95    2625.5952   -43876.545    16.398433   0.93180156 
   14900    208.90044   -738.07106    134040.06   -41324.216    2599.1186   -43923.334    16.484024   0.93176242 
   15000      210.441    -782.0633    133924.46     -41333.9    2618.2861   -43952.186    16.489778   0.93256671 
   15100    208.60817   -741.07546    133947.98   -41357.995    2595.4822   -43953.478    16.454186   0.93240291 
   15200    214.80203   -770.60586    133846.94   -41286.276    2672.5456   -43958.821    16.454895   0.93310683 
   15300    215.45403   -720.35687    133869.78   -41303.532    2680.6577    -43984.19    16.501691    0.9329476 
   15400    210.22599   -702.81232    133869.54   -41283.912     2615.611   -43899.523     16.58971   0.93294926 
   15500    215.23742   -863.85639    133773.61   -41269.514    2677.9627   -43947.477    16.604234    0.9336183 
   15600    217.02391   -691.99173    133896.22   -41219.979      2700.19   -43920.169    16.652746   0.93276338 
   15700    212.02127   -772.67882     133869.4    -41314.31    2637.9477   -43952.258    16.627224   0.93295023 
   15800    209.54769   -706.60358    133943.59   -41311.006    2607.1716   -43918.178     16.74321   0.93243349 
   15900    211.47355   -663.08142    134029.42   -41339.127     2631.133    -43970.26    16.847025   0.93183641 
   16000     211.7789   -657.48245    134091.55    -41279.82    2634.9322   -43914.752     16.96401   0.93140461 
   16100    217.80241   -459.02401    134264.23   -41227.788     2709.876   -43937.664    16.945257   0.93020671 
   16200    211.23133   -798.39436    134206.21   -41298.749    2628.1194   -43926.868    16.994541   0.93060885 
   16300    216.64272   -722.66991    134229.29   -41310.436    2695.4473   -44005.883     16.99876   0.93044885 
   16400    214.26807    -773.9731    134374.61   -41215.414    2665.9021   -43881.316    17.139057   0.92944262 
   16500     215.9959   -772.93575    134266.76   -41204.264    2687.3996   -43891.663    17.137977   0.93018923 
   16600    217.38791   -792.84551    134183.95   -41200.945    2704.7189   -43905.664    17.316024   0.93076328 
   16700     215.5597   -795.43195    134129.72   -41229.898    2681.9725   -43911.871    17.169202    0.9311396 
   16800    216.25669   -773.53879    134192.59   -41220.629    2690.6443   -43911.274    17.108048   0.93070333 
   16900    217.32153   -777.14631    134132.26   -41188.764    2703.8931   -43892.657    17.059018   0.93112197 
   17000    214.96355    -922.3875    134075.57    -41213.22    2674.5553   -43887.775    17.147935   0.93151567 
   17100    218.23578   -859.61512    134100.86   -41126.686    2715.2679   -43841.954    17.239641   0.93133996 
   17200    216.36394   -767.52593    133951.21   -41144.184    2691.9787   -43836.163    17.415656   0.93238047 
   17300    219.32713   -690.93889    134077.46   -41191.104    2728.8464   -43919.951    17.469666   0.93150248 
   17400    216.61267   -728.79979    134269.01    -41216.87    2695.0735   -43911.943    17.469793   0.93017364 
   17500    216.48893   -774.43278    134266.18   -41198.565    2693.5339   -43892.099    17.459242   0.93019323 
   17600    218.95327   -869.17058    134174.76   -41181.638     2724.195   -43905.833    17.433545   0.93082703 
   17700    212.58953   -771.42316     134149.1   -41208.628    2645.0179   -43853.646    17.566736   0.93100508 
   17800    214.91307   -823.32557    134252.04    -41203.52    2673.9271   -43877.447    17.457764    0.9302912 
   17900    216.44621   -792.83875    134235.52   -41170.646    2693.0023   -43863.648    17.817928   0.93040568 
   18000    218.05549   -585.50531    134252.49   -41115.942    2713.0249   -43828.967    17.803765   0.93028811 
   18100    218.19177   -782.37695     134213.5   -41224.246    2714.7204   -43938.967    17.803637   0.93055836 
   18200    219.30378   -803.61057     134119.9   -41229.245    2728.5559   -43957.801     17.73512   0.93120778 
   18300    221.50712   -726.18149    134097.81   -41157.678    2755.9697   -43913.648    17.691749   0.93136114 
   18400    216.23131   -740.15406    134111.19   -41237.561    2690.3286   -43927.889     17.82577   0.93126822 
   18500      215.156    -777.1864    134229.27   -41198.513    2676.9497   -43875.462    17.914178   0.93044898 
   18600    215.16415   -892.46382    134279.19   -41260.107    2677.0511   -43937.158    18.039109   0.93010309 
   18700    218.66645   -808.04136     134160.6   -41237.409    2720.6264   -43958.035    18.060519   0.93092524 
   18800    211.50991   -689.06752    134147.57   -41223.999    2631.5855   -43855.585    18.147731   0.93101571 
   18900    214.40706    -855.3801    134135.89   -41253.558    2667.6314   -43921.189     18.13272   0.93109677 
   19000    215.26803   -730.63944       134031   -41237.857    2678.3435   -43916.201     18.01626    0.9318254 
   19100    213.94024   -744.83585    134069.09   -41276.526    2661.8233   -43938.349    17.976545   0.93156065 
   19200     214.0316   -646.16036    134103.34   -41247.671      2662.96   -43910.631    17.984373   0.93132276 
   19300    217.39918   -619.89046    134323.01   -41201.176    2704.8591   -43906.035    18.178273    0.9297997 
   19400    220.63614   -869.44133    134408.27   -41222.144    2745.1331   -43967.277    18.244984   0.92920987 
   19500    215.28094   -845.89743    134270.53   -41208.634    2678.5042   -43887.138    18.372593   0.93016312 
   19600    218.89007   -631.50222    134243.69   -41242.759    2723.4086   -43966.168    18.356207   0.93034907 
   19700    217.97583   -701.27021    134294.15   -41225.325    2712.0338   -43937.359    18.362334   0.92999946 
   19800     219.2219   -836.66632     134178.9   -41266.311    2727.5372   -43993.848    18.430307   0.93079827 
   19900    216.04237   -691.91526    134171.85   -41277.371    2687.9778   -43965.349    18.476994    0.9308472 
   20000    214.29272   -730.69669    134126.95    -41325.81    2666.2089   -43992.019    18.602811    0.9311588 
   20100     215.7669     -676.201    134344.93    -41282.86    2684.5504    -43967.41    18.619029   0.92964799 
   20200    214.74749   -663.57153    134422.89    -41332.44     2671.867   -44004.307    18.546665   0.92910883 
   20300    215.49499   -701.68441    134426.23   -41369.182    2681.1674   -44050.349    18.500199   0.92908574 
   20400    215.05522   -730.88676    134588.92   -41366.838    2675.6958   -44042.534    18.660985   0.92796264 
   20500    215.92721   -662.99582    134458.46    -41339.97     2686.545   -44026.515    18.632267     0.928863 
   20600    212.73429   -805.70856    134487.06   -41378.452     2646.819   -44025.271    18.588346    0.9286655 
   20700    214.92038   -615.22159    134430.73   -41322.444    2674.0181   -43996.462    18.504807   0.92905465 
   20800    216.27625    -689.2168    134623.96   -41311.976    2690.8877   -44002.864    18.555455   0.92772111 
   20900    212.78465   -772.58681    134698.36   -41354.517    2647.4456   -44001.962    18.626125   0.92720869 
   21000    211.59452   -728.73415    134661.79   -41445.975    2632.6381   -44078.613    18.684892   0.92746049 
   21100     213.5568   -681.73879    134764.01   -41461.377    2657.0525   -44118.429    18.661932   0.92675699 
   21200    206.72767   -631.51711    134751.11   -41433.827    2572.0853   -44005.912    18.606942   0.92684575 
   21300    213.57537   -708.99768    134523.45   -41433.606    2657.2837    -44090.89    18.570969    0.9284143 
   21400    214.29729   -849.63085    134495.16   -41400.683    2666.2657   -44066.949    18.882616   0.92860959 
   21500    212.71146    -846.6355    134488.02   -41389.817     2646.535   -44036.352    19.069456   0.92865884 
   21600    213.18037   -806.81058    134468.09   -41339.057    2652.3691   -43991.426    19.111147   0.92879653 
   21700    214.65382   -814.65941    134469.05   -41304.392    2670.7016   -43975.094    18.989276   0.92878987 
   21800    215.86054   -724.10354    134432.13   -41283.448    2685.7155   -43969.164    18.807784   0.92904493 
   21900    214.55059   -923.29851    134344.24   -41306.162    2669.4172   -43975.579    18.875798   0.92965276 
   22000    213.78631   -650.64936    134231.29    -41346.43    2659.9082   -44006.338    19.085897   0.93043501 
   22100    218.31911   -649.68398    134200.59   -41292.704    2716.3048   -44009.009     19.16222   0.93064784 
   22200    217.78915   -601.32194    134328.51   -41325.958    2709.7111   -44035.669    19.149572   0.92976159 
   22300     213.9808   -793.10066    134467.47   -41309.171     2662.328   -43971.498    19.295303   0.92880081 
   22400    217.87981   -692.61085    134375.47   -41276.033    2710.8391   -43986.872    19.170528   0.92943669 
   22500    216.29931   -777.56567    134525.48   -41276.913    2691.1746   -43968.088     19.12084   0.92840029 
   22600     217.9201   -735.46895    134464.69   -41261.837    2711.3404   -43973.177     19.09824   0.92881999 
   22700    218.51902    -747.9462    134528.07    -41274.51     2718.792   -43993.302    19.307487    0.9283824 
   22800    221.94928   -756.51047     134552.6   -41255.573    2761.4711   -44017.044    19.384596   0.92821315 
   22900    220.68253   -631.47329    134624.68   -41304.153    2745.7103   -44049.864    19.432348   0.92771614 
   23000    215.52908   -747.50109    134673.86   -41288.007    2681.5915   -43969.598    19.441101   0.92737736 
   23100    214.31573   -734.69875    134610.97   -41392.156    2666.4952   -44058.651    19.195165   0.92781066 
   23200    212.75777   -735.51959    134735.66   -41334.171    2647.1111   -43981.282    19.350221   0.92695204 
   23300    216.83459   -772.34171    134851.51   -41381.474    2697.8346   -44079.309    19.395988   0.92615571 
   23400    221.21492   -773.66101    134747.67   -41309.269    2752.3342   -44061.603     19.46964    0.9268694 
   23500     214.7157   -828.42586    134786.33   -41347.056    2671.4715   -44018.527    19.595389   0.92660353 
   23600    216.32152   -825.33627    134669.37   -41334.398     2691.451   -44025.849     19.61366    0.9274083 
   23700    212.50427   -877.32664    134676.52   -41372.859    2643.9571   -44016.816    19.647619   0.92735907 
   23800    213.96123   -845.13012    134508.96    -41434.31    2662.0845   -44096.395    19.629152   0.92851426 
   23900    211.68196    -759.0604    134452.22   -41443.245    2633.7261   -44076.971    19.630484   0.92890615 
   24000      216.824   -749.36818    134546.15   -41373.702    2697.7028   -44071.405    19.629049   0.92825765 
   24100    216.84239   -677.36171    134572.01   -41370.699    2697.9316   -44068.631      19.5412   0.92807924 
   24200    214.96023   -761.08843    134583.96   -41427.453    2674.5139   -44101.967    19.572004   0.92799685 
   24300    214.76028   -627.21938    134785.41   -41401.574    2672.0262     -44073.6    19.619851   0.92660989 
   24400     213.8716   -775.89007    134611.63   -41455.059    2660.9692   -44116.028    19.563589   0.92780608 
   24500    214.41719   -947.69576    134587.47    -41405.97    2667.7574   -44073.728    19.639086   0.92797267 
   24600    213.68209   -766.38089    134571.51   -41395.784    2658.6115   -44054.396    19.813821   0.92808272 
   24700    207.15847   -692.60019    134430.14   -41407.493    2577.4452   -43984.938    19.809897   0.92905873 
   24800    214.47611    -694.5782    134627.72   -41397.553    2668.4905   -44066.044    19.810053   0.92769523 
   24900    213.34026   -630.72616    134680.37   -41346.672    2654.3584   -44001.031     19.92645   0.92733252 
   25000    218.78973   -778.73646    134720.42   -41333.166    2722.1602   -44055.326    20.000498   0.92705687 
   25100    219.11217    -776.6565    134779.74   -41332.641     2726.172   -44058.813    20.005003   0.92664886 
   25200    216.68465   -764.81754    134744.53   -41367.345     2695.969   -44063.314    19.989547   0.92689099 
   25300    214.55385   -876.69366    134801.64   -41365.257    2669.4578   -44034.715    20.034986    0.9264983 
   25400    211.64815   -724.63515    134708.28   -41349.951    2633.3053   -43983.256    19.942196   0.92714043 
   25500    217.55483   -677.80723    134612.72   -41301.552    2706.7957   -44008.348    20.070232    0.9277986 
   25600    212.66302   -803.20562    134669.12   -41371.306    2645.9322   -44017.238    20.168265   0.92741005 
   25700    213.27453   -684.28456    134774.28   -41383.798    2653.5406   -44037.339    20.129806   0.92668636 
   25800    216.71488   -730.50772    134732.56   -41362.102    2696.3451   -44058.447    20.057301   0.92697336 
   25900    214.41583   -692.89342       134854   -41319.984    2667.7406   -43987.725    20.223809   0.92613857 
   26000    220.64596   -681.38855    135012.44   -41256.964    2745.2553   -44002.219    20.395559   0.92505176 
   26100    216.84092   -607.29567       135191   -41347.679    2697.9133   -44045.592    20.461429   0.92382989 
   26200     215.6247   -735.61956    135152.51   -41346.004    2682.7811   -44028.785    20.447671   0.92409299 
   26300    214.70306   -788.97859    135141.22   -41314.237    2671.3142   -43985.551    20.451386   0.92417021 
   26400    216.48405    -679.4405    135169.67   -41296.351    2693.4731   -43989.825    20.553718   0.92397574 
   26500    216.22022   -706.21545    135200.57   -41346.768    2690.1906   -44036.959      20.6158   0.92376452 
   26600    211.49258   -645.40526    135171.59   -41383.722    2631.3698   -44015.092    20.519671   0.92396258 
   26700    208.49863    -688.2405    135185.59   -41405.111    2594.1193    -43999.23    20.613024   0.92386689 
   26800    213.30432    -679.0786    135391.76   -41333.706    2653.9112   -43987.617    20.776467   0.92246006 
   26900    212.78491   -797.23837    135139.68   -41341.318    2647.4489   -43988.767    20.706239   0.92418074 
   27000    208.12682    -907.1098    135115.79   -41378.511    2589.4933   -43968.004     20.55131   0.92434413 
   27100    213.40535   -731.38784    134984.63   -41390.022    2655.1683    -44045.19    20.785692    0.9252423 
   27200    214.78094   -771.02366    134898.97   -41421.914    2672.2832   -44094.197    20.898495   0.92582982 
   27300    209.50854   -766.91765    134902.81   -41440.487    2606.6845   -44047.172    20.874707   0.92580349 
   27400    214.05659   -570.29856    135065.58   -41374.152     2663.271   -44037.423    20.882424   0.92468779 
   27500    218.44821   -703.43189    135119.67   -41312.741    2717.9111   -44030.652    20.806159   0.92431764 
   27600    216.89994   -782.96506    135143.72   -41354.678    2698.6476   -44053.325    20.776223   0.92415314 
   27700    214.70472    -657.2891    135105.97   -41358.532    2671.3349   -44029.867    20.890996   0.92441135 
   27800    217.68102   -769.50091    135010.42   -41298.243    2708.3657   -44006.609    20.820305    0.9250656 
   27900    215.31984   -852.38461    134926.31   -41331.168    2678.9882   -44010.156    20.782866   0.92564223 
   28000    214.92278   -747.57626    134959.63   -41367.579     2674.048   -44041.628    20.912802   0.92541371 
   28100    213.93164   -742.42206    135066.36   -41351.552    2661.7163   -44013.269    21.130619   0.92468243 
   28200    214.57428   -745.48039    135182.96   -41395.982    2669.7119   -44065.694    20.995829   0.92388484 
   28300    214.42082   -616.84055    135093.15    -41381.28    2667.8027   -44049.083    20.996411   0.92449906 
   28400    211.16415   -886.18753    135042.04   -41415.257    2627.2835    -44042.54    20.962764   0.92484898 
   28500    217.10849   -670.34279    135059.42   -41444.539    2701.2424   -44145.782    20.989386   0.92472993 
   28600    216.25443   -694.61892    135112.85   -41395.103    2690.6162    -44085.72    21.164658    0.9243643 
   28700    214.38314   -841.09354    135229.47   -41405.235    2667.3338   -44072.569    21.152087    0.9235671 
   28800    216.91669    -676.2087    135136.58   -41380.315     2698.856   -44079.171    21.064907   0.92420198 
   28900    218.68981   -735.71428    135150.55   -41341.266    2720.9171   -44062.183    21.139987   0.92410644 
   29000    212.46097   -723.78835     135173.9   -41416.618    2643.4184   -44060.037    21.259993    0.9239468 
   29100    218.24839   -763.63671    135152.65   -41351.965    2715.4249    -44067.39    21.298629   0.92409208 
   29200    219.70568   -771.04118    134988.46   -41325.029    2733.5563   -44058.585    21.194638   0.92521606 
   29300    215.81317   -827.11297     135029.6   -41383.246    2685.1261   -44068.372     21.18772   0.92493416 
   29400    213.55995   -798.38142    134880.57   -41441.581    2657.0918   -44098.673    21.112647   0.92595611 
   29500    212.29206   -731.49283     134956.2   -41469.435    2641.3168   -44110.752    21.388714    0.9254372 
   29600    213.41477   -867.52026    134898.67   -41389.323    2655.2855   -44044.609    21.403666   0.92583192 
   29700    210.53182    -833.1472    134851.08   -41421.926    2619.4161   -44041.342    21.348243   0.92615862 
   29800    214.53543     -706.539    134905.84   -41394.797    2669.2286   -44064.025    21.304364   0.92578272 
   29900    210.42614   -633.28129    134787.92   -41426.495    2618.1013   -44044.596    21.311345   0.92659259 
   30000     215.5316   -764.47204    134847.21   -41392.622    2681.6228   -44074.245    21.259052   0.92618521 
   30100    214.89432   -641.23207    134854.45    -41384.13    2673.6938   -44057.824     21.31924   0.92613549 
   30200    215.34516    -759.6605    134767.84   -41399.265    2679.3032   -44078.568    21.338544   0.92673065 
   30300    217.58901   -664.23847    135044.48   -41368.247    2707.2209   -44075.468    21.492729   0.92483228 
   30400     217.2803   -714.34448    135016.94   -41342.284    2703.3801   -44045.664     21.53122   0.92502089 
   30500    215.59833   -795.72878    134923.24   -41336.277    2682.4531    -44018.73    21.541314    0.9256633 
   30600    218.87948   -625.03181    134940.95   -41321.364    2723.2769   -44044.641    21.530437   0.92554183 
   30700    214.24956    -891.8529    135033.76   -41336.939    2665.6718   -44002.611    21.528206   0.92490571 
   30800    217.18873   -746.48723     135097.5   -41265.952    2702.2407   -43968.193    21.623792    0.9244693 
   30900    213.55797   -863.27685    135114.04   -41398.364    2657.0671   -44055.431    21.619178   0.92435611 
   31000    209.80494   -718.56371    135219.64    -41432.68    2610.3724   -44043.052    21.661895   0.92363422 
   31100    215.83498   -860.42476    135318.02   -41423.349    2685.3975   -44108.746    21.641736   0.92296275 
   31200     213.0434   -761.61467    135412.75   -41442.723    2650.6649   -44093.388    21.692592    0.9223171 
   31300    212.54162   -735.49773    135477.88    -41397.77    2644.4218   -44042.192    21.596882   0.92187367 
   31400     214.3163   -927.32579    135379.54   -41368.999    2666.5023   -44035.501     21.75084    0.9225433 
   31500    212.13304   -681.58467    135223.97   -41413.986    2639.3383   -44053.324     22.07675   0.92360471 
   31600    217.33468   -756.42347    135438.32   -41343.703    2704.0566   -44047.759     21.93539   0.92214294 
   31700    217.51269   -726.81976    135560.19   -41378.267    2706.2713   -44084.538    22.021374   0.92131394 
   31800    215.86704   -700.57497    135639.68   -41320.281    2685.7964   -44006.077    21.907896   0.92077399 
   31900    216.12979   -871.68925    135417.54   -41330.418    2689.0655   -44019.483    21.765486   0.92228445 
   32000    215.79305   -832.64605     135478.1   -41323.835    2684.8758    -44008.71    21.940331   0.92187218 
   32100    216.82034   -879.63934    135295.29   -41329.616    2697.6572   -44027.273    21.922903   0.92311778 
   32200    217.49256   -755.68287    135316.64   -41317.294    2706.0209   -44023.315    21.986953   0.92297213 
   32300    220.24893   -800.17131    135314.96   -41296.168    2740.3154   -44036.483    22.058731   0.92298359 
   32400    213.41649   -736.35633    135415.88   -41352.585    2655.3069   -44007.892    21.990592   0.92229577 
   32500    215.26999   -795.47774    135310.09    -41352.87    2678.3679   -44031.238    22.094889   0.92301686 
   32600    212.21189   -659.26202    135285.02   -41302.931    2640.3194    -43943.25    22.218261   0.92318789 
   32700    210.79957   -841.46932    135129.53   -41368.314    2622.7474   -43991.062    22.078664   0.92425015 
   32800     212.9678      -831.75    135060.84   -41397.815    2649.7243    -44047.54    22.028165   0.92472025 
   32900    215.02252   -782.24749    135115.19   -41400.555    2675.2889   -44075.844    22.035213   0.92434824 
   33000    212.50402   -799.52584    135126.29   -41452.663     2643.954   -44096.617    22.111288   0.92427236 
   33100    211.97492   -735.52506    135231.13   -41373.778    2637.3709   -44011.149    22.146142   0.92355579 
   33200    215.21396   -832.78641    135144.14    -41405.33    2677.6709   -44083.001     22.21212   0.92415022 
   33300    217.19959   -734.53541    135116.24   -41341.917    2702.3758   -44044.293    22.291598   0.92434108 
   33400    211.66411   -719.46402    135295.38   -41422.332     2633.504   -44055.836    22.433907   0.92311717 
   33500    214.22336   -761.57343    135273.83   -41392.981    2665.3459   -44058.327    22.340955   0.92326423 
   33600    214.21851    -693.1367    135213.87   -41361.379    2665.2856   -44026.664    22.437125   0.92367368 
   33700    214.98097     -795.574    135116.19   -41354.868    2674.7719    -44029.64    22.434933   0.92434143 
   33800    219.87255   -728.68651    135127.84   -41356.174    2735.6326   -44091.806    22.366704   0.92426174 
   33900    213.83684   -747.71263    135086.46   -41374.044    2660.5368    -44034.58    22.527742   0.92454488 
   34000    217.98217   -816.28275    135139.18   -41337.761    2712.1126   -44049.874    22.499881   0.92418416 
   34100    213.93787   -749.55722    135133.91   -41383.429    2661.7939   -44045.223    22.457775   0.92422019 
   34200    213.81144   -733.05199    135183.62   -41391.559    2660.2208    -44051.78    22.338164   0.92388035 
   34300    208.00565   -736.81882    135314.03   -41444.207    2587.9858   -44032.192    22.415146   0.92298995 
   34400    212.35932   -679.60382    135085.44   -41377.885    2642.1537   -44020.039    22.465566   0.92455181 
   34500    214.74935   -808.75003    135207.47   -41400.113    2671.8901   -44072.003    22.663465   0.92371741 
   34600    218.20791   -824.17008    135335.46   -41375.908    2714.9213    -44090.83    22.831045   0.92284379 
   34700    212.46773   -904.26888    135369.55   -41459.662    2643.5025   -44103.165    22.763738   0.92261139 
   34800    213.40443   -820.25851    135293.28       -41446    2655.1568   -44101.157    22.778053   0.92313151 
   34900    213.86254   -697.18148    135288.24   -41466.416    2660.8565   -44127.273    22.886497   0.92316593 
   35000    207.60922   -884.99268    135247.92   -41546.107    2583.0533    -44129.16     22.69432   0.92344113 
   35100    215.05508   -709.63685    135153.47   -41474.192     2675.694   -44149.887    22.749365   0.92408648 
   35200    213.95998    -699.5752    135220.21   -41476.033    2662.0689   -44138.102    22.791512   0.92363038 
   35300    208.66129   -822.21424    135232.51   -41451.329    2596.1432   -44047.472    22.733277   0.92354637 
   35400    211.93168   -885.08343    135154.44    -41475.27    2636.8331   -44112.103    22.750253   0.92407983 
   35500    215.85759   -899.48569    135137.94   -41368.498    2685.6788   -44054.177    22.835846   0.92419268 
   35600    212.50515   -727.71346    135114.18   -41427.114    2643.9681   -44071.082    22.800237   0.92435516 
   35700    214.86785   -669.47505    135109.85   -41398.675    2673.3646   -44072.039    22.817778   0.92438476 
   35800    214.78811   -835.29536     135118.8   -41436.608    2672.3725   -44108.981    22.772575   0.92432354 
   35900    217.62688   -738.08448    135211.53   -41391.393    2707.6921   -44099.085    22.808848   0.92368966 
   36000    218.44446    -766.2131    135094.72   -41361.102    2717.8644   -44078.966    22.863405   0.92448835 
   36100     217.7307   -740.47985    135253.46   -41380.434    2708.9839   -44089.418    22.915569   0.92340327 
   36200    217.15259   -830.73643     135406.9   -41417.595    2701.7911   -44119.386    22.823744   0.92235692 
   36300    214.56673   -802.61608     135216.9   -41482.805     2669.618   -44152.423    23.006946   0.92365297 
   36400    214.82451   -667.92344    135234.99   -41421.204    2672.8253    -44094.03    23.006627    0.9235294 
   36500    213.02929   -795.65313    135061.46   -41400.334    2650.4894   -44050.823    22.909592   0.92471596 
   36600    213.01636   -716.54292    135080.13   -41522.531    2650.3285   -44172.859    22.974017   0.92458821 
   36700    213.93754   -666.41009    135082.02   -41453.026    2661.7897   -44114.816    23.074058   0.92457527 
   36800     213.8825   -774.51144    135218.41   -41444.086    2661.1049   -44105.191    23.083224   0.92364265 
   36900    213.21154    -818.0518    135308.94   -41461.068    2652.7569   -44113.825    22.904255   0.92302466 
   37000    213.08723   -701.39023    135292.65   -41397.907    2651.2103   -44049.117    22.861472   0.92313583 
   37100    216.07479   -697.58524    135325.08   -41389.478    2688.3811   -44077.859    22.950106   0.92291462 
   37200    211.54117   -951.14878    135320.46   -41438.218    2631.9744   -44070.192    23.040849   0.92294612 
   37300    212.17043   -814.00013    135458.11   -41443.236    2639.8036    -44083.04    22.983575   0.92200819 
   37400    209.71066   -814.52461    135406.72   -41477.087    2609.1993   -44086.286    23.061194   0.92235818 
   37500    215.72153   -781.13041    135376.44   -41486.271    2683.9859   -44170.257    23.034637   0.92256448 
   37600    216.08045   -811.30322    135291.76   -41446.884    2688.4516   -44135.336     23.09046   0.92314192 
   37700    212.22405   -660.04972    135371.42   -41460.459    2640.4706   -44100.929    23.170698   0.92259866 
   37800    208.88575   -722.05783    135440.23   -41557.939    2598.9359   -44156.875    23.268914   0.92212993 
   37900    212.91198   -734.37475    135471.91   -41513.541    2649.0298   -44162.571    23.180692   0.92191431 
   38000    213.69192   -841.00801    135405.61   -41493.358    2658.7337   -44152.092    23.230793   0.92236572 
   38100    215.45908   -729.79763    135526.54   -41436.559    2680.7206   -44117.279    23.258128    0.9215427 
   38200    214.18139   -760.48691    135651.64   -41447.258    2664.8236   -44112.082     23.11883   0.92069281 
   38300    217.33891   -676.61639    135531.27   -41395.114    2704.1093   -44099.223    23.207237   0.92151049 
   38400    221.42398   -692.94706    135565.23   -41447.633    2754.9353   -44202.568    23.144523   0.92127969 
   38500    215.22592   -818.92328    135639.69    -41469.37    2677.8197    -44147.19    23.328714    0.9207739 
   38600    212.35853   -815.28604    135553.27   -41435.818    2642.1438   -44077.962    23.512642   0.92136098 
   38700    215.17821   -706.46272    135665.85   -41437.901     2677.226   -44115.127    23.551951    0.9205964 
   38800    215.45333    -713.3352    135744.87   -41449.017     2680.649   -44129.666    23.492954   0.92006052 
   38900     217.7239   -824.50577    135763.48   -41401.946    2708.8993   -44110.845    23.443597   0.91993436 
   39000    213.85258   -803.12295    135737.72   -41447.065    2660.7327   -44107.797     23.31474   0.92010898 
   39100    212.91224   -907.92662     135885.4   -41402.704     2649.033   -44051.737     23.53549   0.91910901 
   39200     215.3194   -798.80891    135735.83   -41427.378    2678.9826   -44106.361    23.580458   0.92012177 
   39300    216.04063   -657.50083    135669.47    -41415.58    2687.9562   -44103.536    23.564607   0.92057181 
   39400    217.54171   -717.33665     135567.1   -41387.471    2706.6324   -44094.104    23.657985   0.92126699 
   39500    220.34446   -854.34489    135565.94   -41372.901     2741.504   -44114.405    23.608749   0.92127483 
   39600     214.3842   -711.38751    135681.65   -41414.311     2667.347   -44081.658    23.682898   0.92048919 
   39700    220.54894   -762.93696    135602.31   -41367.988    2744.0481   -44112.036    23.498903   0.92102773 
   39800    220.30319   -746.26266    135546.63   -41435.939    2740.9906    -44176.93    23.355589   0.92140611 
   39900    215.41132   -788.49628    135514.34   -41475.388    2680.1263   -44155.514    23.635786   0.92162566 
   40000    211.67598   -629.04285    135554.99   -41498.978    2633.6516   -44132.629    23.795014   0.92134926 
   40100    215.95455   -766.00157    135664.62   -41407.275    2686.8851    -44094.16    23.771396   0.92060475 
   40200    212.75795    -711.0058    135644.05   -41433.987    2647.1134     -44081.1    23.839988   0.92074437 
   40300    217.41181   -755.43418    135874.47   -41418.038    2705.0163   -44123.055    23.806375   0.91918289 
   40400    219.57251   -778.47842    135753.19   -41340.433    2731.8994   -44072.333    23.819203   0.92000408 
   40500    216.39406   -871.36011    135536.03   -41365.769    2692.3535   -44058.123    23.694284   0.92147816 
   40600    219.81158   -745.10065    135417.56   -41414.967    2734.8739   -44149.841    23.809963   0.92228429 
   40700    213.30039   -693.63231    135434.37   -41450.557    2653.8624    -44104.42    23.822982   0.92216983 
   40800    212.22624   -781.24505    135446.61   -41499.587    2640.4979   -44140.085    23.932649   0.92208648 
   40900    212.65121   -729.72921       135399   -41528.713    2645.7854   -44174.499    23.833314   0.92241076 
   41000    216.83377   -748.57345    135296.71   -41458.463    2697.8244   -44156.287    23.789365   0.92310815 
   41100    213.13604    -716.1941    135342.28    -41449.17    2651.8176   -44100.987    23.812347   0.92279733 
   41200     215.5704   -756.41001    135289.91    -41465.94    2682.1056   -44148.046     23.67355   0.92315452 
   41300    211.23974   -713.96371    135226.17     -41605.5    2628.2239   -44233.724    23.896701   0.92358966 
   41400    212.56411   -772.45243    135231.32   -41552.501    2644.7017   -44197.203    24.038506   0.92355451 
   41500    211.13992   -714.07367    135399.01   -41552.517     2626.982   -44179.499    24.049776   0.92241064 
   41600    213.02037   -743.81949    135627.09   -41520.106    2650.3784   -44170.484    24.041785   0.92085945 
   41700    213.76313   -659.54408    135520.71   -41490.843    2659.6197   -44150.463    24.174458   0.92158235 
   41800    214.59021   -776.58978    135447.71   -41505.507    2669.9102   -44175.417    24.109542   0.92207899 
   41900    216.96387   -658.67963    135475.44   -41488.529    2699.4431   -44187.972    24.108936   0.92189025 
   42000    215.43507   -883.06196    135409.35   -41482.133    2680.4219   -44162.555    24.036495    0.9223402 
   42100    212.45907   -833.50809    135363.36   -41482.349    2643.3948   -44125.744    24.088191   0.92265359 
   42200    214.10591   -574.03694    135524.87   -41431.525    2663.8846    -44095.41    24.105857   0.92155407 
   42300    218.91317   -808.04008    135579.58   -41412.621     2723.696   -44136.317    24.136408   0.92118216 
   42400    211.78149   -791.32591    135467.78   -41449.494    2634.9644   -44084.458    24.133403   0.92194244 
   42500    216.02735   -799.85946    135404.89   -41444.931    2687.7909   -44132.722    24.092957   0.92237058 
   42600    215.78291   -723.93201    135431.16   -41455.185    2684.7497   -44139.934    24.117703   0.92219166 
   42700    216.04205   -677.69215    135429.58   -41456.644    2687.9738   -44144.618    24.224567   0.92220243 
   42800    215.71194   -668.31526    135484.21   -41406.877    2683.8666   -44090.744    24.445402   0.92183058 
   42900    215.54561   -667.53424    135578.26   -41484.468    2681.7972   -44166.265    24.364276   0.92119115 
   43000    212.41374   -735.11154    135555.86   -41507.175    2642.8307   -44150.006    24.336982   0.92134337 
   43100    216.32326   -589.32999    135607.19   -41478.585    2691.4727   -44170.058    24.183011   0.92099462 
   43200     219.1143   -826.42946    135630.87   -41446.097    2726.1985   -44172.295    24.189123   0.92083379 
   43300    213.81944   -736.50554    135567.04   -41450.836    2660.3203   -44111.157    24.245784   0.92126736 
   43400    216.99965   -924.34079    135496.33   -41404.026    2699.8882   -44103.914    24.314117   0.92174814 
   43500    218.55553   -646.42003       135636   -41408.052    2719.2463   -44127.298    24.324799   0.92079897 
   43600    220.97777   -633.98423    135624.96   -41329.158    2749.3835   -44078.542    24.322584   0.92087393 
   43700    223.03176   -684.49065     135665.9   -41365.659    2774.9391   -44140.599     24.41385   0.92059606 
   43800    219.08237    -692.4441    135614.29   -41372.493    2725.8012   -44098.294    24.472053    0.9209464 
   43900    216.01416    -672.1116    135563.13   -41412.208    2687.6269   -44099.835    24.491362   0.92129394 
   44000    214.45183   -628.99549    135531.88   -41447.512    2668.1885   -44115.701    24.543443   0.92150639 
   44100    216.51828   -838.18577    135477.57   -41462.148     2693.899   -44156.047    24.448307   0.92187579 
   44200    212.29688   -694.28906    135564.58   -41489.218    2641.3768   -44130.595    24.486878   0.92128407 
   44300    216.08425   -563.23929    135479.46   -41501.969    2688.4989   -44190.468    24.491138   0.92186296 
   44400    215.44822   -599.37093    135502.73   -41467.377    2680.5854   -44147.962    24.393726   0.92170463 
   44500    216.03722   -873.23174    135687.62   -41499.069    2687.9138   -44186.983    24.425072   0.92044867 
   44600    212.81183   -597.95135    135697.86   -41554.183    2647.7837   -44201.967    24.638113   0.92037923 
   44700    213.75876   -744.25855    135750.34   -41530.153    2659.5654   -44189.718    24.471692   0.92002341 
   44800    215.51542   -824.89728    135883.31   -41508.917    2681.4216   -44190.339    24.626801   0.91912313 
   44900    213.63755   -697.95089    135831.42   -41470.703    2658.0573    -44128.76    24.638433   0.91947424 
   45000    217.67759   -783.97511    135846.36    -41473.97    2708.3231   -44182.293    24.701008   0.91937314 
   45100    215.02302   -732.25629    135918.38   -41429.407    2675.2951   -44104.702    24.639762   0.91888599 
   45200    211.66484   -771.22023    135779.23    -41490.91     2633.513   -44124.423    24.549001   0.91982764 
   45300    209.05437   -623.91235    135834.93    -41506.49    2601.0339   -44107.524    24.683152   0.91945049 
   45400    215.69848   -848.67205    135802.61   -41492.563    2683.6992   -44176.262    24.659001   0.91966929 
   45500     217.4564   -970.38462    135784.64   -41509.731    2705.5711   -44215.302    24.746965     0.919791 
   45600    213.79459   -738.95391    135612.98   -41510.702    2660.0112   -44170.713    24.750809   0.92095526 
   45700    213.96577   -808.93264    135625.31    -41525.48    2662.1409   -44187.621    24.623432   0.92087158 
   45800    212.20027   -807.28411    135761.72   -41463.016    2640.1747   -44103.191    24.779531   0.91994632 
   45900    216.88251   -730.88378    135743.68   -41406.622    2698.4307   -44105.053    24.860039   0.92006858 
   46000    219.75641   -736.05746    135798.92   -41390.094    2734.1875   -44124.281     24.94237   0.91969431 
   46100    223.19349    -877.3528    135942.99   -41357.102    2776.9513   -44134.053    25.144849   0.91871961 
   46200    222.32792   -804.86912    135821.64   -41354.004     2766.182   -44120.186    25.057837   0.91954043 
   46300     221.0126   -728.96066     135822.7   -41378.193    2749.8169   -44128.009    24.769535   0.91953324 
   46400    221.17669   -841.74417    135862.74   -41412.361    2751.8585    -44164.22    24.716199   0.91926231 
   46500    215.90568   -799.32011    135801.63   -41430.866    2686.2771   -44117.143    24.825787   0.91967596 
   46600    213.60699   -762.77229    135689.97   -41421.733    2657.6771    -44079.41    24.997714   0.92043271 
   46700     214.6848   -855.63851    135695.47   -41511.875     2671.087   -44182.963    25.011988   0.92039542 
   46800    211.39048   -771.90546    135724.69   -41552.211    2630.0994   -44182.311    24.955482   0.92019729 
   46900    215.29537   -711.83067    135551.03   -41473.717    2678.6837   -44152.401    25.028641   0.92137616 
   47000    217.35445   -732.15316       135523    -41444.91    2704.3026   -44149.213     24.95927   0.92156677 
   47100    216.77662   -751.61103    135479.71   -41423.126    2697.1133   -44120.239    25.161841    0.9218612 
   47200    215.98316   -746.81417    135514.49   -41484.569    2687.2411   -44171.811    25.090932    0.9216246 
   47300    215.31124   -874.74745    135524.89   -41514.411    2678.8811   -44193.292    25.154367   0.92155391 
   47400    216.15809   -806.04164    135393.01   -41474.475    2689.4176   -44163.892    25.096777   0.92245155 
   47500    214.02421   -749.07489    135543.63   -41408.726    2662.8681   -44071.594    25.361597   0.92142646 
   47600    218.85446   -780.05532    135631.48   -41368.816    2722.9655   -44091.782    25.286882   0.92082969 
   47700    218.54777   -843.48669    135610.18   -41409.722    2719.1497   -44128.871    25.276875   0.92097433 
   47800    215.59786   -857.68531    135690.38   -41420.163    2682.4473    -44102.61    25.263555   0.92042994 
   47900    215.60049   -756.55316    135618.67   -41503.796      2682.48   -44186.275    25.205425   0.92091664 
   48000    211.16775   -703.78438     135623.4   -41531.945    2627.3283   -44159.274    25.385283   0.92088454 
   48100    216.17993   -750.75107     135536.1   -41504.546    2689.6894   -44194.235    25.500667   0.92147766 
   48200    216.95726   -826.71023    135673.02   -41537.021    2699.3608   -44236.382    25.417336   0.92054773 
   48300    216.62211   -590.02771    135792.01   -41517.047    2695.1909   -44212.238    25.420619   0.91974111 
   48400    219.98007   -762.80851    135982.97   -41442.989    2736.9703    -44179.96     25.57228   0.91844947 
   48500    218.72793   -677.95899    135892.39     -41507.9    2721.3913   -44229.291     25.44571    0.9190617 
   48600    215.64442    -748.6223    135908.56   -41512.517    2683.0265   -44195.544    25.522064   0.91895237 
   48700     214.4858   -707.12462    135868.61   -41472.748    2668.6112    -44141.36    25.647055   0.91922259 
   48800    215.93589   -668.28364    135913.55   -41501.234     2686.653   -44187.887    25.741847   0.91891864 
   48900    215.57861   -850.70783    135786.92   -41486.488    2682.2078   -44168.696    25.777174   0.91977559 
   49000    216.50207   -626.29162    135903.73   -41518.751    2693.6973   -44212.449    25.698383   0.91898499 
   49100     213.8925   -773.69799    135869.31   -41512.149    2661.2293   -44173.378    25.700304    0.9192178 
   49200    211.74371   -889.97162    135694.06   -41536.029    2634.4943   -44170.523    25.538585   0.92040498 
   49300    215.03478   -864.73875    135730.71   -41490.114    2675.4415   -44165.556    25.559489   0.92015647 
   49400    216.95621   -748.73021    135900.73   -41468.529    2699.3477   -44167.876    25.803839   0.91900531 
   49500    215.06217    -727.3842    135773.22   -41483.934    2675.7823   -44159.716    25.796506   0.91986834 
   49600    218.89341   -632.21235    135887.53    -41489.14    2723.4502    -44212.59    25.860236   0.91909459 
   49700    213.01359   -658.10003    135950.21   -41497.095     2650.294   -44147.389    25.865757   0.91867083 
   49800    214.28471   -784.92002    135869.43   -41541.921    2666.1092    -44208.03    25.757061   0.91921699 
   49900     221.2979   -699.33394    135875.45   -41431.001    2753.3666   -44184.367    25.779354   0.91917625 
   50000    215.60974   -826.07515    135819.45    -41476.45    2682.5951   -44159.045     25.70192   0.91955526 
   50100     215.7724   -623.38488    135909.94   -41492.631    2684.6189    -44177.25     25.88463   0.91894302 
   50200    215.65565   -715.63137    135945.42   -41537.182    2683.1663   -44220.348    25.812025   0.91870317 
   50300    215.57008   -848.91629    136030.86   -41502.472    2682.1016   -44184.574    26.066487   0.91812617 
   50400    214.78743   -683.26267    135815.56   -41526.345    2672.3639   -44198.709    26.241413   0.91958164 
   50500    213.34193   -779.96295    135749.83   -41564.585    2654.3792   -44218.964    26.070052   0.92002689 
   50600    211.91892   -746.66506    135931.96   -41577.852    2636.6742   -44214.527    26.031751   0.91879419 
   50700    209.66103   -723.84325    135849.32    -41586.45    2608.5819   -44195.031    25.923457   0.91935307 
   50800    214.18826   -740.30251    135944.94   -41584.296    2664.9091   -44249.205    25.891538   0.91870647 
   50900     217.0629   -834.93966    135970.37   -41514.433    2700.6751   -44215.108    25.986303   0.91853461 
   51000    218.60437   -630.48467    136107.86   -41557.322     2719.854   -44277.176    26.108395   0.91760674 
   51100    216.13976   -886.94553    136148.39   -41589.445    2689.1895   -44278.635    26.131512   0.91733356 
   51200    215.27476    -690.0495    136187.83   -41566.715    2678.4273   -44245.143    26.108821   0.91706793 
   51300    212.68841   -731.05797    135964.43   -41625.723    2646.2482   -44271.972    26.273953   0.91857475 
   51400    211.57611   -630.51888    136093.53   -41620.626     2632.409   -44253.035    26.363472   0.91770336 
   51500    212.75236   -841.48793    135972.07   -41621.802    2647.0438   -44268.846    26.277753   0.91852311 
   51600    214.71211   -802.36723    136010.46   -41574.433    2671.4269    -44245.86    26.340479   0.91826386 
   51700     216.7518   -861.12283    135982.55   -41560.951    2696.8045   -44257.756    26.211111   0.91845235 
   51800    213.08048   -851.69747    135920.65   -41593.339    2651.1262   -44244.466    26.076863   0.91887063 
   51900     210.9454   -740.25367    135882.89    -41620.76    2624.5618   -44245.322      26.1819   0.91912595 
   52000    208.54586   -780.37155    135877.39   -41638.342     2594.707   -44233.049    26.115206   0.91916319 
   52100    209.20414     -753.838    136016.43   -41582.318    2602.8972   -44185.215    26.141053   0.91822357 
   52200    213.30852   -812.55693    136103.22    -41615.52    2653.9635   -44269.484    26.303742   0.91763806 
   52300    211.44052   -782.41128    135984.27   -41599.704     2630.722   -44230.426    26.391929   0.91844072 
   52400    213.75887   -798.84201     136071.4   -41553.626    2659.5668   -44213.193    26.405222   0.91785263 
   52500     218.9804   -704.61812    136014.05   -41555.812    2724.5325   -44280.344    26.167181   0.91823966 
   52600    210.88636   -847.87771    136056.35   -41589.766    2623.8273   -44213.593    26.118809   0.91795417 
   52700    210.95928   -619.34436    136095.71   -41616.158    2624.7346   -44240.892    26.272048   0.91768869 
   52800     213.6115   -755.61288    136282.57   -41567.885    2657.7332   -44225.618    26.452112    0.9164304 
   52900    216.48983   -774.15568    136315.92   -41561.261     2693.545   -44254.806    26.496717   0.91620621 
   53000    215.30095   -792.05449    136331.45   -41537.154    2678.7531   -44215.907    26.525902   0.91610182 
   53100    214.25793    -850.4639    136239.92   -41589.651     2665.776   -44255.427    26.482136   0.91671732 
   53200    214.14174   -718.70068    136225.62   -41581.419    2664.3303   -44245.749    26.500542   0.91681351 
   53300    215.46309   -749.74395     136403.4   -41574.117    2680.7705   -44254.887    26.327129   0.91561863 
   53400    213.81601   -769.55762    136359.04    -41657.33    2660.2777   -44317.608    26.144834   0.91591645 
   53500    216.65556   -798.77493    136281.91   -41665.789     2695.607   -44361.396    26.409632   0.91643483 
   53600    214.39085   -781.37675    136261.89   -41658.679    2667.4297   -44326.109    26.583949   0.91656952 
   53700    210.23404   -601.68286    136221.54   -41687.313    2615.7112   -44303.024    26.559839   0.91684096 
   53800    216.18802   -706.82347    136227.59   -41568.217      2689.79   -44258.007    26.563879   0.91680024 
   53900    215.91365   -843.59223    136320.08    -41628.66    2686.3762   -44315.037    26.409484   0.91617825 
   54000    218.49083   -789.05806    136311.48   -41607.886    2718.4413   -44326.328    26.397552   0.91623607 
   54100    215.24462   -836.72935    136243.96   -41623.106    2678.0523   -44301.158    26.478656   0.91669009 
   54200    211.32993   -692.00436    136305.67   -41599.308    2629.3461   -44228.654    26.448823   0.91627508 
   54300    218.65769   -808.99787    136269.04   -41573.388    2720.5174   -44293.906    26.583866   0.91652141 
   54400    213.05666   -780.13825    136258.48    -41608.79    2650.8299    -44259.62    26.585786   0.91659243 
   54500    214.03001   -758.22516    136270.92   -41596.266    2662.9403   -44259.206    26.448017   0.91650874 
   54600    218.53123   -760.06719    136252.12   -41505.976    2718.9439    -44224.92    26.514293   0.91663524 
   54700    216.93904   -857.59919    136208.99   -41522.962    2699.1341   -44222.096    26.573985   0.91692544 
   54800    213.04855   -739.52271    136270.13   -41589.852     2650.729   -44240.581    26.662917   0.91651404 
   54900    212.19474   -836.34858    136306.07   -41634.835     2640.106   -44274.941    26.546633   0.91627243 
   55000     208.6738   -634.50471    136234.78   -41698.582    2596.2988   -44294.881    26.551641   0.91675189 
   55100    215.24053   -783.37337    136192.33   -41674.396    2678.0014   -44352.397    26.565188   0.91703761 
   55200    212.05035   -857.23985    136268.89   -41681.984    2638.3095   -44320.293    26.471817   0.91652241 
   55300    217.14058    -660.3503    136330.09   -41630.439    2701.6416    -44332.08    26.682891   0.91611097 
   55400     217.0845   -523.43165       136393   -41614.949    2700.9439   -44315.893    26.670082    0.9156884 
   55500    215.36075   -800.94298    136369.56   -41548.109    2679.4972   -44227.606     26.60936   0.91584581 
   55600    213.68539   -768.91938    136187.69   -41579.265    2658.6525   -44237.917    26.648358   0.91706885 
   55700    217.50079   -723.76954    136301.59   -41572.315    2706.1233   -44278.438    26.715638   0.91630254 
   55800    214.08148    -563.7233    136175.39   -41586.803    2663.5806   -44250.383    26.602162   0.91715172 
   55900    216.34465    -710.1157    136395.45   -41546.508    2691.7387   -44238.247    26.531864     0.915672 
   56000    217.80307   -670.45308    136295.14   -41543.369    2709.8843   -44253.253    26.701117   0.91634586 
   56100    214.48458   -803.12105    136370.38   -41510.315     2668.596   -44178.911    26.866803   0.91584029 
   56200     217.4471   -880.71018    136119.87   -41522.347    2705.4554   -44227.803     26.80745   0.91752582 
   56300    217.64843   -733.35513    136187.51   -41553.872    2707.9602   -44261.832    26.835633   0.91707008 
   56400     217.0564    -895.0319    136248.71   -41542.558    2700.5943   -44243.153    26.726003   0.91665813 
   56500    212.45114   -841.18132    136156.64   -41630.077    2643.2961   -44273.374    26.692116   0.91727802 
   56600    211.76018   -755.35535    136305.39    -41635.82    2634.6992   -44270.519    26.803387   0.91627698 
   56700    213.30457   -771.71886    136217.54    -41665.12    2653.9143   -44319.034    26.919976   0.91686791 
   56800    213.80916   -740.64759    136121.72    -41588.05    2660.1925   -44248.243     26.92272    0.9175133 
   56900    214.84637   -626.71582    136163.66   -41561.748    2673.0973   -44234.845    27.108493   0.91723071 
   57000    218.95528   -740.81354    136231.54   -41514.263    2724.2199   -44238.483    27.006428    0.9167737 
   57100    217.62528   -727.53666    136182.34   -41582.746    2707.6722   -44290.419    26.890745    0.9171049 
   57200    216.91433     -683.513    136212.71   -41621.185    2698.8267   -44320.012    26.845681   0.91690044 
   57300    211.51016   -778.12583    136121.75   -41676.904    2631.5885   -44308.492    26.989106   0.91751312 
   57400    213.25928    -759.3801    136116.29   -41682.756    2653.3509   -44336.107    27.225501    0.9175499 
   57500    210.74547   -662.18762    136254.41   -41725.779    2622.0743   -44347.853    27.121125   0.91661982 
   57600    213.68967   -780.70765    136402.47   -41684.969    2658.7058   -44343.674    27.002427   0.91562482 
   57700    209.46736   -837.11259    136385.49   -41724.357    2606.1722    -44330.53    27.055266   0.91573885 
   57800    208.80329   -680.94701    136493.83   -41746.297    2597.9099   -44344.207    27.147878     0.915012 
   57900    213.14965   -681.15793    136524.06   -41713.979    2651.9869   -44365.966    27.095013   0.91480941 
   58000    208.48863   -740.41548    136324.15   -41711.746    2593.9949   -44305.741    27.179389    0.9161509 
   58100    212.74497   -707.68169     136282.1   -41650.652    2646.9519   -44297.604    27.103384   0.91643357 
   58200    217.63486   -614.13201    136356.44    -41600.45    2707.7914   -44308.241    27.108068   0.91593394 
   58300    218.97771    -727.1958    136425.31   -41535.025     2724.499   -44259.524    27.180651   0.91547156 
   58400    215.74788   -825.81783    136388.01   -41531.921    2684.3138   -44216.235     27.26158    0.9157219 
   58500    216.25921   -734.24253    136269.88    -41542.61    2690.6757   -44233.286    27.225552   0.91651573 
   58600    218.58042   -709.20268    136279.98   -41507.976     2719.556   -44227.532    27.199861   0.91644784 
   58700    219.56062   -780.17599    136332.43   -41512.627    2731.7515   -44244.379    27.151386   0.91609521 
   58800    215.96276   -712.45055    136372.06   -41559.679    2686.9873   -44246.666    27.191712   0.91582901 
   58900    214.58972   -825.56725    136354.19   -41614.956    2669.9041    -44284.86      27.2896   0.91594907 
   59000    217.61241   -821.48032    136469.72   -41606.599    2707.5121   -44314.111    27.227956   0.91517363 
   59100    213.42218      -773.74    136350.25   -41612.323    2655.3777   -44267.701    27.071316   0.91597549 
   59200    212.35619   -763.64796    136078.39   -41622.691    2642.1148   -44264.806    27.118291   0.91780549 
   59300    213.04165   -722.35199    136274.03   -41609.326    2650.6431   -44259.969    27.263794   0.91648785 
   59400    212.38075    -727.0588    135988.36   -41662.246    2642.4203   -44304.666    27.156912   0.91841308 
   59500    211.82207   -792.76563     136021.3   -41617.633    2635.4692   -44253.102     27.05833    0.9181907 
   59600    216.70419   -627.32004    136155.39   -41601.906    2696.2121   -44298.118    27.128415   0.91728641 
   59700    213.17383   -767.10559    136080.51   -41624.693    2652.2878   -44276.981    27.145269   0.91779115 
   59800    213.45298   -674.02528    136087.84   -41637.459    2655.7609   -44293.219    27.062128   0.91774176 
   59900    214.86682   -784.50465    136157.46   -41617.517    2673.3517   -44290.869    27.172035   0.91727249 
   60000    210.06023   -856.20638    136124.38   -41657.882    2613.5486   -44271.431    27.117829   0.91749541 
   60100    212.42279   -738.87486    136055.86    -41619.27    2642.9434   -44262.213     27.20294   0.91795743 
   60200    217.57556   -822.41696     136014.2   -41592.148    2707.0536   -44299.202    27.230607    0.9182386 
   60300    217.00397   -704.05151       136097   -41551.008    2699.9419    -44250.95    27.178625   0.91767999 
   60400    216.27716   -837.28382    136105.54   -41505.403    2690.8991   -44196.302    27.121887   0.91762239 
   60500    216.99524   -662.85458    136245.62   -41539.636    2699.8333    -44239.47    27.128154   0.91667894 
   60600    216.83046   -667.48377    136221.21   -41606.743    2697.7831   -44304.526    27.306014   0.91684318 
   60700    215.44885    -578.9972    136266.11   -41636.929    2680.5933   -44317.522    27.540094    0.9165411 
   60800    214.85621   -744.84066    136247.66   -41584.989    2673.2197   -44258.209    27.438091   0.91666521 
   60900      216.035   -754.52625    136139.64   -41570.841    2687.8862   -44258.727    27.362363   0.91739258 
   61000    215.12196   -723.98765    136097.15    -41602.98    2676.5262   -44279.506     27.31841   0.91767893 
   61100    211.02127   -793.51302    136119.36    -41637.29    2625.5058   -44262.796    27.337024   0.91752924 
   61200    213.38169   -641.91984    136184.47   -41634.949    2654.8739   -44289.823    27.291434   0.91709055 
   61300    209.81866   -688.80994     136109.5   -41618.973     2610.543   -44229.516    27.401273   0.91759572 
   61400    212.52352   -881.27847    136033.93   -41647.195    2644.1966   -44291.392    27.419077   0.91810546 
   61500    212.41529     -666.003    135889.83   -41633.229      2642.85    -44276.08    27.381334   0.91907901 
   61600    214.84715   -714.56293    135865.62   -41602.447     2673.107   -44275.554    27.249787   0.91924281 
   61700    207.73642   -727.60905    135938.75   -41668.041    2584.6361   -44252.677    27.238055    0.9187483 
   61800    211.54782   -687.34767     136016.8   -41719.226     2632.057   -44351.283    27.371329   0.91822107 
   61900    215.12408   -708.58546    136093.42   -41661.711    2676.5525   -44338.264    27.499747   0.91770408 
   62000    215.99612   -848.57277    136070.92   -41615.348    2687.4024    -44302.75    27.493633   0.91785583 
   62100    216.85258   -850.81043    136106.85   -41632.377    2698.0583   -44330.435    27.553247   0.91761354 
   62200    219.05099   -736.80789    136055.53   -41582.792    2725.4108   -44308.203    27.432384   0.91795971 
   62300    215.07802   -824.52156    136026.13   -41618.312    2675.9795   -44294.291    27.443693   0.91815809 
   62400      216.454   -591.21067    135830.02   -41558.676    2693.0992   -44251.775    27.348111   0.91948369 
   62500    216.03069   -784.42181    135814.47   -41565.712    2687.8325   -44253.545    27.530773   0.91958898 
   62600    212.75936   -720.44915    135956.92   -41571.906     2647.131   -44219.037    27.657055   0.91862547 
   62700    209.97443   -764.80585    136016.45   -41599.332    2612.4811   -44211.813    27.829985   0.91822346 
   62800    214.14162   -739.74978    136099.42   -41582.433    2664.3289   -44246.762    27.781392   0.91766363 
   62900     217.4559   -858.08198    136143.99   -41536.133    2705.5648   -44241.698    27.725801   0.91736325 
   63000      215.135   -813.96992    135970.28   -41508.019    2676.6884   -44184.708    27.763134   0.91853524 
   63100    215.92172   -699.56744    135954.29   -41491.969    2686.4767   -44178.446    27.589979   0.91864324 
   63200    215.69702    -658.9182    135868.11   -41531.569     2683.681    -44215.25    27.524203   0.91922592 
   63300    218.11571   -631.89154    135890.95   -41573.133    2713.7741   -44286.907    27.485816   0.91907144 
   63400    216.36762   -670.70428     135915.9   -41496.399    2692.0246   -44188.423    27.698844   0.91890274 
   63500    216.10661   -751.36984    136098.69   -41584.571    2688.7771   -44273.348    27.761784   0.91766859 
   63600    214.89138   -762.93729    136070.44   -41580.857    2673.6573   -44254.514    27.730156   0.91785907 
   63700    208.85055    -871.3094    135989.66    -41579.52    2598.4979   -44178.018    27.637768    0.9184043 
   63800    212.69263   -796.01918    135889.05   -41692.041    2646.3007   -44338.341    27.762874   0.91908432 
   63900    210.34102   -614.52481    135797.44   -41671.392    2617.0422   -44288.435    27.734606   0.91970429 
   64000    211.12932   -695.67954    135813.91   -41648.422    2626.8501   -44275.272     27.74794    0.9195928 
   64100    215.36268   -840.99191    135698.75   -41566.379    2679.5211     -44245.9    27.745896    0.9203732 
   64200    215.92759   -720.01468    135812.15   -41558.193    2686.5497   -44244.743    27.842186   0.91960469 
   64300    218.13161   -735.37339    135777.89   -41471.032     2713.972   -44185.004    27.927099   0.91983673 
   64400    217.10071   -734.13585    135988.63   -41492.597    2701.1456   -44193.742    27.834101    0.9184113 
   64500    220.12738   -715.44917    135827.46   -41481.313     2738.803   -44220.116    27.797062   0.91950106 
   64600    216.24873   -775.51973    135800.53    -41536.18    2690.5454   -44226.725    27.707676   0.91968336 
   64700    214.23583   -745.50385    135864.65    -41543.01     2665.501   -44208.511    27.852888   0.91924934 
   64800    214.54223   -711.69367    135969.13   -41552.359    2669.3133   -44221.673    27.939798   0.91854297 
   64900     214.8823   -713.34701    136066.18   -41530.884    2673.5443   -44204.428     28.03903    0.9178878 
   65000    217.39056   -765.93479    135989.85   -41506.458    2704.7519    -44211.21    28.090234   0.91840305 
   65100    215.46107   -882.38632    135866.94   -41535.967    2680.7453   -44216.712    28.219872   0.91923388 
   65200    217.76118   -844.16184    135796.87    -41530.49    2709.3631   -44239.853    28.056243   0.91970816 
   65300    215.79776   -770.82858    135799.04   -41532.518    2684.9344   -44217.453     28.02183   0.91969351 
   65400    220.36418   -850.65859     135647.9    -41476.07    2741.7494   -44217.819    28.005657   0.92071822 
   65500    216.15273   -671.13183    135720.33   -41544.228     2689.351   -44233.579    28.037726   0.92022683 
   65600     210.5822    -831.5102    135558.06   -41575.796    2620.0429   -44195.839    28.160712   0.92132838 
   65700    213.28222   -769.67133    135676.85   -41615.483    2653.6363    -44269.12    28.171822   0.92052172 
   65800    213.47332   -794.81005    135728.98   -41610.797     2656.014   -44266.811    28.270903   0.92016818 
   65900    214.40558   -800.93347    135834.93   -41579.888     2667.613   -44247.501    28.333643   0.91945045 
   66000    219.03587   -751.66514    135815.85   -41487.504    2725.2227   -44212.726    28.225579   0.91957964 
   66100    220.39339    -667.7769    135872.48   -41436.345    2742.1128   -44178.458    28.223827   0.91919639 
   66200    219.30366    -655.1392    135944.15   -41420.444    2728.5545   -44148.999    28.114692   0.91871177 
   66300    219.62533   -781.33038     135970.3   -41465.233    2732.5566    -44197.79    28.280659    0.9185351 
   66400    216.47662   -627.24773    135951.17   -41524.243    2693.3807   -44217.624    28.291623   0.91866432 
   66500    218.38825    -681.0748    135899.22   -41554.842     2717.165   -44272.007    28.328739    0.9190155 
   66600    215.42789   -799.69995    135931.04   -41571.423    2680.3326   -44251.756    28.457224   0.91880041 
   66700    213.64612   -715.21017    135983.05   -41604.144     2658.164   -44262.308    28.506101   0.91844895 
   66800    213.97896   -756.86078    135935.47   -41538.868    2662.3051   -44201.173    28.449425   0.91877047 
[...]
   84600    209.74738   -733.12567    135710.17   -41695.495    2609.6562   -44305.152    31.445493   0.92029574 
   84700    213.65954   -649.63252    135689.16   -41705.167    2658.3308   -44363.498    31.444571   0.92043822 
   84800    210.75987   -804.31345    135706.38   -41675.357    2622.2535    -44297.61     31.42932   0.92032142 
   84900    213.31797   -813.33632    135637.78    -41656.63    2654.0811   -44310.711    31.346474   0.92078691 
   85000    217.05889   -694.21593    135539.95     -41614.5    2700.6252   -44315.126    31.326625   0.92145149 
   85100     211.4359    -811.4526    135660.62   -41619.032    2630.6646   -44249.696    31.535796   0.92063187 
   85200    215.16751   -782.52752    135683.15   -41634.614    2677.0929   -44311.707    31.398607   0.92047903 
   85300     213.3883   -738.16342    135705.16   -41672.596    2654.9561   -44327.552    31.457078   0.92032972 
   85400    210.19329   -831.06395    135672.83   -41662.548    2615.2042   -44277.752     31.44846   0.92054902 
   85500    215.02393   -681.92894    135575.71   -41637.696    2675.3065   -44313.002    31.595627   0.92120847 
   85600    217.64297   -677.43817    135647.37   -41607.973    2707.8923   -44315.865    31.520433   0.92072183 
   85700     214.0023   -673.24539    135817.12   -41645.373    2662.5955   -44307.968    31.470011   0.91957104 
   85800    211.11883   -769.36338    135647.48   -41637.911    2626.7196   -44264.631    31.482328   0.92072104 
   85900     217.1046   -844.73176    135535.92   -41538.166    2701.1939   -44239.359    31.473706   0.92147893 
   86000    215.19948   -745.52498    135406.69   -41585.537    2677.4907   -44263.027    31.623707   0.92235838 
   86100     217.6325   -861.76048    135494.15   -41576.861     2707.762   -44284.623    31.706318   0.92176297 
   86200    214.49168   -631.64791    135602.15    -41552.04    2668.6843   -44220.725    31.762637   0.92102885 
   86300      213.761   -612.59722    135610.51   -41589.894    2659.5933   -44249.488    31.739829   0.92097205 
   86400     213.9081     -863.645    135690.32   -41604.064    2661.4234   -44265.488    31.722801   0.92043034 
   86500     215.5662   -806.47637    135677.04   -41597.707    2682.0533    -44279.76     31.77419   0.92052049 
   86600    218.49776   -770.83662    135581.76   -41549.523    2718.5275   -44268.051    31.800155   0.92116738 
   86700     219.1124   -801.26405     135763.3   -41543.447    2726.1749   -44269.622    31.828016   0.91993555 
   86800    213.62837   -832.10268    135672.96   -41611.783     2657.943   -44269.726    31.915768   0.92054814 
   86900    217.00761   -741.98789    135696.95   -41567.241    2699.9873   -44267.229     31.88187   0.92038536 
   87000     216.3384      -684.76    135832.98   -41561.129     2691.661    -44252.79    31.692763   0.91946367 
   87100    215.51779   -726.32789    135785.96   -41606.736    2681.4511   -44288.187    31.759655   0.91978209 
   87200    213.07848   -669.42127    135777.16   -41606.072    2651.1014   -44257.174    31.816607   0.91984169 
   87300    215.17085   -812.17882    135708.96    -41612.73    2677.1344   -44289.865    31.908508   0.92030397 
   87400    218.92636   -805.91581     135869.7   -41625.884    2723.8601   -44349.744    31.991821    0.9192152 
   87500    212.06113    -846.1009    135767.93   -41642.133    2638.4436   -44280.577    31.874215   0.91990419 
   87600    212.44498   -864.70949    135685.11   -41648.007    2643.2194   -44291.226    31.651808   0.92046568 
   87700    215.60064   -608.29873    135744.91   -41649.468    2682.4819    -44331.95    31.648854    0.9200602 
   87800    213.77666   -695.71223     135929.7   -41625.859    2659.7881   -44285.647    31.808352   0.91880942 
   87900    215.73534   -730.60284    135966.57   -41648.777    2684.1577   -44332.935    31.921351   0.91856029 
   88000    211.51144   -722.99298    136054.75   -41673.205    2631.6045   -44304.809    31.755096   0.91796491 
   88100    215.68106   -613.81064    136112.92   -41610.396    2683.4825   -44293.878    31.789285   0.91757267 
   88200    216.36196   -807.90175    136014.83   -41579.997    2691.9541   -44271.951    31.851745   0.91823439 
   88300    216.33822   -742.21892    135970.29   -41604.231    2691.6587    -44295.89    32.069678   0.91853518 
   88400     210.0164   -714.92106    136009.47   -41712.394    2613.0033   -44325.397    32.119747   0.91827056 
   88500    218.74912    -896.3655    136169.93   -41610.968     2721.655   -44332.623    32.005573   0.91718847 
   88600    214.02858   -735.66081     136012.7    -41565.18    2662.9224   -44228.102    31.954403   0.91824875 
   88700    217.18057   -628.77819    136138.15   -41552.748    2702.1392   -44254.887    32.126393   0.91740262 
   88800     219.6779   -721.33679    136161.22   -41505.321    2733.2108   -44238.532    32.100605   0.91724717 
   88900    217.62115   -833.45467    135983.46   -41553.211    2707.6209   -44260.832     32.11042   0.91844619 
   89000    219.40651   -807.27604    135925.42   -41535.076    2729.8341    -44264.91    32.224709   0.91883839 
   89100    213.47056   -703.77013    135930.43   -41631.854    2655.9796   -44287.833    32.214027   0.91880451 
   89200    216.96549   -738.76496    135902.88   -41668.326    2699.4632   -44367.789    32.183063   0.91899079 
   89300    214.14986   -805.03724    136015.39   -41690.033    2664.4314   -44354.464    32.304687    0.9182306 
   89400    214.01383   -826.49876    136014.07   -41710.578    2662.7389   -44373.317    32.045525    0.9182395 
   89500    213.33182   -691.28388    136020.14   -41746.372    2654.2534   -44400.626    32.065646   0.91819849 
   89600    211.42816   -806.22231    136001.61   -41784.888    2630.5682   -44415.456     32.12286   0.91832363 
   89700    208.56185   -763.63098       135976   -41750.309    2594.9059   -44345.215    32.142368   0.91849658 
   89800    212.69016   -706.43401    135866.32   -41697.424    2646.2699   -44343.694    32.242098   0.91923804 
   89900    208.67189   -854.80439    136018.76   -41754.351     2596.275   -44350.626    32.256244   0.91820786 
   90000    214.70026   -730.78292    136025.83   -41660.903    2671.2794   -44332.182    32.207861   0.91816013 
   90100    212.97828   -931.91956    136061.86   -41667.108    2649.8548   -44316.962    32.277976   0.91791696 
   90200    212.27412   -771.35206    135983.19   -41702.062    2641.0936   -44343.155    32.210378   0.91844801 
   90300    212.36702   -705.78725    135874.66   -41713.076    2642.2495   -44355.326    32.304719   0.91918165 
   90400    213.85012   -685.43275    135957.82   -41693.005     2660.702   -44353.707    32.274618   0.91861938 
   90500    214.80054    -700.6261    135961.88   -41666.171    2672.5271   -44338.698    32.329737     0.918592 
   90600    218.23108   -867.72279    136009.67   -41577.601    2715.2095   -44292.811    32.402137   0.91826921 
   90700    218.15885   -684.39625    135993.83   -41576.551    2714.3109   -44290.862    32.457352   0.91837617 
   90800    210.66717    -679.5882    135906.46   -41600.581    2621.1001   -44221.681    32.469748   0.91896652 
   90900    209.15583    -836.3414    135863.69   -41694.276    2602.2962   -44296.572    32.611043   0.91925587 
   91000     209.0311   -753.44545    135859.85   -41699.343    2600.7443   -44300.087    32.497731   0.91928185 
   91100    209.97793   -681.82856    135830.02   -41681.482    2612.5247   -44294.007    32.489544   0.91948373 
   91200    216.49687   -793.59599    135655.57   -41641.872    2693.6327   -44335.505    32.399489   0.92066614 
   91300     216.6881   -689.50471    135852.89   -41548.697     2696.012   -44244.709    32.487839   0.91932894 
   91400    215.99254   -714.26164    135937.85   -41530.368    2687.3579   -44217.726    32.783939   0.91875433 
   91500     217.3198   -653.21707    135927.74   -41540.389    2703.8715    -44244.26    32.605464    0.9188227 
   91600    214.46767   -803.64936    135814.01   -41588.119    2668.3855   -44256.504    32.645082   0.91959212 
   91700    213.75192   -739.65382    135759.42   -41658.693    2659.4803   -44318.173    32.656282   0.91996187 
   91800    214.70896   -698.09055    135951.91   -41608.982    2671.3876    -44280.37    32.626326   0.91865934 
   91900    214.86751   -777.44117    135989.55   -41608.488    2673.3604   -44281.848    32.782023   0.91840505 
   92000    212.71393   -745.08483    136185.79   -41613.454    2646.5657    -44260.02    32.930215   0.91708168 
   92100     214.8958   -779.35208    136108.19   -41654.675    2673.7123   -44328.387    32.760999   0.91760453 
   92200    216.34474   -773.36657    136144.54   -41602.142    2691.7399   -44293.882    32.925747   0.91735952 
   92300    216.84789   -730.91552    135895.22    -41525.33         2698    -44223.33    32.970515   0.91904258 
   92400    218.28233   -759.00072    135922.19   -41526.053    2715.8471     -44241.9    32.966447   0.91886018 
   92500    213.83097   -826.96082    136047.66   -41565.362    2660.4638   -44225.826    32.917894   0.91801277 
   92600    220.12352   -715.35246    135920.33   -41540.968    2738.7551   -44279.723    32.877785   0.91887281 
   92700    214.71489   -759.23162    135799.87   -41538.301    2671.4614   -44209.762    32.694237   0.91968788 
   92800    216.47375   -693.70154    135815.89   -41588.651     2693.345   -44281.996    32.756864   0.91957939 
   92900    213.02712   -848.29726    135828.22     -41556.8    2650.4623   -44207.262    32.764144   0.91949591 
   93000    217.68825   -706.94189    135859.32   -41579.717    2708.4557   -44288.172    32.931942   0.91928544 
   93100    215.26217    -722.6081    135852.84   -41527.669    2678.2706    -44205.94    33.059736    0.9193293 
   93200    211.88335   -820.29861    135748.85   -41552.674    2636.2317   -44188.906    32.960553   0.92003352 
   93300     217.9366   -707.20134    135863.63   -41581.238    2711.5456   -44292.783    32.943726   0.91925624 
   93400    219.21186   -749.82076    136009.09   -41616.275    2727.4123   -44343.688    33.046458   0.91827311 
   93500    212.07213   -776.19715    135917.64   -41667.546    2638.5805   -44306.127    33.036877   0.91889098 
   93600    213.90707   -849.97319    135773.19   -41743.539    2661.4106    -44404.95      33.0102   0.91986856 
   93700    215.06469   -747.67792       135760   -41709.314    2675.8136   -44385.128    32.946774   0.91995797 
   93800    212.52761   -697.47255    135791.02   -41676.759    2644.2475   -44321.006    32.781693    0.9197478 
   93900    212.99031   -590.24619    135980.82   -41653.293    2650.0044   -44303.298    32.888454   0.91846402 
   94000    215.40975   -769.21286    136020.08   -41664.258    2680.1068   -44344.365    33.099758    0.9181989 
   94100    212.44358   -799.89819    136016.03   -41669.545     2643.202   -44312.747    33.194694   0.91822625 
   94200    211.27429   -802.33195    135906.41   -41657.114    2628.6538   -44285.767    33.026493    0.9189669 
   94300    215.66147   -814.34205    135842.06    -41613.39    2683.2387   -44296.629    32.869951    0.9194022 
   94400    216.18599   -615.09536    135911.86   -41599.997    2689.7647   -44289.761    32.813394   0.91893002 
   94500    217.56518   -716.66963    135983.79   -41534.909    2706.9244   -44241.834    32.891718   0.91844397 
   94600    217.51533   -767.58226    136023.85   -41571.653    2706.3042   -44277.957    33.053428   0.91817347 
   94700    216.77301     -671.967    135938.33   -41617.426    2697.0683   -44314.494    32.976035   0.91875112 
   94800    217.43075   -757.76796    135993.85   -41607.932    2705.2519   -44313.183    33.065406   0.91837603 
   94900    221.03559   -852.47374    135956.08    -41595.08     2750.103   -44345.183     33.14771   0.91863114 
   95000     217.8884   -725.07083    136049.01   -41583.802    2710.9459   -44294.748    33.016747   0.91800366 
   95100    215.27198   -792.72569    135981.41   -41589.671    2678.3927   -44268.064    33.150516   0.91846006 
   95200    215.19136   -661.52119    136008.89   -41616.746    2677.3896   -44294.136    33.152879   0.91827446 
   95300    218.50492   -692.63381    135864.04   -41520.675    2718.6166   -44239.292    33.065219    0.9192535 
   95400    214.56619   -787.10005    135960.81   -41574.011    2669.6114   -44243.622    33.114411   0.91859921 
   95500    215.23903   -768.15799    135850.97   -41583.317    2677.9827     -44261.3     33.29503   0.91934194 
   95600    215.94148   -735.82193    135711.57   -41559.195    2686.7226   -44245.918    33.218091   0.92028625 
   95700    214.04709   -785.04305    135703.55   -41625.499    2663.1527   -44288.652    33.214512   0.92034062 
   95800     212.2694   -728.67608    135855.01    -41670.36    2641.0349   -44311.395    33.223622   0.91931459 
   95900     213.5914   -762.27719    135796.24   -41617.705    2657.4831   -44275.188    33.164071   0.91971246 
   96000     214.3217   -873.11522    135879.39   -41696.587    2666.5694   -44363.156    33.258126   0.91914961 
   96100    212.25144   -794.78614    135853.92   -41648.947    2640.8115   -44289.758    33.311982   0.91932194 
   96200    213.21097   -731.43707    135859.44   -41692.998    2652.7499   -44345.748     33.22056   0.91928459 
   96300    214.85131   -617.97448    135873.52   -41650.036    2673.1587   -44323.194    33.370832   0.91918931 
   96400    220.68772   -722.76456    135970.58   -41629.929    2745.7749   -44375.704    33.410658   0.91853323 
   96500    218.17718   -714.68999    135909.35   -41678.974    2714.5389   -44393.513    33.236804     0.918947 
   96600    212.32196     -816.953    135970.93   -41674.338    2641.6888   -44316.027    33.399156   0.91853083 
   96700    212.18152    -772.8422    135869.27   -41742.609    2639.9415   -44382.551    33.427725   0.91921806 
   96800    209.23583   -765.88507    135958.98   -41777.266    2603.2915   -44380.558    33.196259   0.91861153 
   96900    211.15743   -738.99341    135886.63   -41710.387    2627.1998   -44337.587    33.384783   0.91910067 
   97000    211.15604   -774.72179    135680.34   -41703.787    2627.1825   -44330.969     33.38851   0.92049805 
   97100    212.82156   -700.29473    135845.19    -41687.19    2647.9049   -44335.094    33.393683   0.91938106 
   97200    213.88998   -829.55321       135820   -41699.331     2661.198   -44360.529    33.475913   0.91955154 
   97300    214.13758   -675.44048    135744.78   -41695.747    2664.2786   -44360.026    33.405049   0.92006109 
   97400    211.19773   -718.37815     135791.5   -41702.748    2627.7013    -44330.45    33.395283   0.91974453 
   97500    212.80853   -693.19709    135737.53   -41608.264    2647.7427   -44256.007    33.455146   0.92011021 
   97600    216.83772   -707.25462    135856.01   -41676.561    2697.8735   -44374.435    33.438859   0.91930783 
   97700      216.109   -669.84057    135990.64   -41606.244    2688.8068   -44295.051    33.418061   0.91839768 
   97800    216.64313   -844.89095     135954.5   -41593.966    2695.4524   -44289.418    33.559369   0.91864183 
   97900    220.28587   -796.01222    135861.14   -41564.499    2740.7751   -44305.274    33.416071   0.91927311 
   98000     215.4689   -701.18678    135874.52    -41590.41    2680.8428   -44271.253     33.61461   0.91918257 
   98100    217.06372   -795.84146    135861.05   -41670.247    2700.6853   -44370.932    33.665594   0.91927368 
   98200    213.89412   -729.23962    135877.24    -41642.08    2661.2495   -44303.329    33.641039   0.91916421 
   98300    213.11735   -702.93203    135820.51   -41663.376     2651.585   -44314.961    33.807151   0.91954809 
   98400    212.64278   -802.45225     135953.6   -41682.292    2645.6804   -44327.972    33.845967   0.91864792 
   98500    217.32492   -779.03704       135717   -41693.859    2703.9351   -44397.794    33.853781   0.92024943 
   98600     213.3447    -775.2236    135660.97   -41708.663    2654.4137   -44363.077    33.833846   0.92062952 
   98700    211.03844    -654.0132    135717.01   -41750.829    2625.7195   -44376.549    33.712092   0.92024938 
   98800    211.98519   -714.57683    135907.31    -41721.16    2637.4987   -44358.658     33.74692    0.9189608 
   98900     213.6811   -829.93707    135804.35   -41728.274    2658.5991   -44386.873    33.689297   0.91965748 
   99000    209.48027   -742.02906    135589.57   -41768.037    2606.3328    -44374.37    33.731588   0.92111433 
   99100    212.82126   -738.38858    135693.17   -41684.846    2647.9011   -44332.747    33.653564   0.92041107 
   99200    214.51101   -666.55048    135798.99   -41674.786    2668.9247   -44343.711    33.707058    0.9196938 
   99300    219.88818   -690.63967    135786.61   -41641.135     2735.827   -44376.962    33.867133   0.91977766 
   99400    218.75399   -784.52079    135838.55   -41620.926    2721.7155   -44342.641    33.827806   0.91942594 
   99500    217.03338   -786.21562    135722.54    -41506.39    2700.3078   -44206.698    33.971821   0.92021187 
   99600    220.72591   -689.84369    135764.12   -41520.298      2746.25   -44266.548    33.896615   0.91993003 
   99700    217.90332   -879.89614    135702.14   -41538.286    2711.1315   -44249.417    33.893776   0.92035017 
   99800    214.41311   -688.74248    135746.43   -41549.454    2667.7067    -44217.16    33.939493   0.92004988 
   99900    214.15299   -802.86901    135842.78   -41607.126    2664.4704   -44271.597     33.92535   0.91939734 
  100000     216.1741    -765.5175    135847.27   -41626.071    2689.6168   -44315.688    33.864224   0.91936695 
  100100    216.70851   -785.61841    135900.54   -41566.195    2696.2659   -44262.461    34.087405   0.91900661 
  100200    216.01876   -720.59206    135816.35   -41572.902    2687.6841   -44260.586    33.916995   0.91957623 
  100300     218.9903   -730.12839    135810.45   -41564.512    2724.6557   -44289.168    34.010043   0.91961623 
  100400    217.42142   -772.09312    135805.13   -41611.995    2705.1358   -44317.131    33.887004    0.9196522 
  100500    218.11966   -718.09173    135839.83   -41541.494    2713.8232   -44255.318    33.818821   0.91941734 
  100600    212.89005   -814.14149    135935.41   -41632.674     2648.757   -44281.431    33.993791   0.91877085 
  100630    217.38334   -844.69015    135860.45   -41620.601     2704.662   -44325.264    33.972049   0.91927774 
Loop time of 70.2114 on 6 procs for 100000 steps with 4175 atoms

Performance: 615.285 ns/day, 0.039 hours/ns, 1424.270 timesteps/s
98.3% CPU use with 6 MPI tasks x no OpenMP threads

MPI task timing breakdown:
Section |  min time  |  avg time  |  max time  |%varavg| %total
---------------------------------------------------------------
Pair    | 55.589     | 56.645     | 58.03      |  11.1 | 80.68
Neigh   | 4.8082     | 4.8462     | 4.86       |   0.8 |  6.90
Comm    | 4.8054     | 6.1883     | 7.2553     |  33.3 |  8.81
Output  | 0.15914    | 0.15995    | 0.16375    |   0.4 |  0.23
Modify  | 1.7429     | 1.7809     | 1.8128     |   1.9 |  2.54
Other   |            | 0.5908     |            |       |  0.84

Nlocal:        695.833 ave         705 max         690 min
Histogram: 2 0 0 1 1 1 0 0 0 1
Nghost:        1434.33 ave        1446 max        1425 min
Histogram: 1 1 1 0 0 1 1 0 0 1
Neighs:        0.00000 ave           0 max           0 min
Histogram: 6 0 0 0 0 0 0 0 0 0
FullNghs:      18677.7 ave       18893 max       18455 min
Histogram: 1 1 0 0 0 1 1 1 0 1

Total # of neighbors = 112066
Ave neighs/atom = 26.842156
Neighbor list builds = 5297
Dangerous builds = 0

undump              1
unfix               2
unfix               3
unfix               4


################################################
#######         Run Simulation         #########
################################################

reset_timestep      0
log                 log.run_${NAME}
log                 log.run_liquid_density_MLmW
