
# Create simulation box of size 50 x 50 x 50 Angstrom
#
lattice	            sc 1
Lattice spacing in x,y,z = 1.0000000 1.0000000 1.0000000
region 	            all block 0 50 0 50 0 50 units box
create_box          1 all
Created orthogonal box = (0.0000000 0.0000000 0.0000000) to (50.000000 50.000000 50.000000)
  1 by 1 by 1 MPI processor grid

# fill box with 4175 randomly distributed atoms
#
create_atoms        1 random 4175 63782 all
Created 4175 atoms
  create_atoms CPU = 0.000 seconds
mass                1 18.015

# Define potential
#
pair_style          sw
pair_coeff          * * ML_mW.sw mW
Reading sw potential file ML_mW.sw with DATE: 2019-02-27

# Run minimization
#
minimize            1.0e-8 1.0e-8 10000 1000
WARNING: Using 'neigh_modify every 1 delay 0 check yes' setting during minimization (../min.cpp:187)
Neighbor list info ...
  update every 1 steps, delay 0 steps, check yes
  max neighbors/atom: 2000, page size: 100000
  master list distance cutoff = 6.0032907
  ghost atom cutoff = 6.0032907
  binsize = 3.0016454, bins = 17 17 17
  1 neighbor lists, perpetual/occasional/extra = 1 0 0
  (1) pair sw, perpetual
      attributes: full, newton on
      pair build: full/bin/atomonly
      stencil: full/bin/3d
      bin: standard
Per MPI rank memory allocation (min/avg/max) = 4.759 | 4.759 | 4.759 Mbytes
Step Temp E_pair E_mol TotEng Press 
       0            0    7792709.3            0    7792709.3    5898794.3 
     631            0   -45138.185            0   -45138.185   -130.57836 
Loop time of 7.36497 on 1 procs for 631 steps with 4175 atoms

100.0% CPU use with 1 MPI tasks x no OpenMP threads

Minimization stats:
  Stopping criterion = max force evaluations
  Energy initial, next-to-last, final = 
      7792709.32924456  -45137.9104522973  -45138.1854596308
  Force two-norm initial, final = 2.0191930e+08 4.4741522
  Force max component initial, final = 1.0948746e+08 1.0165594
  Final line search alpha, max atom move = 0.045182713 0.045930911
  Iterations, force evaluations = 631 1000

MPI task timing breakdown:
Section |  min time  |  avg time  |  max time  |%varavg| %total
---------------------------------------------------------------
Pair    | 7.1028     | 7.1028     | 7.1028     |   0.0 | 96.44
Neigh   | 0.1651     | 0.1651     | 0.1651     |   0.0 |  2.24
Comm    | 0.019511   | 0.019511   | 0.019511   |   0.0 |  0.26
Output  | 0          | 0          | 0          |   0.0 |  0.00
Modify  | 0          | 0          | 0          |   0.0 |  0.00
Other   |            | 0.07753    |            |       |  1.05

Nlocal:        4175.00 ave        4175 max        4175 min
Histogram: 1 0 0 0 0 0 0 0 0 0
Nghost:        3825.00 ave        3825 max        3825 min
Histogram: 1 0 0 0 0 0 0 0 0 0
Neighs:        0.00000 ave           0 max           0 min
Histogram: 1 0 0 0 0 0 0 0 0 0
FullNghs:     119936.0 ave      119936 max      119936 min
Histogram: 1 0 0 0 0 0 0 0 0 0

Total # of neighbors = 119936
Ave neighs/atom = 28.727186
Neighbor list builds = 26
Dangerous builds = 0

# Add velocity/set timestep
#
velocity            all create ${TEMP} 120598 rot yes dist gaussian
velocity            all create 205 120598 rot yes dist gaussian
timestep            5.0

# Define output
#
compute	            1 all msd
thermo	            100
thermo_style        custom step temp press vol etotal ke pe c_1[4] density

# Neighbor lists
#
neigh_modify        delay 0 every 1 check yes

# Set fixes
#
fix                 1 all momentum 10 linear 1 1 1 rescale
fix                 2 all nve
fix                 3 all temp/csvr ${TEMP} ${TEMP} 500.0 928347
fix                 3 all temp/csvr 205 ${TEMP} 500.0 928347
fix                 3 all temp/csvr 205 205 500.0 928347
fix                 4 all press/berendsen iso ${PRES} ${PRES} 1000.0 modulus 20000
fix                 4 all press/berendsen iso 0 ${PRES} 1000.0 modulus 20000
fix                 4 all press/berendsen iso 0 0 1000.0 modulus 20000

# Run 0.5 ns equilibration
#
dump                1 all custom 1000 eq.${NAME}.dump id type x y z vx vy vz
dump                1 all custom 1000 eq.liquid_density_MLmW.dump id type x y z vx vy vz
run                 100000
Per MPI rank memory allocation (min/avg/max) = 4.009 | 4.009 | 4.009 Mbytes
Step Temp Press Volume TotEng KinEng PotEng c_1[4] Density 
     631          205    802.16775       125000   -42587.596    2550.5897   -45138.185            0   0.99914793 
     700    132.69541   -16.381979    125512.93   -41810.452    1650.9832   -43461.435   0.22629246   0.99506476 
     800    163.77879    4.7443779    125229.43   -41109.653    2037.7195   -43147.373   0.56234229   0.99731738 
     900    179.70467    34.927762    125505.52   -40690.653    2235.8678    -42926.52   0.90708934   0.99512352 
    1000    193.09649    34.899857    125736.93   -40444.283    2402.4874   -42846.771    1.2555069   0.99329207 
    1100    201.38882    4.0220843    125660.69   -40283.288    2505.6597   -42788.948    1.5412191   0.99389465 
    1200    198.64264    82.042472    125808.49    -40334.99    2471.4921   -42806.482    1.8950506   0.99272703 
    1300    201.31032   -15.677837    125829.55   -40334.747    2504.6831    -42839.43    2.2782428   0.99256094 
    1400    202.34263    127.55562    125865.32   -40360.066     2517.527   -42877.593    2.6252223   0.99227885 
    1500    205.22607    26.865794     125879.3   -40339.238    2553.4024    -42892.64    2.9398805   0.99216864 
    1600    208.19015   -142.28523    125897.55   -40288.412    2590.2813   -42878.693     3.276246   0.99202481 
    1700    204.74112     138.7302    125994.85   -40332.312    2547.3688   -42879.681    3.6373778   0.99125867 
    1800    203.56292   -200.43592    126103.36   -40429.314    2532.7097   -42962.024    3.8354533   0.99040576 
    1900    203.55798   -57.710717    126045.68   -40448.738    2532.6482   -42981.387    4.1743251   0.99085896 
    2000    208.14745   -29.420777    126209.44   -40436.415      2589.75   -43026.165    4.5148058   0.98957331 
    2100    209.29287       25.339    126288.15   -40417.098    2604.0012   -43021.099     4.734435   0.98895653 
    2200    207.58109    61.746104     126354.3   -40453.912    2582.7034   -43036.616    4.8790337   0.98843879 
    2300    209.73881    42.098392    126475.99   -40464.954    2609.5495   -43074.504     5.110381   0.98748772 
    2400    207.73061    99.515657    126666.35   -40499.188    2584.5637   -43083.752    5.3826454    0.9860037 
    2500     211.1995    11.302983    126532.06    -40484.83    2627.7233   -43112.553    5.5591068   0.98705019 
    2600    208.93111   -57.617395    126839.67   -40445.442    2599.5002   -43044.942    5.8481267   0.98465639 
    2700    208.96005    247.11746    126966.88   -40477.409    2599.8603   -43077.269    6.0572716   0.98366987 
    2800     211.9057   -104.77688    127144.02   -40479.795    2636.5098   -43116.304    6.3346121   0.98229941 
    2900    206.95539   -302.84473    127111.72   -40564.296    2574.9185   -43139.214    6.4320837     0.982549 
    3000     207.8898   -159.11899    127100.77   -40614.631    2586.5443   -43201.176    6.5919731   0.98263365 
    3100    208.71584    60.948033    127031.24   -40611.083    2596.8219   -43207.905     6.744428    0.9831715 
    3200    203.91665   -2.3349723    126989.56   -40664.177    2537.1108   -43201.287    6.8297862   0.98349418 
    3300    209.31924    108.58423    127263.34   -40666.501    2604.3292    -43270.83    6.9242286   0.98137839 
    3400    206.92411   -174.59019    127277.49   -40710.612    2574.5293   -43285.141    7.1708881   0.98126927 
    3500    206.00257    2.8408895     127395.7   -40735.789    2563.0636   -43298.853    7.3485118   0.98035875 
    3600    206.10894   -28.500929    127498.13   -40791.038    2564.3871   -43355.425    7.6627836   0.97957117 
    3700    205.44474    54.061989    127679.92   -40870.334    2556.1231   -43426.457    7.8346073   0.97817646 
    3800    205.07741   -146.88644    127905.84   -40834.313    2551.5528   -43385.865    8.0107115   0.97644873 
    3900    202.77384   -41.704729    127969.64   -40862.339    2522.8921   -43385.231    8.0104552   0.97596188 
    4000    204.52151    35.274908    128112.48   -40869.475    2544.6364   -43414.112    8.1214746   0.97487373 
    4100    206.22766    76.279315    128094.92   -40857.456    2565.8641    -43423.32    8.2986823   0.97500735 
    4200    205.77046   -13.953288    128280.15   -40886.391    2560.1757   -43446.567    8.3596403   0.97359953 
    4300    203.57477    88.803297    128343.84    -40905.01    2532.8572   -43437.867    8.5304327   0.97311639 
    4400    207.57999     70.87322    128358.61   -40921.453    2582.6897   -43504.143    8.4884539   0.97300442 
    4500    203.53408    93.284242    128421.05   -40922.583    2532.3509   -43454.934    8.6605747   0.97253131 
    4600    201.23656    -20.12525    128493.29   -40987.405    2503.7654    -43491.17     8.762808   0.97198454 
    4700    211.62551    140.55316    128747.87   -40913.498    2633.0236   -43546.522    9.1065281   0.97006259 
    4800    203.04553   -56.769979    128717.17   -40965.521    2526.2724   -43491.793    9.2225709   0.97029396 
    4900    210.11037   -62.883425    128805.33     -40851.3    2614.1725   -43465.472    9.3265725   0.96962986 
    5000    209.86434   -70.011521    128728.27   -40810.511    2611.1114   -43421.622    9.4559473   0.97021026 
    5100    207.10401   -65.087549    128589.53   -40881.483    2576.7676   -43458.251    9.4424356   0.97125705 
    5200    203.04333    141.73859    128642.42   -40943.235    2526.2451    -43469.48    9.4294695   0.97085778 
    5300    204.67076     31.89842    128817.49   -40908.631    2546.4934   -43455.125    9.5311304   0.96953833 
    5400    206.32115   -45.590717     128732.7   -40956.317    2567.0273   -43523.344    9.7540727    0.9701769 
    5500     202.9788   -112.70577    128716.45   -40960.317    2525.4422   -43485.759    9.9159935   0.97029938 
    5600    204.89231    63.657095    128614.13   -40965.118    2549.2498   -43514.367    10.000514   0.97107132 
    5700    205.23017    79.570281    128843.25   -40964.132    2553.4535   -43517.586    10.182777   0.96934443 
    5800    205.48184   -74.107935    128900.31   -40985.346    2556.5847   -43541.931    10.358692   0.96891535 
    5900    203.45798   -54.363533    128876.64   -41030.953    2531.4041   -43562.357    10.533914   0.96909331 
    6000    202.90523   -181.65874    128813.93   -41012.578    2524.5268   -43537.105    10.635235   0.96956509 
    6100    202.25794    112.88624    128956.51   -40965.901    2516.4733   -43482.375    10.712238   0.96849312 
    6200    204.28857    15.402663    129075.56   -41013.476    2541.7382   -43555.215    10.883334   0.96759987 
    6300    206.01207    102.59774    129213.04   -40993.556    2563.1818   -43556.738    10.866255   0.96657035 
    6400    205.88777    -51.47507     129370.8   -40983.809    2561.6352   -43545.444    10.963241   0.96539167 
    6500    208.92273    93.958901    129488.32   -40933.249    2599.3959   -43532.645    11.017054   0.96451547 
    6600    204.18616   -13.872654    129350.64   -41014.272     2540.464   -43554.736    11.074909    0.9655421 
    6700    200.58516   -141.38477    129514.43   -41076.127    2495.6607   -43571.787    11.247739   0.96432107 
    6800    202.94375    40.285738    129631.05   -41008.495    2525.0061   -43533.501    11.479368   0.96345354 
    6900    202.30456   -36.248018    129407.59   -40970.767    2517.0533    -43487.82    11.506337   0.96511722 
    7000    205.74705    -29.35115    129336.35   -40954.062    2559.8844   -43513.946    11.548005   0.96564876 
    7100    210.56607    112.25206    129222.73   -40978.405    2619.8422   -43598.247    11.602287   0.96649786 
    7200    205.15872    116.35901     129322.4   -41038.053    2552.5645   -43590.618    11.763753   0.96575299 
    7300    205.20134    38.540583    129382.51   -41088.454    2553.0948   -43641.549    11.906268    0.9653043 
    7400    205.38248   -154.53189    129401.94   -41121.844    2555.3485   -43677.192    11.985023   0.96515938 
    7500    201.46204    114.49258    129283.88   -41102.276    2506.5708   -43608.847    12.023402    0.9660407 
    7600    203.29941    133.42013    129326.91   -41163.704    2529.4312   -43693.135    12.043501   0.96571928 
    7700    198.94241    61.974122    129586.76   -41086.381    2475.2218   -43561.603    12.271305   0.96378277 
    7800    209.01673    184.84773    129646.05   -41073.881    2600.5655   -43674.446    12.455368   0.96334206 
    7900    204.48529   -81.031993    129571.16   -41140.764    2544.1858    -43684.95    12.605747   0.96389887 
    8000     206.0202   -38.210042    129585.19   -41125.139     2563.283   -43688.422    12.560965   0.96379451 
    8100    205.39312    3.0906719    129717.56   -41215.838    2555.4809   -43771.319    12.483594   0.96281096 
    8200    200.41703    -54.63528    129611.53   -41244.898    2493.5688   -43738.467    12.536017   0.96359864 
    8300    203.68647   -50.866948    129534.21   -41258.123    2534.2469    -43792.37    12.710539   0.96417382 
    8400    204.60884   -103.42896    129751.15   -41220.137    2545.7229    -43765.86    12.771708   0.96256171 
    8500    208.87808   -88.347978     129819.1   -41165.276    2598.8404   -43764.117    12.857199   0.96205793 
    8600    203.59223     124.1265    129727.16    -41188.15    2533.0745   -43721.225    12.949427   0.96273975 
    8700    205.36782    37.097289    129854.74   -41163.305    2555.1661   -43718.472    12.911086   0.96179384 
    8800    204.59069   -8.6081324    129760.73   -41188.725    2545.4972   -43734.222    13.043919   0.96249066 
    8900    203.36614   -165.96741    129801.98   -41257.254    2530.2614   -43787.515    13.309615   0.96218481 
    9000    202.04029    157.61972    129829.71   -41221.887    2513.7653   -43735.652    13.606698   0.96197931 
    9100    203.53784   -90.736064    129849.74   -41266.299    2532.3977   -43798.696    13.574778   0.96183091 
    9200    203.10624    116.21356    129930.38   -41184.794    2527.0278   -43711.821     13.58541   0.96123395 
    9300    207.32685   -194.28517    129749.19   -41238.346    2579.5401   -43817.886    13.627336   0.96257623 
    9400     202.9234    98.054401    129632.01   -41205.541    2524.7529   -43730.294    13.576987   0.96344637 
    9500    204.56874    70.806088    129749.05   -41214.822    2545.2241   -43760.046    13.575276   0.96257729 
    9600    207.04052   -153.91181     129544.4   -41200.116    2575.9776   -43776.093    13.774969   0.96409798 
    9700    206.93989   -28.812768    129462.64     -41126.1    2574.7257   -43700.825    13.907945   0.96470682 
    9800    203.55923    11.849579    129520.75   -41197.881    2532.6638   -43730.545    14.022481   0.96427402 
    9900    203.47036    218.10696     129548.4   -41264.648     2531.558   -43796.206    13.985073   0.96406816 
   10000    205.50715    22.133502    129682.37   -41272.674    2556.8996   -43829.574    13.990974   0.96307225 
   10100    201.74319     41.95834    129686.26   -41241.382    2510.0688   -43751.451    14.130055   0.96304338 
   10200    201.83549   -130.76184    129712.74   -41285.796    2511.2172   -43797.013    14.329314   0.96284675 
   10300    204.64087    67.205663    129950.01   -41299.168    2546.1215   -43845.289    14.379102   0.96108874 
   10400    207.54615    131.15592    130038.35   -41251.617    2582.2687   -43833.886    14.381468   0.96043585 
   10500    207.65205    119.19866    130120.82   -41221.093    2583.5863    -43804.68      14.5114   0.95982714 
   10600    210.26382   -18.446007    130219.34   -41170.624    2616.0817   -43786.706    14.645377   0.95910097 
   10700    213.35608   -44.616091    130210.22    -41167.61    2654.5552   -43822.165    14.627069   0.95916808 
   10800    207.89569   -105.98757    130215.42    -41161.66    2586.6176   -43748.278    14.740613   0.95912981 
   10900     206.5448    -8.495126    130165.45   -41204.279    2569.8099   -43774.089    14.900374   0.95949805 
   11000    207.30497    24.490859    130111.65   -41214.155     2579.268   -43793.423    14.861566   0.95989475 
   11100    206.33771   -204.70633    130210.47   -41252.641    2567.2334   -43819.874    14.892249   0.95916628 
   11200     206.7871    -19.32686     130127.6   -41250.401    2572.8246   -43823.226    14.954088   0.95977709 
   11300    203.24803    24.870328    130085.97   -41240.757    2528.7919   -43769.549    14.755893   0.96008423 
   11400    206.66644   -35.508541     130043.1   -41240.547    2571.3234    -43811.87     14.96777   0.96040076 
   11500    204.30188   -166.87537    130024.96   -41264.169    2541.9039   -43806.073     15.01841   0.96053472 
   11600    204.40678    36.887444    130126.63   -41276.311    2543.2089    -43819.52    15.120621   0.95978428 
   11700    207.41592   -48.498397    130183.73   -41173.741    2580.6483   -43754.389    15.302216   0.95936328 
   11800    203.67778    7.9845907    130127.33   -41236.174    2534.1388   -43770.313    15.334445   0.95977909 
   11900    202.64378   -163.15903    130079.53    -41248.23    2521.2739   -43769.503    15.465295    0.9601318 
   12000    206.11091    33.587894    130136.24   -41248.867    2564.4116   -43813.279    15.564929   0.95971341 
   12100     206.8666   -211.96523    130040.51   -41215.696    2573.8138    -43789.51    15.559657   0.96041985 
   12200    205.80664     -8.55263    130086.75   -41227.081    2560.6258   -43787.706    15.656829   0.96007851 
   12300    208.17535    70.340817     129994.4   -41246.342    2590.0971   -43836.439    15.560957   0.96076056 
   12400    208.92453   -35.576216     130102.2   -41241.156    2599.4183   -43840.575    15.738368   0.95996448 
   12500    203.66084    -18.36709    130082.08   -41335.645     2533.928   -43869.573    15.881669   0.96011298 
   12600    203.64835   -4.2611689    130154.23   -41267.413    2533.7726   -43801.186    16.036497    0.9595807 
   12700    206.71402    138.14452    130123.99   -41263.377    2571.9154   -43835.293    16.026557   0.95980373 
   12800    205.76052    91.427343       130209   -41250.234     2560.052   -43810.286    16.019917   0.95917712 
   12900     203.9556    82.742004    130162.13   -41288.364    2537.5954   -43825.959    16.218508   0.95952246 
   13000    207.18825   -37.462615    130280.16   -41244.455    2577.8157    -43822.27    16.330227    0.9586532 
   13100    207.24071   -48.834241    130451.11   -41251.917    2578.4684   -43830.385    16.314002   0.95739694 
   13200    208.92052   -64.635942    130321.28   -41164.037    2599.3685   -43763.406    16.283035   0.95835071 
   13300    206.55526   -85.403528    130309.58   -41203.331    2569.9401   -43773.271    16.334385   0.95843674 
   13400    204.13526    -102.9379    130474.51   -41277.189    2539.8307    -43817.02    16.418163   0.95722522 
   13500    203.85365    -1.951526    130665.99   -41310.503     2536.327    -43846.83    16.573784   0.95582251 
   13600    207.66322    2.5627067    130897.42   -41338.455    2583.7253    -43922.18     16.76159   0.95413254 
   13700    202.48057    103.81835    130756.66   -41346.983    2519.2433   -43866.227     16.68566   0.95515968 
   13800    203.67035   -116.99604    130833.79     -41275.9    2534.0464   -43809.947    16.677357   0.95459663 
   13900    202.97983   -3.1624524    130704.57   -41300.397     2525.455   -43825.852    16.877452   0.95554038 
   14000    204.37562  -0.70266376    130654.28    -41293.09    2542.8213   -43835.912    16.966819   0.95590814 
   14100    202.34261   -110.04468    130531.22    -41294.68    2517.5268   -43812.206    17.015774   0.95680935 
   14200    201.77991    60.893727    130507.45   -41336.367    2510.5257   -43846.893    17.046247   0.95698358 
   14300    204.85016     2.922357    130677.65   -41385.863    2548.7254   -43934.588    17.245775   0.95573722 
   14400    204.74012    114.77467    130798.88   -41371.714    2547.3564   -43919.071    17.290749   0.95485141 
   14500    208.35845    -76.94847    130651.07   -41324.326    2592.3753   -43916.701    17.511128   0.95593167 
   14600    202.75031    97.468719    130794.99   -41333.443    2522.5993   -43856.043    17.405218   0.95487977 
   14700    201.64084   -33.400529    130714.17   -41351.249    2508.7953   -43860.044    17.532541   0.95547021 
   14800     199.4098   -32.856733    130862.33   -41396.919    2481.0371   -43877.956    17.573761   0.95438838 
   14900    199.78902    66.362053    130767.99   -41461.085    2485.7552    -43946.84    17.774353   0.95507696 
   15000    200.38728    -41.09135    130851.02   -41454.421    2493.1988   -43947.619    17.607446    0.9544709 
   15100    199.75846   -57.511785    130952.57    -41478.52     2485.375   -43963.895    17.587079   0.95373075 
   15200    202.85844    91.765992    131031.18   -41414.415    2523.9446    -43938.36    17.570665   0.95315859 
   15300    200.98684    72.129038    131070.08   -41433.564    2500.6583   -43934.222    17.770523    0.9528757 
   15400    200.81225   -41.197632    130959.87   -41424.612    2498.4861   -43923.098     18.04409   0.95367757 
   15500    203.07351   -68.289995    130987.63   -41405.511    2526.6206   -43932.132    18.002179   0.95347547 
   15600    207.37692    19.961138    131011.62    -41357.25    2580.1632   -43937.413    17.888946   0.95330088 
   15700     201.0974    40.376628    130957.35   -41445.435     2502.034   -43947.469    18.090798    0.9536959 
   15800    199.57951   -86.210681    131013.53   -41449.778    2483.1485   -43932.926    18.039984     0.953287 
   15900    199.17801   -61.342767    131105.54   -41466.349    2478.1531   -43944.502    18.032159   0.95261796 
   16000    206.62768   -190.86029    130934.17   -41422.789    2570.8412    -43993.63    17.956884   0.95386478 
   16100     204.8577    44.334991    130825.64   -41364.252    2548.8193   -43913.071    18.097392   0.95465609 
   16200    205.76046    24.688895    130919.84   -41436.577    2560.0513   -43996.628    18.155518    0.9539692 
   16300    201.57776   -46.318699    131020.89   -41446.598    2508.0105   -43954.609    18.284125   0.95323344 
   16400    205.78796    82.492308    130971.75   -41371.985    2560.3935   -43932.379    18.378892   0.95359107 
   16500    205.48407    80.376523    131063.63   -41365.587    2556.6124   -43922.199    18.561621   0.95292256 
   16600    205.25754    102.95329    130983.37   -41341.287    2553.7941   -43895.081    18.613402   0.95350648 
   16700    205.71873    72.729563    130815.02   -41368.185    2559.5321   -43927.717    18.523022   0.95473357 
   16800     205.2211    85.519757     131090.3   -41359.639    2553.3407    -43912.98    18.572339   0.95272866 
   16900    207.83279    7.1107641    131112.03   -41331.734     2585.835   -43917.569    18.373799   0.95257079 
   17000    206.85343    84.536912    130980.31   -41362.529    2573.6499   -43936.179    18.451418   0.95352877 
   17100    207.87379    94.615207    130927.88   -41286.307    2586.3451   -43872.652    18.598202   0.95391062 
   17200    207.01336    51.227442    130946.91   -41282.454    2575.6397   -43858.093    18.724836   0.95377194 
   17300    206.96616    -50.79659    131007.96   -41352.191    2575.0525   -43927.244     18.64934   0.95332747 
   17400    202.74653    147.47459    130929.68   -41357.744    2522.5523   -43880.296    18.635802   0.95389746 
   17500    203.86358    52.535586    130994.92   -41337.544    2536.4505   -43873.995    18.747143   0.95342237 
   17600    206.56072   -56.643022    130939.56   -41329.191    2570.0081   -43899.199    18.822543   0.95382553 
   17700    201.06969    23.049604    130995.21    -41342.73    2501.6892   -43844.419      18.7393   0.95342031 
   17800    206.60344   -28.098316    130951.17   -41335.626    2570.5395   -43906.166    18.765744   0.95374092 
   17900    205.99008    204.04232    130962.41   -41314.008    2562.9082   -43876.917    18.979403   0.95365907 
   18000    205.58688   -66.205448    131096.66   -41261.294    2557.8917   -43819.186    19.142619    0.9526825 
   18100    204.13824   -24.144899    130956.12    -41355.93    2539.8677   -43895.797    19.225001   0.95370488 
   18200    207.46296    12.128169    130980.75   -41374.772    2581.2337   -43956.006    19.267659   0.95352556 
   18300    206.18706   -97.258429    130805.32   -41306.671     2565.359    -43872.03    19.369356   0.95480436 
   18400    208.22762   -17.253804    130974.42   -41367.369    2590.7475   -43958.116    19.369502   0.95357165 
   18500    207.12731   -46.230312    130865.83   -41338.187    2577.0575   -43915.245    19.352521   0.95436285 
   18600    206.14674     1.826327    130898.56   -41380.109    2564.8574   -43944.966    19.421441   0.95412429 
   18700    205.42598    -63.45597    130854.35   -41344.967    2555.8897   -43900.857    19.552286   0.95444661 
   18800     209.8094    35.593097    130869.36   -41326.094    2610.4278   -43936.521    19.595854   0.95433713 
   18900    208.95663    26.818645    130942.97   -41364.162    2599.8178    -43963.98    19.789244   0.95380063 
   19000     208.7332    142.92347    130992.75   -41348.654    2597.0378   -43945.692    19.929241   0.95343822 
   19100    201.15292   -78.899683    130973.93   -41405.734    2502.7248   -43908.459    19.853156    0.9535752 
   19200    208.41275    6.5852009    130896.13   -41404.596    2593.0508   -43997.647    19.856701   0.95414196 
   19300    206.99891    96.500173    131037.93   -41344.288      2575.46   -43919.748    19.852485   0.95310948 
   19400    205.41549    65.241176    131124.01    -41352.51    2555.7592   -43908.269    19.851441   0.95248374 
   19500    209.29247     112.0512    131238.84   -41343.913    2603.9962   -43947.909    19.969643   0.95165038 
   19600    205.72017   -84.161429    131346.53   -41391.528      2559.55   -43951.078    20.019736   0.95087009 
   19700    207.25005   -23.535414    131113.51   -41394.977    2578.5846   -43973.562    20.116915   0.95256007 
   19800    206.20922   -103.79154    131061.58   -41441.366    2565.6347       -44007    20.209915   0.95293751 
   19900    209.05196   -128.76047    131058.98   -41450.471    2601.0038   -44051.475     20.26026   0.95295636 
   20000    202.21842   -49.907681    131059.12   -41489.464    2515.9816   -44005.446    20.283735   0.95295534 
   20100    206.43498    3.7326322    131263.11   -41451.448    2568.4436   -44019.892    20.220846   0.95147444 
   20200    203.13469   -54.204327     131314.4   -41490.633    2527.3817   -44018.014    20.233104   0.95110279 
   20300    206.37929   -46.542915    131302.16   -41522.308    2567.7507   -44090.059    20.351817   0.95119146 
   20400    203.59261    51.399114    131156.56   -41533.926    2533.0791   -44067.005    20.294565   0.95224735 
   20500    204.44935   -35.254908     131322.2   -41505.084    2543.7386   -44048.822    20.378653   0.95104627 
   20600     204.6525    7.6204941    131277.91   -41538.765    2546.2661   -44085.031    20.414529   0.95136714 
   20700    209.24044  -0.60005751    131479.17   -41493.411    2603.3488    -44096.76    20.569281   0.94991083 
   20800    205.70737    13.938485    131351.88   -41503.445    2559.3908   -44062.836    20.429738   0.95083139 
   20900    206.91006    -35.82358    131246.28   -41536.537    2574.3545   -44110.891    20.512147   0.95159644 
   21000    202.95379     91.20485    131329.56   -41606.139     2525.131    -44131.27     20.59928   0.95099301 
   21100    199.34701    25.752683    131202.41   -41637.779    2480.2558   -44118.035    20.460234   0.95191458 
   21200     203.1988    3.5609198    131312.14   -41616.433    2528.1794   -44144.612    20.778926   0.95111915 
   21300    206.02409   -46.342678    131263.72   -41639.408    2563.3313   -44202.739    20.877756   0.95146997 
   21400      203.802    -30.13772    131304.18   -41595.657    2535.6844   -44131.342    20.929704   0.95117683 
   21500    202.86303   -107.73026    131345.14    -41581.83    2524.0017   -44105.832    20.893433   0.95088019 
   21600    204.77357   -41.128584    131257.06   -41534.276    2547.7725   -44082.048    20.902736   0.95151827 
   21700    204.59007     1.918934    131133.31   -41521.091    2545.4894   -44066.581    20.963144   0.95241625 
   21800     205.7071   -108.91114    131123.91   -41513.366    2559.3874   -44072.754    20.956357   0.95248449 
   21900    202.24422   -109.57264    131122.98   -41523.924    2516.3026   -44040.227    21.020811   0.95249127 
   22000      203.916   -40.253942    131157.07   -41546.454    2537.1028   -44083.557    21.020975   0.95224368 
   22100    206.66631    50.539094    131041.91   -41499.469    2571.3218   -44070.791    21.029218   0.95308049 
   22200    207.05646    117.04034    131199.53   -41532.755    2576.1759   -44108.931    20.935756   0.95193553 
   22300    206.63846    29.088536    131231.18   -41510.836    2570.9753   -44081.811    20.771316   0.95170589 
   22400    207.65351    76.302026    131093.28   -41479.459    2583.6044   -44063.064    20.864533   0.95270706 
   22500    207.12906   -106.47587    131072.56    -41478.62    2577.0793   -44055.699     21.25225   0.95285763 
   22600    209.16472    14.158891    131159.55   -41452.759    2602.4068   -44055.166     21.28378    0.9522257 
   22700    205.76657   -25.822741    131093.26   -41460.233    2560.1273   -44020.361    21.251697   0.95270718 
   22800    207.03685   -76.098393    131049.08   -41460.103     2575.932   -44036.035    21.369879   0.95302836 
   22900    204.73784   -67.093893     131153.9   -41516.638     2547.328   -44063.966    21.226198   0.95226671 
   23000    206.71209    87.894812    131158.87   -41489.888    2571.8915    -44061.78    21.280327   0.95223061 
   23100    201.66541   -116.95269    131241.94   -41590.843    2509.1012   -44099.945    21.371901   0.95162792 
   23200    205.11651   -20.976945    131273.47   -41539.627    2552.0394   -44091.666    21.345703   0.95139933 
   23300    203.61839    22.840981    131208.95    -41585.41    2533.3998    -44118.81    21.461395   0.95186718 
   23400    205.36616    19.153189    131363.52   -41548.641    2555.1455   -44103.787    21.585613   0.95074717 
   23500     203.5425    27.346077    131417.25   -41571.887    2532.4557   -44104.343    21.519187   0.95035841 
   23600    207.81748   -5.2199384    131294.35   -41558.293    2585.6445   -44143.937    21.538897   0.95124804 
   23700    206.63466   -15.786621    131287.31   -41580.962    2570.9281    -44151.89    21.598556     0.951299 
   23800      204.427     29.22954    131403.63   -41637.211    2543.4605   -44180.672    21.741991    0.9504569 
   23900    203.33085    -46.31439    131435.98   -41644.743    2529.8223   -44174.565    21.670103   0.95022301 
   24000    206.10788   -72.185825    131386.97   -41583.657    2564.3738   -44148.031    21.628468   0.95057743 
   24100    204.37553   -94.992107    131503.78    -41581.49    2542.8202    -44124.31    21.851484    0.9497331 
   24200    203.20832   -100.54353    131535.68   -41652.366    2528.2978   -44180.664    21.910231   0.94950275 
   24300    207.58562    11.876866    131387.81   -41632.992    2582.7597   -44215.752    21.772136   0.95057137 
   24400    202.59117    38.055592    131547.72   -41666.736    2520.6193   -44187.355    21.678509   0.94941588 
   24500    203.96886    142.35564    131463.88   -41637.562    2537.7604   -44175.322    21.823253   0.95002134 
   24600    199.25421    93.689932     131606.2   -41626.668    2479.1012    -44105.77      21.7878   0.94899396 
   24700    202.33669    75.336106    131631.13   -41626.062     2517.453   -44143.515    21.824735   0.94881427 
   24800    197.27405   -24.727316    131538.89   -41627.295    2454.4642   -44081.759    22.057005   0.94947962 
   24900    203.76133    72.793998    131562.94    -41585.85    2535.1784   -44121.028    22.037002   0.94930604 
   25000    205.80789   -33.537454    131553.56   -41571.198    2560.6414    -44131.84    22.098879   0.94937371 
   25100    207.17298   -86.776799    131649.68   -41574.662    2577.6258   -44152.288    22.132428   0.94868059 
   25200    200.98435   -45.604208    131711.51   -41607.704    2500.6274   -44108.331    22.096078   0.94823522 
   25300    204.52663    56.664546    131680.36    -41624.26    2544.7001   -44168.961    22.199447   0.94845954 
   25400    204.71292    37.722268     131711.4    -41616.28    2547.0179   -44163.298    22.226752   0.94823601 
   25500     205.7958   -150.90065    131588.36   -41570.796     2560.491   -44131.287    22.231499   0.94912265 
   25600    202.68563    123.13259    131609.73   -41626.854    2521.7946   -44148.649    22.226993   0.94896854 
   25700     202.4951  -0.49312386    131757.27   -41652.094     2519.424   -44171.518    22.322661   0.94790586 
   25800    204.77497    62.866473    131788.51   -41628.827    2547.7899   -44176.617    22.295837   0.94768121 
   25900    205.55213   -129.03709    131969.19   -41600.947    2557.4593   -44158.406    22.441396   0.94638368 
   26000    204.97981   -58.229189     131774.1   -41535.564    2550.3385   -44085.902    22.544161   0.94778484 
   26100    206.71367     84.86521    131802.59   -41607.279     2571.911    -44179.19    22.474393   0.94757994 
   26200    205.25885   -44.923662    131687.33   -41620.813    2553.8103   -44174.623    22.391921   0.94840931 
   26300    206.54023   -82.805886    131852.27   -41602.666    2569.7531   -44172.419    22.392123   0.94722293 
   26400    210.17404    162.55925     132112.3     -41600.4    2614.9647   -44215.365    22.591366   0.94535855 
   26500    207.48648    103.07706    132200.95    -41658.05    2581.5262   -44239.577    22.755666   0.94472458 
   26600    201.99214   -37.554395    132157.13   -41699.503    2513.1662   -44212.669    22.872196   0.94503787 
   26700    204.31704   -233.26929    132117.95   -41720.461    2542.0924   -44262.553    22.737186   0.94531811 
   26800    207.84834   -59.622861    131938.91   -41667.471    2586.0285   -44253.499    22.861001   0.94660088 
   26900    208.43809   -71.616043    131857.72   -41670.371    2593.3661   -44263.737    22.635436   0.94718377 
   27000    203.22058    45.874269     131778.5   -41713.492    2528.4503   -44241.942    22.655792   0.94775316 
   27100    201.72504   -44.544899    131711.46   -41723.765     2509.843   -44233.608     22.72033   0.94823559 
   27200    207.13097   -20.118654    131901.93   -41744.104    2577.1031   -44321.207    22.903155   0.94686626 
   27300    206.16633    48.940435     131848.2   -41769.497    2565.1011   -44334.598    22.917311   0.94725213 
   27400    205.67523     78.07845    131966.09   -41729.924    2558.9909   -44288.915    22.884882   0.94640593 
   27500    206.00446    17.432749    132159.18   -41678.731    2563.0871   -44241.818    22.939129   0.94502319 
   27600     205.0921     90.36618    132129.65   -41710.427    2551.7356   -44262.163     23.14581   0.94523443 
   27700    206.29169   -130.69221    132065.76   -41710.491    2566.6608   -44277.152     23.09216   0.94569171 
   27800    208.08554    117.35408    132120.34   -41633.744    2588.9797   -44222.724    23.095959   0.94530099 
   27900    204.75107    14.300465    132173.68   -41660.716    2547.4926   -44208.209    23.083941   0.94491951 
   28000    203.87004   -73.598576     132158.3   -41707.767    2536.5308   -44244.298    23.285443   0.94502951 
   28100    204.15517    34.908191    132198.03    -41657.92    2540.0784   -44197.999    23.468412   0.94474547 
   28200    204.79516   -42.466818    132278.07   -41710.391    2548.0412   -44258.432    23.265856   0.94417383 
   28300    205.01788    89.046025    132330.94   -41696.642    2550.8122   -44247.454    23.235596   0.94379662 
   28400    202.23986   -12.719029    132420.53    -41751.95    2516.2483   -44268.199    23.154792   0.94315808 
   28500    199.58673      -34.705    132259.39   -41768.769    2483.2384   -44252.007     23.30336   0.94430716 
   28600    203.26637    160.37709    132357.76    -41737.35      2529.02    -44266.37    23.339861   0.94360533 
   28700    204.41145  -0.81984507    132221.19   -41747.533     2543.267     -44290.8    23.455284   0.94457999 
   28800     204.8915    37.078352     132271.3   -41721.436    2549.2397   -44270.676    23.404224   0.94422212 
   28900    203.89689   -10.673252    132348.81   -41699.538     2536.865   -44236.403    23.400679   0.94366919 
   29000    202.57873   -85.267422    132361.08   -41761.144    2520.4645   -44281.608    23.433324    0.9435817 
   29100    208.81441    64.817108    132406.66    -41719.17    2598.0483   -44317.218    23.432298   0.94325685 
   29200    208.77265   -7.7096521    132367.89   -41690.441    2597.5287    -44287.97    23.525847   0.94353316 
   29300    201.75027   -79.869172    132460.34   -41763.288    2510.1569   -44273.445    23.555921    0.9428746 
   29400    200.52607   -27.059716    132364.91   -41820.471    2494.9255   -44315.396    23.632597   0.94355438 
   29500     203.7062    44.195205    132300.04   -41847.835    2534.4924   -44382.328    23.549173   0.94401703 
   29600    203.76453    44.386548    132433.95   -41775.601    2535.2182   -44310.819    23.599314   0.94306251 
   29700    204.02233   -124.29061     132387.5   -41810.241    2538.4256   -44348.666    23.614963   0.94339341 
   29800    203.62097    5.5513564    132388.81   -41792.688     2533.432    -44326.12    23.642142   0.94338405 
   29900     204.0443   -63.842595     132367.9   -41810.853     2538.699   -44349.552    23.683234    0.9435331 
   30000    201.44966   -60.765528    132402.21   -41791.455    2506.4168   -44297.872    23.827011    0.9432886 
   30100    207.30105    5.4690573    132456.02   -41784.749    2579.2192   -44363.968    23.840353   0.94290534 
   30200    201.23497   -29.039828    132429.71   -41788.715    2503.7456    -44292.46    23.941743   0.94309269 
   30300    207.85374   -80.998712    132475.05    -41747.64    2586.0956   -44333.736    23.978204   0.94276992 
   30400    207.37085   -5.5868777    132418.26   -41736.088    2580.0876   -44316.176    24.003755   0.94317426 
   30500    206.18893   -102.38309    132316.82   -41744.318    2565.3823   -44309.701    23.925325   0.94389735 
   30600    204.66096    48.689865    132180.11   -41721.658    2546.3714    -44268.03    23.940512   0.94487353 
   30700    204.06997    71.778205     132175.4   -41728.713    2539.0184   -44267.731    24.020242   0.94490722 
   30800    206.27909   -107.35054    132181.41   -41672.393     2566.504   -44238.897    24.162876    0.9448643 
   30900    205.95574   -10.967783    132116.85   -41781.036     2562.481   -44343.517    23.950959   0.94532599 
   31000    202.99936   -52.848129    132124.37   -41809.651     2525.698   -44335.349    24.075764   0.94527218 
   31100    201.42663    18.726007     132133.1   -41803.672    2506.1302   -44309.803    24.071695   0.94520971 
   31200    201.78963   -31.265898     132108.6   -41801.448    2510.6466   -44312.094    24.108198   0.94538503 
   31300    204.92135    166.01022     132045.1   -41750.357    2549.6111   -44299.968     24.09598   0.94583968 
   31400    203.16964    20.442754    131991.59     -41710.9    2527.8166   -44238.717    24.061432   0.94622312 
   31500    206.73831   -136.16175    132147.95   -41745.411    2572.2176   -44317.628    24.133839   0.94510348 
   31600    206.75494    -22.46509    132080.94   -41674.088    2572.4245   -44246.512    24.246865   0.94558302 
   31700    206.76802     85.94188     131990.1   -41707.113    2572.5872     -44279.7    24.174699   0.94623378 
   31800    211.22039    140.95392    132104.92   -41653.035    2627.9832   -44281.018      24.1973   0.94541138 
   31900    202.35402   -16.294962    131854.93   -41643.377    2517.6688   -44161.046    24.184649   0.94720377 
   32000    205.39727   -63.785172    131921.31   -41641.148    2555.5325    -44196.68    24.163774   0.94672716 
   32100    204.84903    42.958894    132093.63   -41662.078    2548.7114    -44210.79    24.285419   0.94549218 
   32200    210.36599    -10.71239     132173.6   -41658.358    2617.3529    -44275.71    24.277372   0.94492011 
   32300    208.27905   -92.774459    132096.04   -41642.075    2591.3874   -44233.462    24.363831   0.94547492 
   32400    205.60708    8.8601141    132132.01   -41714.674     2558.143   -44272.817    24.405491   0.94521753 
   32500    203.30227    105.10462    132211.08   -41717.093    2529.4667    -44246.56    24.524325   0.94465222 
   32600    209.36084   -46.249574     132400.5   -41680.101    2604.8469   -44284.948    24.611723   0.94330074 
   32700    206.60779   -110.37424    132206.98   -41744.924    2570.5936   -44315.518    24.388562   0.94468152 
   32800    204.61394   -44.052201    132229.28   -41778.532    2545.7864   -44324.318    24.570458    0.9445222 
   32900    201.79471    124.76527    132327.05   -41780.206    2510.7098   -44290.916    24.575548   0.94382436 
   33000     201.3064   -41.805257     132230.6   -41830.956    2504.6343   -44335.591    24.459203    0.9445128 
   33100    203.66597    26.088887    132286.89    -41759.85    2533.9919   -44293.842    24.464307   0.94411085 
   33200    203.37711   -46.908062    132401.18   -41791.773    2530.3979   -44322.171    24.532576   0.94329587 
   33300    205.73951    49.910951    132295.62   -41728.145    2559.7906   -44287.936    24.515699   0.94404858 
   33400     205.8303    56.262552    132466.65   -41802.532    2560.9202   -44363.452    24.688043   0.94282969 
   33500    203.13552    53.650887    132442.72   -41767.694     2527.392   -44295.086    24.783378   0.94300004 
   33600      204.113   -51.093487    132550.89   -41738.599    2539.5538   -44278.152    24.821274   0.94223052 
   33700    205.34288    41.974691    132522.39   -41717.692    2554.8558   -44272.548    24.736398   0.94243311 
   33800    201.76597   -103.88737    132553.26   -41721.537    2510.3522   -44231.889    24.691124   0.94221365 
   33900    204.15867   -68.331947    132450.75   -41733.837     2540.122   -44273.959    24.675345   0.94294289 
   34000    205.87434   -3.5966264    132500.31   -41695.575    2561.4682   -44257.043    24.606846   0.94259016 
   34100    203.37019    73.907508    132481.13   -41735.043    2530.3119   -44265.355       24.663   0.94272664 
   34200    203.53437    73.309703    132522.73   -41737.464    2532.3546   -44269.819    25.024639   0.94243069 
   34300    200.59026   -89.712524    132357.28   -41776.211    2495.7242   -44271.935    24.921295    0.9436088 
   34400    201.09908   -63.402791    132347.78    -41710.98    2502.0549   -44213.035    24.994193   0.94367653 
   34500    207.28538   -29.186283     132420.6   -41725.872    2579.0242   -44304.896    24.833131   0.94315755 
   34600    207.15058    15.838357    132577.12   -41731.652    2577.3471   -44308.999    24.756996   0.94204407 
   34700    207.35283   0.88656706    132675.08    -41811.37    2579.8634   -44391.234     24.92559   0.94134855 
   34800    199.95507    17.636155    132718.45   -41806.086    2487.8213   -44293.907    25.110148   0.94104092 
   34900    202.48216    33.563839    132718.52   -41802.858     2519.263   -44322.121    25.111723   0.94104042 
   35000    200.14964    117.32725    132761.71   -41874.332     2490.242   -44364.574    25.189953   0.94073425 
   35100    201.47725    91.845655    132855.32   -41811.477      2506.76   -44318.237    25.243246   0.94007146 
   35200    200.08216    67.131124    132948.08   -41803.178    2489.4024   -44292.581    25.206599    0.9394155 
   35300    203.42957    76.177277    132746.08   -41782.461    2531.0506   -44313.511     25.46491   0.94084507 
   35400    199.48093   -46.511842     132815.1   -41791.797     2481.922   -44273.719    25.439686   0.94035613 
   35500    205.87725   -149.63187    132749.71   -41701.621    2561.5044   -44263.126    25.444862    0.9408193 
   35600    202.91615    129.86432    132823.22   -41728.227    2524.6627    -44252.89    25.545474   0.94029859 
   35700    206.23559   -14.144171    132870.28   -41698.249    2565.9628   -44264.211    25.615695   0.93996562 
   35800    204.74335   -23.631198    132895.38   -41734.477    2547.3966   -44281.874    25.602474   0.93978808 
   35900    208.82789   -61.709227    132814.01   -41703.115     2598.216   -44301.331    25.448978   0.94036383 
   36000    207.20835    62.137695    132915.58   -41674.168    2578.0658   -44252.233    25.398096   0.93964523 
   36100    208.32945   -114.80749    132885.15   -41712.102    2592.0145   -44304.117    25.566477    0.9398604 
   36200    210.62914    51.415361    132914.06   -41736.376    2620.6269   -44357.003    25.615488     0.939656 
   36300    202.21809    74.765764     133091.9   -41800.761    2515.9775   -44316.739    25.592132    0.9384004 
   36400    206.07497    68.761122     133168.4   -41752.219    2563.9644   -44316.183    25.630479   0.93786129 
   36500     202.1088   -14.630405    133078.78   -41735.764    2514.6177   -44250.382    25.799964   0.93849288 
   36600    209.15539   -88.988054    132992.22   -41854.026    2602.2907   -44456.317    25.678116   0.93910376 
   36700    202.62564    75.474046    132946.08    -41798.01    2521.0482   -44319.059    25.742881   0.93942966 
   36800     201.1401    52.605405    133079.08   -41811.313    2502.5653   -44313.879    25.695872   0.93849078 
   36900    203.37894    74.976834    133240.38    -41827.44    2530.4207    -44357.86    25.891348   0.93735463 
   37000     205.3714   -52.550893    133106.51   -41767.057    2555.2107   -44322.268    25.889641   0.93829737 
   37100    206.72927   -50.084974     132961.5    -41759.34    2572.1052   -44331.445    25.916967   0.93932068 
   37200    203.81628    43.892772    132802.75   -41798.715     2535.862   -44334.577    26.006492   0.94044354 
   37300    205.01368    109.69907    132797.75   -41803.275      2550.76   -44354.035    26.105105   0.94047894 
   37400    200.15252    157.58789       132987   -41827.008    2490.2779   -44317.286    25.984856   0.93914057 
   37500    201.48896   -125.44394     132995.4   -41848.324    2506.9058    -44355.23     26.08819   0.93908129 
   37600    206.53237    11.801115     133106.7   -41809.335    2569.6554   -44378.991    26.001978   0.93829603 
   37700    206.49661    -150.9849     133064.4   -41826.348    2569.2104   -44395.559      25.9656   0.93859432 
   37800    197.19137   -47.219894    133072.24   -41919.789    2453.4356   -44373.224    26.058098   0.93853904 
   37900    201.61074    61.723314    132996.19   -41867.202    2508.4209   -44375.623    26.002756   0.93907574 
   38000    202.58253  -0.36277588    132927.14   -41828.711    2520.5118   -44349.223    26.173619   0.93956354 
   38100    201.55396   -254.57962    132934.59   -41782.415    2507.7144   -44290.129     26.24923   0.93951086 
   38200    204.27956   -11.277411    132810.63   -41789.652    2541.6261   -44331.279    26.177074   0.94038776 
   38300    205.56752   -122.52264    132779.47   -41730.168    2557.6508   -44287.819    26.194694   0.94060846 
   38400    207.57678   -22.617186    132754.08   -41788.146    2582.6498   -44370.796    26.170937   0.94078838 
   38500    203.52646    -51.44293    132689.84   -41807.187    2532.2561   -44339.443    26.260321    0.9412438 
   38600    203.92611     67.85498    132576.07   -41762.553    2537.2285   -44299.782    26.311953   0.94205155 
   38700    203.35234   -15.370629    132591.98    -41766.47    2530.0897   -44296.559    26.278253   0.94193847 
   38800    203.08775    81.820145    132619.01   -41785.017    2526.7977   -44311.814    26.257582   0.94174655 
   38900    203.36545    34.590026    132674.96   -41743.535    2530.2528   -44273.787    26.371436   0.94134938 
   39000    206.51496    86.086441    132637.86   -41785.174    2569.4387   -44354.613    26.282743   0.94161266 
   39100    202.66982   -4.7645733    132650.79   -41757.429    2521.5979   -44279.027    26.443584    0.9415209 
   39200    203.84392   -85.224543    132647.81   -41776.833    2536.2059   -44313.039    26.357916   0.94154207 
   39300    205.43432     133.2056    132573.61   -41774.529    2555.9935   -44330.523     26.20945   0.94206903 
   39400     205.7202    9.0003501    132540.67   -41745.369    2559.5504   -44304.919    26.334529   0.94230314 
   39500     208.0305    -15.90773    132604.28   -41723.403    2588.2949   -44311.698    26.312476   0.94185112 
   39600    203.61003   -3.7371872    132561.15   -41759.946    2533.2959   -44293.242    26.401865   0.94215759 
   39700    205.27702    27.321322     132467.9   -41712.244    2554.0364    -44266.28     26.38522   0.94282083 
   39800    204.09724    154.40632    132464.65   -41767.383    2539.3577    -44306.74    26.384359    0.9428439 
   39900    202.81024   -20.653402    132593.97   -41818.382    2523.3449   -44341.727    26.391474   0.94192436 
   40000    201.53107   -93.040998    132477.11   -41836.886    2507.4297   -44344.315    26.319443   0.94275528 
   40100    207.12877    71.666655    132537.08    -41758.35    2577.0756   -44335.426    26.356982   0.94232865 
   40200    205.18319     40.82423    132584.92   -41760.599     2552.869   -44313.468    26.488533   0.94198865 
   40300    206.70539   -25.648468    132617.31   -41755.572     2571.808    -44327.38    26.477923   0.94175862 
   40400    208.20664   -84.776544    132514.38   -41686.457    2590.4864   -44276.944    26.442882   0.94249011 
   40500    211.16698    129.21569    132621.25   -41691.875    2627.3186   -44319.194     26.43291   0.94173058 
   40600     204.6132    277.72322    132535.34   -41736.952    2545.7771   -44282.729    26.366694   0.94234106 
   40700    204.33779  0.044877215    132551.71   -41786.896    2542.3505   -44329.247     26.51569   0.94222466 
   40800    204.96698     120.6285    132477.13   -41811.651    2550.1788    -44361.83    26.469863   0.94275512 
   40900    203.25918   -66.378478    132489.92   -41833.907    2528.9307   -44362.837    26.494775   0.94266411 
   41000    207.42778   -11.380853    132643.71   -41751.796    2580.7959   -44332.592    26.558859   0.94157113 
   41100    203.27918   -66.551874    132578.09   -41738.167    2529.1794   -44267.346    26.594658   0.94203718 
   41200    202.80213    70.450433    132532.02   -41752.066    2523.2441    -44275.31    26.566671   0.94236465 
   41300    200.31844     15.31989    132493.58    -41882.14    2492.3422   -44374.482    26.461784   0.94263805 
   41400    201.45364    172.90432     132661.7   -41833.574    2506.4662    -44340.04    26.693937   0.94144349 
   41500    203.75832   -26.477843    132750.59    -41832.17    2535.1408    -44367.31    26.659617   0.94081305 
   41600    203.41444   -17.670871    132694.27   -41796.361    2530.8624   -44327.224    26.747707   0.94121241 
   41700    203.68287   -33.728618    132613.73   -41769.585    2534.2022   -44303.787    26.692635     0.941784 
   41800    203.06145   -49.876519    132575.39   -41776.716    2526.4705   -44303.187    26.789725   0.94205639 
   41900    203.04152    67.331117    132559.62   -41760.882    2526.2225   -44287.105     26.77067   0.94216843 
   42000    203.46571    34.587569    132543.79   -41763.325    2531.5002   -44294.825    26.840624   0.94228099 
   42100    204.90258    160.53697    132564.39   -41749.514    2549.3777   -44298.892    26.751557   0.94213455 
   42200    207.67791     57.84082    132643.75   -41706.018     2583.908   -44289.926    26.774813    0.9415709 
   42300    203.26491   -82.753745    132632.33   -41696.156    2529.0019   -44225.158    26.896492   0.94165196 
   42400    202.89534   -36.275062    132533.81   -41731.813    2524.4038   -44256.216    26.993845   0.94235191 
   42500    205.63212   -178.98735     132538.9    -41736.63    2558.4546   -44295.084    26.873644   0.94231576 
   42600    204.91872   -112.25344    132585.34   -41741.929    2549.5785   -44291.507    26.767863    0.9419857 
   42700    207.55386    20.267621     132522.2   -41749.643    2582.3647   -44332.007    26.871585   0.94243451 
   42800    205.07887    131.49758    132483.04   -41719.639     2551.571    -44271.21    26.991278   0.94271305 
   42900    203.99687    24.366919    132517.55   -41778.575    2538.1089   -44316.684     27.04754   0.94246755 
   43000    204.63475    56.734694    132421.48   -41811.144    2546.0453    -44357.19    26.916768   0.94315128 
   43100     205.3357   -35.901216    132418.93   -41780.634    2554.7665     -44335.4    26.894312   0.94316946 
   43200    207.06876    27.038186    132507.14   -41750.849    2576.3291   -44327.178    27.016606   0.94254162 
   43300    209.66709   -33.939448    132459.05   -41767.086    2608.6572   -44375.743    27.115299   0.94288381 
   43400      207.603   -133.70809    132368.52   -41723.517     2582.976   -44306.493    27.104989   0.94352868 
   43500    207.50742   -59.764661    132317.42   -41726.038    2581.7868   -44307.825    27.082631   0.94389302 
   43600    213.85064    61.332079    132282.46   -41643.354    2660.7085   -44304.062    26.967874   0.94414246 
   43700    207.42416   -95.223622     132264.4   -41658.587    2580.7509   -44239.338     26.91449   0.94427144 
   43800    209.23996    70.769252    132343.53     -41676.3    2603.3429   -44279.643     27.07734   0.94370682 
   43900    206.95187    -18.28174    132303.91   -41723.118    2574.8747   -44297.992    27.159318    0.9439894 
   44000    206.60865    37.588297    132371.43   -41756.412    2570.6044   -44327.017    27.325344   0.94350793 
   44100    204.22328    80.256142    132235.97   -41777.866    2540.9259   -44318.792    27.268653    0.9444744 
   44200    206.34694   -88.554221    132238.18   -41818.686    2567.3483   -44386.034    27.202691   0.94445861 
   44300    203.98953    129.45035    132222.62   -41827.237    2538.0176   -44365.254    27.285305   0.94456975 
   44400     204.3627  0.048896457    132243.93   -41792.965    2542.6606   -44335.626    27.360877   0.94441754 
   44500    199.29127   -42.919024    132129.38   -41820.781    2479.5622   -44300.343    27.223133   0.94523634 
   44600    201.07397    19.819001    132164.12   -41869.819    2501.7424   -44371.562    27.299281   0.94498791 
   44700    201.15182    16.112262    132155.93   -41837.435    2502.7111   -44340.146    27.377655   0.94504644 
   44800     204.0597    77.859475    132325.87   -41804.005    2538.8906   -44342.895    27.464832   0.94383275 
   44900    206.68007   -37.591393    132463.93    -41758.26     2571.493   -44329.753    27.518199   0.94284904 
   45000     210.3344   -36.682174    132395.19   -41752.875    2616.9598   -44369.835     27.40657   0.94333855 
   45100    210.80719    121.19986    132533.38    -41710.48    2622.8422   -44333.322     27.57197   0.94235496 
   45200     207.1216   -17.385865    132505.79   -41775.201    2576.9865   -44352.187    27.535214   0.94255118 
   45300    202.31255   -6.5046836    132540.57   -41786.395    2517.1528   -44303.548     27.61782   0.94230384 
   45400    202.94633    105.92734    132742.32   -41773.438    2525.0382   -44298.476    27.626333   0.94087168 
   45500    206.39101    63.765815    132561.33   -41789.194    2567.8965    -44357.09    27.771457   0.94215633 
   45600    205.63578    83.853922    132731.55   -41793.227    2558.5001   -44351.727     27.72895   0.94094806 
   45700    204.09213   -56.139034     132696.4   -41806.106    2539.2941     -44345.4    27.750236   0.94119727 
   45800    206.84649    50.066936    132834.65   -41758.307    2573.5636    -44331.87    27.818003   0.94021775 
   45900    213.36538    41.201414    132840.37   -41690.872    2654.6709   -44345.543    27.855567   0.94017725 
   46000    211.67271   -184.11522    132885.62   -41687.631     2633.611   -44321.242    27.893879   0.93985708 
   46100    213.44902   -16.557091       132795   -41664.174    2655.7116   -44319.886    27.921782   0.94049847 
   46200    212.41797    59.776368    132842.34   -41672.199    2642.8834   -44315.082     28.13335   0.94016328 
   46300     209.4559   -5.5357873    132851.26   -41691.065    2606.0296   -44297.094    28.045297   0.94010013 
   46400    202.93408    160.38277    132836.48   -41726.855    2524.8857    -44251.74    27.973667   0.94020479 
   46500    209.47633   -49.338513    132807.48   -41737.792    2606.2837   -44344.076    27.885951   0.94041005 
   46600    209.10551     69.42071    132940.36   -41733.472      2601.67   -44335.142    27.857843   0.93947007 
   46700    204.89623   -116.66855    132929.25   -41806.474    2549.2986   -44355.773     27.89411    0.9395486 
   46800    201.30172    9.8213979    132799.22   -41850.417    2504.5761   -44354.993    27.942492   0.94046859 
   46900    204.94886    190.61453    132829.58   -41786.117    2549.9535    -44336.07    28.017167   0.94025361 
   47000      202.727    69.993814    132926.85   -41748.234    2522.3093   -44270.544    27.911992    0.9395656 
   47100     209.2875   -81.916229    132789.39   -41720.541    2603.9344   -44324.476    27.981303   0.94053815 
   47200    207.07075    28.462745     132750.3   -41771.666    2576.3538    -44348.02    28.008592   0.94081512 
   47300    204.00261    -70.29256     132920.3   -41789.422    2538.1803   -44327.602    28.073641   0.93961185 
   47400    204.71454   -31.420563    132813.66   -41748.316     2547.038   -44295.354     28.04372   0.94036628 
   47500    208.41835    9.5794356     132906.4   -41690.554    2593.1205   -44283.674    28.072828   0.93971015 
   47600    208.95238   -4.4664438    132863.85   -41661.843    2599.7649   -44261.608    28.002621   0.94001108 
   47700    207.20793   -78.449202    132746.81   -41702.933    2578.0606   -44280.994     28.04118   0.94083987 
   47800      204.596    -86.68619    132750.25   -41718.537    2545.5632     -44264.1    28.126894   0.94081546 
   47900    205.24189     -90.4186    132763.57   -41793.249    2553.5993   -44346.848    28.112405   0.94072109 
   48000    202.08787   -3.0341833    132823.94   -41824.195    2514.3573   -44338.552    28.127785   0.94029354 
   48100    207.92997   -130.72453    132606.45   -41797.713    2587.0441   -44384.758     28.12269   0.94183572 
   48200    204.88135     73.99976     132669.5   -41827.081    2549.1136   -44376.195    28.053592   0.94138809 
   48300    205.80103    14.113557    132714.71   -41811.415     2560.556   -44371.971    28.038947   0.94106746 
   48400    210.56841    18.120484    132658.88   -41739.054    2619.8714   -44358.926    28.107999   0.94146351 
   48500    207.51948   -113.00635    132706.02    -41801.34    2581.9368   -44383.276    28.199096   0.94112903 
   48600    207.54148   -2.7139249    132800.51   -41800.286    2582.2105   -44382.497    28.166215   0.94045942 
   48700    203.99079    59.871565    132798.04   -41779.185    2538.0333   -44317.218    28.187978    0.9404769 
   48800    206.47514   -56.725174    132944.65   -41823.502    2568.9433   -44392.445    28.266218   0.93943978 
   48900     204.9732   -82.996135    132923.43    -41820.61    2550.2563   -44370.866    28.139113   0.93958972 
   49000    208.32345    45.532778    133030.96   -41857.901    2591.9398   -44449.841    28.074916   0.93883027 
   49100    204.13868   -124.34583    132897.81   -41864.535    2539.8733   -44404.409    28.205506   0.93977085 
   49200    204.34892    66.313797    132764.41   -41876.893    2542.4891   -44419.382    28.305807   0.94071513 
   49300    207.10201   -15.098781    132910.14   -41836.765    2576.7428   -44413.507    28.314384   0.93968366 
   49400    205.10198   -67.336505    132957.35   -41793.742    2551.8586     -44345.6    28.335508   0.93935006 
   49500    207.40842    5.5530951    132862.92   -41817.702    2580.5551   -44398.257    28.286342   0.94001763 
   49600    202.87757   -31.985786    132987.84   -41798.485    2524.1826   -44322.668    28.329293   0.93913467 
   49700    203.07063    37.012762    133002.39   -41829.051    2526.5847   -44355.636    28.415139   0.93903194 
   49800    204.24561    14.085674     132896.3   -41864.385    2541.2036   -44405.589    28.363669   0.93978152 
   49900    208.58534    42.326943    132999.76   -41754.208    2595.1982   -44349.406    28.494503   0.93905049 
   50000    206.57157   -2.1267683    133059.98   -41800.477     2570.143    -44370.62    28.459614    0.9386255 
   50100    207.34932    -124.2028    133019.75   -41808.803    2579.8197   -44388.623     28.44394   0.93890936 
   50200    205.13265   -54.332764    133037.36   -41849.678    2552.2402   -44401.918    28.345388   0.93878513 
   50300    207.94327   -119.91534    133072.14   -41824.957    2587.2096   -44412.166    28.410361   0.93853973 
   50400    201.71434   -115.22864    132990.59   -41854.006    2509.7099   -44363.716    28.316624   0.93911522 
   50500    202.67751    89.285418       132998   -41887.242    2521.6936   -44408.935     28.42927   0.93906292 
   50600    202.62093    48.267883    132956.52   -41896.158    2520.9896   -44417.148    28.552288   0.93935591 
   50700    200.17662    -20.97256    132713.44    -41899.79    2490.5777   -44390.368    28.425388   0.94107643 
   50800    204.58654    14.929435    132772.09   -41878.353    2545.4455   -44423.799    28.529248   0.94066073 
   50900    204.99493   -42.670326    132971.31   -41808.105    2550.5266   -44358.632    28.477762   0.93925142 
   51000     205.8309    57.414416     132867.9   -41826.889    2560.9277   -44387.816    28.623599   0.93998242 
   51100    203.90494   -13.430996    132939.85   -41855.217    2536.9651   -44392.182    28.521773   0.93947368 
   51200    202.23957   -252.06958    132989.01   -41827.193    2516.2447   -44343.438    28.704787   0.93912638 
   51300    202.82357    61.679497    132917.65   -41894.889    2523.5108   -44418.399     28.59937   0.93963061 
   51400    204.32082   -40.384094    133015.73   -41898.037    2542.1395   -44440.176    28.731188   0.93893774 
   51500    201.21751   -58.576483    133006.16   -41908.201    2503.5284   -44411.729    28.850057   0.93900529 
   51600    202.89718   -45.732504    132966.19   -41838.929    2524.4267   -44363.356    28.834773   0.93928759 
   51700     202.8397   -50.739965    132963.15    -41837.73    2523.7115   -44361.442    28.775808   0.93930904 
   51800    201.26883   -77.213969    132961.82   -41876.312    2504.1669   -44380.479    28.723845   0.93931844 
   51900    202.93889   -65.222383    132924.24   -41909.807    2524.9456   -44434.753    28.785097   0.93958398 
   52000    201.30899    66.405754    133057.48   -41915.424    2504.6665   -44420.091    28.772964   0.93864313 
   52100    204.14645    5.9215609    133024.21   -41856.578    2539.9699   -44396.548    28.818529   0.93887787 
   52200    205.92267   -10.341933    133089.48   -41884.239    2562.0696   -44446.308    28.760417   0.93841745 
   52300    202.00806    20.998934    132908.07   -41879.257    2513.3644   -44392.622    28.841436   0.93969833 
   52400    204.37201    70.048585    132745.36    -41826.89    2542.7764   -44369.666    28.959055   0.94085016 
   52500    204.86961    -202.6787    132796.13   -41811.909    2548.9675   -44360.876    28.969809   0.94049041 
   52600    205.62125    160.28255    132970.36   -41834.104    2558.3192   -44392.423    29.063924    0.9392581 
   52700    205.72145    55.719106    133001.65   -41854.468    2559.5659   -44414.034      28.8701   0.93903717 
   52800    204.99274   -113.29945    132970.86   -41826.881    2550.4994   -44377.381    28.857714   0.93925462 
   52900    205.69557    57.664888    133010.74   -41819.146    2559.2439    -44378.39    28.849966   0.93897301 
   53000    209.36558   -51.119744    133061.62   -41800.983    2604.9058   -44405.889    29.008091   0.93861393 
   53100    207.08202    -10.14482    133044.72   -41852.152     2576.494   -44428.646     28.99604   0.93873317 
   53200    202.67832    -15.22635    133094.12   -41856.036    2521.7036    -44377.74    29.237798   0.93838472 
   53300    205.52501   0.85603661    133233.84   -41844.791    2557.1219   -44401.912    29.245986   0.93740068 
   53400    203.52467   -2.5590318    133346.65   -41932.163    2532.2338   -44464.397    29.192264   0.93660762 
   53500    203.12453    106.64918    133463.71   -41946.317    2527.2553   -44473.573    29.103088   0.93578613 
   53600    206.37099    80.161254    133557.39   -41953.596    2567.6475   -44521.243    29.193176   0.93512974 
   53700    204.01065   -14.012503    133501.05   -41975.945    2538.2803   -44514.225    29.147171   0.93552439 
   53800     203.5579   -24.105864    133360.63   -41873.794    2532.6472   -44406.441    29.176996   0.93650943 
   53900    202.89241   -91.167314    133318.41   -41922.266    2524.3673   -44446.633    29.231435     0.936806 
   54000    208.10716   -20.807578    133225.95   -41901.599    2589.2487   -44490.848    28.980972   0.93745616 
   54100    206.18658   -107.39824     133244.3    -41906.07     2565.353   -44471.423     29.05299   0.93732709 
   54200    203.87002   -2.7457348    133163.18   -41898.571    2536.5306   -44435.101    29.123132   0.93789805 
   54300    210.38413    53.396769    133314.46   -41870.527    2617.5785   -44488.105    29.124181   0.93683377 
   54400     206.6539    98.433956    133201.76    -41897.64    2571.1674   -44468.808    28.978488   0.93762646 
   54500    203.96442    18.119552    133166.83   -41893.661    2537.7051   -44431.366    29.118534   0.93787241 
   54600    206.32406   -37.505508    133298.82   -41802.992    2567.0636   -44370.056    29.054704   0.93694374 
   54700    208.00666    88.806783    133045.39   -41822.543    2587.9983   -44410.542    29.120078   0.93872841 
   54800    207.80427    123.40301    132992.66   -41882.331    2585.4802   -44467.811    29.013327   0.93910065 
   54900    204.97366   -54.734372    133164.87   -41931.741     2550.262   -44482.003    29.064841   0.93788615 
   55000    200.22039   -35.355004    133162.57   -41975.434    2491.1223   -44466.557    29.072768   0.93790238 
   55100    200.95057   -111.86613     133186.5   -41927.841    2500.2071   -44428.049    29.232444   0.93773388 
   55200    207.66703    74.369867    133163.69   -41942.067    2583.7727    -44525.84    29.224498   0.93789447 
   55300    204.28111   -31.447034    133179.31   -41902.099    2541.6454   -44443.744    29.412046   0.93778449 
   55400    203.36964    27.516403    133134.71    -41882.35    2530.3049   -44412.655    29.348061   0.93809864 
   55500    212.13527    126.20009    133031.78   -41835.789    2639.3661   -44475.155    29.296135   0.93882447 
   55600    204.88782    39.591215    133129.88   -41876.476     2549.194    -44425.67    29.309662   0.93813266 
   55700    201.97966   -105.84914    133063.18   -41873.577     2513.011   -44386.588    29.400724   0.93860291 
   55800    209.83013    50.458623    133164.75   -41871.822    2610.6857   -44482.507    29.653739   0.93788703 
   55900    205.20743   -110.75467    133186.72   -41845.398    2553.1706   -44398.568    29.640659   0.93773232 
   56000    207.03174     55.77953    133236.54   -41843.374    2575.8684   -44419.242    29.527098   0.93738164 
   56100    206.38816   -84.193582    133128.92   -41817.682    2567.8611   -44385.543    29.533231   0.93813945 
   56200    206.56611     -80.0028    133206.15   -41811.009    2570.0752   -44381.084    29.501047   0.93759551 
   56300    207.29606    26.552214    133078.33   -41849.319     2579.157   -44428.476    29.463795    0.9384961 
   56400    207.21045   -40.668759    133241.38     -41838.4    2578.0919   -44416.492    29.353492   0.93734765 
   56500    204.96177    58.826648    133230.73   -41920.968    2550.1141   -44471.082    29.275872   0.93742258 
   56600    204.59911    5.7759317    133142.13   -41939.765    2545.6019   -44485.367    29.357312   0.93804634 
   56700    205.56811   -40.329219    133179.84   -41978.005    2557.6582   -44535.663    29.497434   0.93778073 
   56800     205.2319    24.212804     133182.8   -41927.809     2553.475   -44481.284    29.536716   0.93775991 
   56900    205.05615   -14.852526    133257.69   -41909.414    2551.2884   -44460.703    29.656013   0.93723291 
   57000    208.94994    -11.62609    133120.39   -41865.926    2599.7345    -44465.66    29.547175   0.93819957 
   57100     207.0289    94.856247    133118.84    -41917.55    2575.8331   -44493.383    29.466775   0.93821051 
   57200    202.29093    143.29806    133101.37   -41969.425    2516.8838   -44486.309    29.545334   0.93833361 
   57300    201.76695   -55.577832    133103.46   -42014.851    2510.3645   -44525.215    29.514624    0.9383189 
   57400    202.79722  -0.90723048    133192.62   -42006.203     2523.183   -44529.386    29.673135   0.93769075 
   57500    198.32278   -48.652328     133117.3   -42044.296    2467.5124   -44511.808    29.668905   0.93822131 
   57600    201.29429   -86.541441    133119.68    -42007.05    2504.4836   -44511.533    29.603545   0.93820458 
   57700    198.87565   -31.789553    133104.54   -42032.824    2474.3912   -44507.215    29.614079   0.93831129 
   57800    200.76383   -83.263494    133081.28   -42052.695    2497.8837   -44550.578    29.623426   0.93847527 
   57900    202.09028   -37.035524    133183.11   -42035.723    2514.3873   -44550.111    29.649376   0.93775771 
   58000    202.98349   -33.915853    133186.05   -42030.976    2525.5005   -44556.476    29.584721   0.93773704 
   58100    201.26412   -68.739116     133166.6    -41979.88    2504.1083   -44483.988    29.479878   0.93787397 
   58200    204.77964   -1.9554591    133247.64   -41928.665     2547.848   -44476.513    29.522573   0.93730359 
   58300    206.11221    29.733599    133270.47   -41868.126    2564.4277   -44432.554    29.678098   0.93714303 
   58400    204.37018   -143.63031    133198.41   -41886.906    2542.7536    -44429.66    29.656542   0.93765001 
   58500    206.94295   -34.188164    133265.16   -41878.245    2574.7638   -44453.009    29.635344   0.93718038 
   58600    207.27864    -56.13141    133351.66   -41852.912    2578.9403   -44431.852    29.658234   0.93657247 
   58700     206.4377    60.925233    133300.95   -41860.118    2568.4775   -44428.596     29.55905   0.93692876 
   58800    207.43666    25.078301    133383.76   -41910.249    2580.9064   -44491.156     29.54055   0.93634709 
   58900    204.08798     107.7766    133332.98   -41950.568    2539.2425   -44489.811     29.58226   0.93670367 
   59000    206.92106   -29.353807    133313.23   -41938.628    2574.4914   -44513.119    29.672971   0.93684244 
   59100    206.46476   -87.803884    133311.59   -41942.987    2568.8142   -44511.801    29.689736   0.93685394 
   59200     204.9398     9.936401    133216.41   -41941.392    2549.8407   -44491.233    29.555926   0.93752331 
   59300    204.19387   -26.467824    133109.62   -41939.997      2540.56   -44480.557    29.621333   0.93827545 
   59400    202.68527   -33.816916     133171.9   -41990.471    2521.7901   -44512.261    29.691805   0.93783667 
   59500    208.42059    22.839871    133246.27    -41953.45    2593.1484   -44546.599    29.675113   0.93731323 
   59600    204.13415     63.85907    133268.94   -41952.639    2539.8169   -44492.455    29.736224   0.93715378 
   59700    201.17293    24.311894    133305.75   -41968.653    2502.9737   -44471.627    29.866821   0.93689504 
   59800    202.46472    46.703365    133372.11   -41962.743    2519.0461   -44481.789    29.943957   0.93642887 
   59900    205.67358    8.4407293    133521.36   -41959.095    2558.9704   -44518.066    29.857728   0.93538212 
   60000    204.69955    83.174604    133449.29    -41997.88    2546.8516   -44544.732    29.700228   0.93588724 
   60100    202.58872   -5.4089608    133397.25   -41958.659    2520.5889   -44479.248    29.906393   0.93625238 
   60200    205.35175    77.406507    133419.73   -41950.982    2554.9661   -44505.948    29.824133    0.9360946 
   60300    205.77298   -31.372925    133433.62   -41907.274    2560.2071   -44467.481    29.974357   0.93599716 
   60400    207.63756    9.5543523    133388.51   -41857.766    2583.4061   -44441.172    29.955371   0.93631371 
   60500    206.81864    137.60455     133468.9   -41889.644    2573.2171   -44462.861     30.14526   0.93574973 
   60600    205.08515    5.6555003    133561.62   -41935.622    2551.6492   -44487.271    30.155019   0.93510017 
   60700    202.48872   -43.041878    133626.04    -41974.43    2519.3446   -44493.774    30.214151   0.93464938 
   60800    207.12579    81.696584     133534.6   -41929.174    2577.0386   -44506.213    29.968097   0.93528935 
   60900    206.24364   -65.226156    133413.76   -41939.075    2566.0629   -44505.138    30.129912   0.93613649 
   61000    204.82874     100.9938    133374.48   -41979.198    2548.4589   -44527.657    30.185776   0.93641222 
   61100    199.47381   -26.831154    133380.38   -42013.645    2481.8334   -44495.478    30.188096   0.93637078 
   61200    201.84838   -20.715951    133271.06   -42009.207    2511.3776   -44520.584    30.086215   0.93713891 
   61300    202.30217   -26.890954     133357.1   -42006.401    2517.0236   -44523.424    30.060694   0.93653427 
   61400    201.65141    45.855434    133245.22   -42028.328    2508.9269   -44537.255    30.049386   0.93732064 
   61500    201.34873   -103.79741    133324.17   -42022.977     2505.161   -44528.138    30.194422    0.9367656 
   61600    205.16365     39.39211    133398.82   -41984.298    2552.6258   -44536.924    30.318043   0.93624136 
   61700    199.78373    57.443717       133390   -42064.325    2485.6895   -44550.014    30.226637   0.93630328 
   61800    197.57903    20.541604     133291.2   -42112.451    2458.2587   -44570.709     30.26719   0.93699725 
   61900    203.94555    82.780518    133425.23   -42051.751    2537.4704   -44589.221    30.142953   0.93605605 
   62000    204.32573    102.04985    133335.07   -42016.201    2542.2005   -44558.402    30.175003   0.93668897 
   62100    202.14442   -83.086455     133276.4   -42029.964    2515.0608   -44545.025    30.159061   0.93710134 
   62200    203.04366    123.32506    133278.19   -41985.835    2526.2492   -44512.084    30.265914   0.93708875 
   62300    203.87546    5.2303697    133277.78   -42017.179    2536.5983   -44553.777    30.088313   0.93709159 
   62400    206.10969    -54.73377    133386.79   -41975.402    2564.3964   -44539.798    30.160549   0.93632578 
   62500    204.70939   -32.066867       133380   -41986.188     2546.974   -44533.162    30.124754   0.93637347 
   62600     202.1584   -192.80822    133295.95    -41984.04    2515.2348   -44499.275    30.227523   0.93696389 
   62700      203.886    31.202219    133278.92   -42003.118    2536.7294   -44539.848     30.40973    0.9370836 
   62800    204.76885    89.502194    133289.15   -41988.923    2547.7138   -44536.637    30.368376   0.93701168 
   62900    205.65175   -82.205561    133424.18   -41933.407    2558.6987   -44492.106    30.344539   0.93606337 
   63000     206.6306   -33.822017     133398.9   -41895.232    2570.8775   -44466.109    30.067606   0.93624077 
   63100     205.4388   -45.528017    133360.73   -41880.668    2556.0493   -44436.717    30.142297   0.93650875 
   63200      204.919   -108.47242     133360.8   -41913.721     2549.582   -44463.303    30.267037   0.93650829 
   63300    207.06385    24.819805    133331.94   -41941.319     2576.268   -44517.587    30.288868     0.936711 
   63400    205.28225    11.686276    133364.27   -41865.897    2554.1015   -44419.999    30.389471   0.93648391 
   63500    204.83611     63.12182    133460.75   -41949.435    2548.5506   -44497.985    30.422527   0.93580689 
   63600    206.84534    93.499229     133409.1   -41945.198    2573.5493   -44518.747    30.557642   0.93616919 
   63700    204.36382    -83.34123    133337.89   -41963.994    2542.6745   -44506.668    30.556071   0.93666917 
   63800    200.69277   -133.21404    133333.46   -42048.381    2496.9996    -44545.38    30.325145   0.93670028 
   63900    202.99138    105.95895    133218.87   -42032.702    2525.5986     -44558.3    30.288404   0.93750602 
   64000    202.44387    18.308273    133281.88   -42022.902    2518.7866   -44541.688    30.299037    0.9370628 
   64100    202.76247   -55.695517    133236.05   -41945.019    2522.7506   -44467.769    30.282987   0.93738515 
   64200    206.85112   -15.606368    133208.58   -41922.286    2573.6212   -44495.908    30.458716   0.93757841 
   64300    204.58811   -2.9236777    133192.34    -41840.68     2545.465   -44386.145    30.372913   0.93769276 
   64400    202.78422    33.730284    133167.45   -41863.956    2523.0212   -44386.977     30.56418   0.93786799 
   64500    209.36958    109.27242    133213.85   -41865.343    2604.9556   -44470.298    30.547628   0.93754135 
   64600    207.42466    -36.39497     133177.4   -41904.372    2580.7571   -44485.129    30.504044   0.93779796 
   64700    206.37207   -44.716296    132928.33    -41928.09    2567.6609   -44495.751    30.592683   0.93955508 
   64800    206.78479    70.236643    133113.82   -41932.406    2572.7959   -44505.202    30.572147   0.93824585 
   64900    204.12642    23.367745    133121.71   -41910.173    2539.7207   -44449.893    30.593943   0.93819029 
   65000     205.9918    124.36294    133194.75   -41882.647    2562.9297   -44445.576     30.69741   0.93767577 
   65100    207.32293   -77.932487    133233.89   -41911.055    2579.4915   -44490.547    30.725755   0.93740033 
   65200    205.38709    -24.46181    133262.23   -41898.268    2555.4058   -44453.673    30.743392     0.937201 
   65300    206.91605    50.132761    133237.09    -41894.02     2574.429   -44468.449     30.71527    0.9373778 
   65400    206.68649    7.6677264    133347.26   -41856.281    2571.5728   -44427.853    30.748508   0.93660336 
   65500    203.92169    17.864424    133342.73   -41931.983    2537.1735   -44469.156    30.886147   0.93663515 
   65600    205.63138    80.229052    133414.17   -41969.844    2558.4453    -44528.29    30.955015   0.93613362 
   65700    203.93887    28.072084     133282.5   -42014.102    2537.3873    -44551.49    30.848377   0.93705843 
   65800    200.97454   -12.274229     133330.6   -42007.663    2500.5053   -44508.169    30.875714   0.93672038 
   65900    202.79276   -41.167603    133314.32   -41983.901    2523.1274   -44507.029    30.843014   0.93683477 
   66000    202.97608   -8.1545807    133295.03   -41892.024    2525.4083   -44417.433     30.90732   0.93697034 
   66100     212.9589   -137.95193    133281.77   -41859.851    2649.6136   -44509.465    30.787262    0.9370636 
   66200    207.55758    61.571929    133404.42   -41825.852    2582.4109   -44408.263    30.869182   0.93620205 
   66300    209.72197    10.049384     133569.8   -41878.543      2609.34   -44487.883    30.982762   0.93504288 
   66400    206.71743    48.721708    133441.56   -41911.811    2571.9578   -44483.769    30.890937   0.93594146 
   66500     206.7112    12.082112     133456.9   -41920.877    2571.8803   -44492.757    30.893255   0.93583393 
   66600    206.12022   -23.742333    133549.94   -41936.305    2564.5274   -44500.832    30.933972   0.93518196 
   66700    204.54526     20.47835    133483.15   -41952.721    2544.9319   -44497.653    30.906131   0.93564989 
   66800    203.54281    125.10786     133608.5   -41889.692    2532.4596   -44422.152    31.013606   0.93477208 
[...]
   84600    200.02577   -20.175825    133840.99   -42163.085    2488.7008   -44651.786    33.556182   0.93314831 
   84700    198.57855     13.31911    133735.82   -42172.468    2470.6946   -44643.163     33.47077   0.93388212 
   84800    203.13923   -7.7827454    133776.58   -42135.193    2527.4382   -44662.631    33.515125   0.93359759 
   84900    202.94351   -122.22438    133830.17   -42113.507    2525.0031    -44638.51    33.409156   0.93322377 
   85000    204.55384   -24.734687    133701.15   -42074.753    2545.0387   -44619.791    33.347784   0.93412426 
   85100    201.27441    23.758488     133546.9   -42070.024    2504.2363   -44574.261    33.265303   0.93520322 
   85200    203.99385   -127.49774    133725.26   -42076.925    2538.0713   -44614.996    33.476007   0.93395589 
   85300     203.7626   -44.350595    133627.65   -42093.707    2535.1941   -44628.901    33.516589   0.93463807 
   85400    204.10704    56.709068    133728.02   -42097.633    2539.4796   -44637.112    33.492681   0.93393662 
   85500    209.06497     24.34467    133765.74    -42071.45    2601.1657   -44672.616    33.527118   0.93367322 
   85600    203.32288    41.226099    133861.56   -42062.172    2529.7231   -44591.895    33.720859   0.93300488 
   85700    204.10894    -57.15187    133816.75   -42097.398    2539.5033   -44636.901    33.492357   0.93331735 
   85800     204.7075   -1.6383779    133763.21    -42100.33    2546.9504   -44647.281    33.543454    0.9336909 
   85900    207.93196   -65.894425    133670.08   -42011.305    2587.0689   -44598.374    33.496477   0.93434145 
   86000     207.9615    36.926458    133845.38   -42058.118    2587.4365   -44645.554    33.524486   0.93311769 
   86100    205.58922   -39.242632    133876.93   -42065.368    2557.9207   -44623.288    33.330036   0.93289779 
   86200    205.42316    20.987483    133797.23   -42034.042    2555.8547   -44589.897    33.579091   0.93345351 
   86300    204.61863    125.78826    133769.55   -42076.246    2545.8447   -44622.091    33.580906   0.93364661 
   86400    205.53189   -80.212072    133796.71   -42084.828    2557.2075   -44642.036     33.63513   0.93345713 
   86500    209.19136   -36.920724    133835.26   -42073.603    2602.7382   -44676.341    33.689467   0.93318824 
   86600    205.20654    15.378038    133939.08   -42030.547    2553.1595   -44583.706    33.576254   0.93246489 
   86700    209.94723    20.778297    134066.75   -42018.108    2612.1427   -44630.251    33.609695   0.93157693 
   86800    202.68548   -143.86168    133863.56   -42078.798    2521.7927   -44600.591    33.511351   0.93299095 
   86900    207.04503   -105.86662     133851.5   -42042.179    2576.0338   -44618.213    33.512525     0.933075 
   87000    202.74493   -77.028505       133791   -42045.466    2522.5324   -44567.998    33.646385   0.93349695 
   87100    206.41893     42.74489    133862.31   -42059.706    2568.2439    -44627.95    33.859701   0.93299968 
   87200     203.5282    8.9503111    133927.85   -42074.109    2532.2777   -44606.386    33.911516    0.9325431 
   87300    202.95533    4.1114526    133839.69   -42076.896    2525.1502   -44602.047    33.847261   0.93315737 
   87400    202.30769   -48.983342    133957.09   -42087.302    2517.0923   -44604.394    33.623226   0.93233957 
   87500    203.01529   -33.287305    133943.01   -42089.122    2525.8962   -44615.018    33.564904   0.93243755 
   87600    202.18947    -18.97004    133860.35   -42088.004    2515.6214   -44603.625    33.765682   0.93301336 
   87700    206.08288   -25.680778    133896.22   -42098.606    2564.0629   -44662.669    33.822726   0.93276336 
   87800    203.25263   -71.167821    133715.46   -42075.368    2528.8492   -44604.218    33.751005   0.93402434 
   87900    203.50128   -37.476336    133605.21    -42088.22    2531.9428   -44620.163    33.817601   0.93479504 
   88000    201.61493     2.298367    133752.92   -42104.646    2508.4731    -44613.12    33.877891   0.93376273 
   88100    208.42264    147.82341    133662.99   -42046.758    2593.1739   -44639.932    33.723057   0.93439099 
   88200    208.57907    92.908454    133749.24   -42018.832    2595.1202   -44613.953    33.836476   0.93378843 
   88300    205.65091    58.254156    133690.27   -42066.412    2558.6884     -44625.1    33.850554   0.93420031 
   88400    201.89654   -80.261622    133731.49   -42159.009    2511.9768   -44670.986     33.86521   0.93391239 
   88500    205.57354    52.973691    133821.45   -42089.985    2557.7256   -44647.711    34.013804   0.93328457 
   88600    205.99417   -15.276762    133918.23   -42031.247    2562.9591   -44594.206    34.131276   0.93261011 
   88700    207.39826    70.676842    133956.19   -42011.582    2580.4287   -44592.011    34.025235   0.93234583 
   88800    208.40105    68.104802    133773.95   -41962.033    2592.9053   -44554.938    34.020935   0.93361595 
   88900    208.87165   -19.647432     133781.2   -42020.989    2598.7604    -44619.75    33.982411   0.93356536 
   89000    205.07218    66.028543    133870.53   -42011.914    2551.4878   -44563.402    34.020766    0.9329424 
   89100    203.82291    19.445835    133745.45   -42098.587    2535.9445   -44634.532     34.00013    0.9338149 
   89200     206.7288    152.07429    133749.29   -42122.728    2572.0992   -44694.827    34.003774   0.93378807 
   89300    202.79835      53.9864    133710.36   -42144.408     2523.197   -44667.605    33.887844   0.93405992 
   89400    205.32476    102.82672    133750.87   -42172.047    2554.6303   -44726.677    34.010097   0.93377705 
   89500    201.12844    20.485533    133757.12   -42202.533    2502.4202   -44704.953    34.027004   0.93373339 
   89600    199.10248    54.677499    133761.69   -42246.963    2477.2133   -44724.176    34.003505   0.93370153 
   89700    201.60125    23.055077    133913.28   -42207.269    2508.3028   -44715.572    34.130778   0.93264459 
   89800     198.4813    124.28863    133927.39   -42174.814    2469.4847   -44644.299      33.8759   0.93254627 
   89900    198.91366    77.986646    133906.73   -42226.511    2474.8642   -44701.376    34.014217   0.93269016 
   90000    204.49199    38.495939    133841.58   -42132.251    2544.2691    -44676.52    34.030634   0.93314421 
   90100    203.44235    56.608088    133873.29   -42136.161    2531.2096   -44667.371    33.866255   0.93292312 
   90200    204.24228    9.3009156    133783.76   -42166.494    2541.1623   -44707.656    34.130929   0.93354748 
   90300    202.89458    10.948625    133784.78   -42161.745    2524.3943    -44686.14    34.129528   0.93354037 
   90400    201.20709   -137.00783    133824.87   -42153.921    2503.3987    -44657.32    34.181272   0.93326067 
   90500    204.89156   -17.909135    133818.43   -42120.796    2549.2406   -44670.037    34.088232   0.93330561 
   90600    206.05772   -58.601532    133886.96   -42047.979    2563.7498   -44611.729    33.996238   0.93282788 
   90700    208.70303    114.86319    133933.07    -42048.19    2596.6625   -44644.853    33.911785   0.93250677 
   90800    204.20857   -34.824374    133913.79    -42087.63    2540.7429   -44628.373    34.031859   0.93264103 
   90900    199.14941   -56.368087    133802.84   -42172.039    2477.7973   -44649.837    34.118674   0.93341432 
   91000    201.97728   -31.006143    133797.13   -42193.209    2512.9814   -44706.191    34.164831   0.93345418 
   91100    200.67716    48.387879    133783.12   -42183.136    2496.8053   -44679.942    34.107544   0.93355191 
   91200    203.98896    93.706614       133836   -42145.297    2538.0104   -44683.307    34.021257   0.93318306 
   91300    203.61079    57.361261    133916.25   -42061.786    2533.3054   -44595.092    34.097579    0.9326239 
   91400     209.1192   -72.196293    133805.26   -42047.162    2601.8405   -44649.002    34.115537   0.93339747 
   91500    210.36805    91.538323    133699.93   -42060.801    2617.3785    -44678.18    34.109752   0.93413281 
   91600    205.27254   -70.140441     133777.3   -42097.402    2553.9807   -44651.382    34.202949   0.93359258 
   91700    201.78483   -159.20596    133737.05   -42169.638    2510.5869   -44680.225     34.33379   0.93387353 
   91800     201.2285    23.675035    133734.37   -42140.229    2503.6651   -44643.895    34.343255   0.93389222 
   91900    204.91881   -104.08834    133746.98   -42137.599    2549.5796   -44687.178    34.144372   0.93380419 
   92000    206.23653   -84.766076    133510.29   -42139.319    2565.9746   -44705.293    34.147734   0.93545969 
   92100    202.47906    -133.2162    133595.69    -42185.57    2519.2244   -44704.794    34.132711   0.93486169 
   92200    203.97475    48.263235     133701.6   -42120.927    2537.8336   -44658.761    34.228583   0.93412116 
   92300    207.52623    28.047904     133813.9   -42051.188    2582.0208   -44633.209    34.284527   0.93333723 
   92400    208.20383   -24.714711    133748.21   -42065.337    2590.4515   -44655.789    34.261338   0.93379558 
   92500    207.79322   -75.230098    133706.13   -42101.379    2585.3428   -44686.721    34.304362   0.93408948 
   92600    203.97833    80.519785     133764.1   -42084.165    2537.8783   -44622.044    34.104988   0.93368467 
   92700    205.48655   -25.273071    133852.17   -42082.986    2556.6434   -44639.629    34.328848   0.93307036 
   92800    207.08092   -47.938263    133745.01   -42123.837    2576.4803   -44700.317    34.297701   0.93381793 
   92900    210.81189   -65.813001     133757.4   -42083.412    2622.9007   -44706.313    34.365395   0.93373145 
   93000    207.93383   -13.632275    133608.42   -42108.979    2587.0921   -44696.071    34.349885   0.93477259 
   93100    205.78992    27.678387    133750.17   -42053.367    2560.4179   -44613.785    34.423769   0.93378189 
   93200    205.05652   -67.865578    133780.18   -42078.852    2551.2929   -44630.145    34.336554   0.93357246 
   93300     206.1435     27.13802    133832.95   -42106.257     2564.817   -44671.074    34.266541   0.93320433 
   93400    206.37554    36.370039    133835.97   -42128.686    2567.7041    -44696.39    34.340664   0.93318332 
   93500    199.54808   -25.757112    133824.63   -42157.426    2482.7574   -44640.183    34.437575    0.9332624 
   93600    202.35763   -156.13199    133882.61   -42219.107    2517.7137   -44736.821    34.348357   0.93285823 
   93700    200.19217   -2.9620098    133835.67   -42189.464    2490.7712   -44680.235    34.552667   0.93318542 
   93800    203.39926    34.345646    133841.54   -42147.756    2530.6735    -44678.43    34.511087   0.93314444 
   93900     205.6681   -14.968975    133858.88   -42142.328    2558.9022    -44701.23    34.316427   0.93302358 
   94000     207.8567    115.61477    133959.15   -42151.324    2586.1325   -44737.457    34.263132   0.93232517 
   94100    200.76945    142.13012     134046.8   -42160.934    2497.9536   -44658.888    34.342688   0.93171555 
   94200    202.85521   -89.841541    133904.21   -42143.966    2523.9045   -44667.871    34.520818   0.93270769 
   94300    204.36903   -77.087287    133845.12   -42104.177    2542.7393   -44646.916    34.598918   0.93311949 
   94400    205.66901    1.7986195    133894.02   -42088.866    2558.9135   -44647.779    34.420747   0.93277868 
   94500      208.545    -8.857098    133959.04   -42029.188    2594.6962   -44623.884    34.448986   0.93232596 
   94600    209.19095    84.087565    133922.31   -42074.037    2602.7331    -44676.77    34.553848   0.93258164 
   94700    203.83922    71.438858    133871.44   -42108.119    2536.1474   -44644.266    34.517262   0.93293604 
   94800    205.88843    32.203303    133845.01   -42104.374    2561.6435   -44666.017    34.365412   0.93312024 
   94900    205.28799   -29.745027    133904.02   -42084.496    2554.1729   -44638.669    34.304154   0.93270905 
   95000    207.19557    91.210471    133801.59   -42066.117    2577.9068   -44644.024    34.283135   0.93342308 
   95100    205.63538   -11.315487    133737.91   -42064.149    2558.4951   -44622.644    34.282583   0.93386749 
   95200      206.652    14.929981    133834.31   -42071.851    2571.1438   -44642.995    34.412444   0.93319487 
   95300    209.82402     50.59376    133863.86   -41982.662    2610.6097   -44593.272    34.453184   0.93298886 
   95400    203.80599     72.95518    133959.58   -42051.536     2535.734    -44587.27    34.466358   0.93232218 
   95500    205.97773   -179.20872    133874.41   -42051.482    2562.7546   -44614.237    34.386581   0.93291533 
   95600    206.61103   -76.492757    133839.63   -42062.416     2570.634    -44633.05    34.434621   0.93315778 
   95700    205.50369   -16.662509    133877.56   -42118.903    2556.8565   -44675.759    34.467252    0.9328934 
   95800    204.93478    -43.99784    133775.97   -42164.237    2549.7783   -44714.015     34.26595   0.93360185 
   95900    204.88838    -12.84607    133901.49   -42101.594    2549.2009   -44650.795    34.335349   0.93272665 
   96000    204.07668    66.969211    133842.83   -42172.129    2539.1018   -44711.231    34.439192   0.93313548 
   96100    203.82767   -71.879997    133829.58   -42128.395    2536.0037   -44664.399    34.454034   0.93322782 
   96200    207.33937    19.875096    133834.27    -42168.25     2579.696   -44747.946    34.572376   0.93319515 
   96300    204.44261     9.240598    133808.65    -42122.38    2543.6548   -44666.035    34.422479   0.93337379 
   96400    205.23646    29.967324    133662.35   -42101.218    2553.5318    -44654.75    34.365744   0.93439545 
   96500    204.32439   -2.3577708    133828.93   -42155.294    2542.1838   -44697.477    34.471678   0.93323239 
   96600    203.77575    24.590099    133926.08   -42155.196    2535.3578   -44690.554    34.395459   0.93255539 
   96700    203.35975   -45.907933    133834.51   -42232.438    2530.1818    -44762.62    34.464765   0.93319349 
   96800    198.41851    48.500287    133887.77   -42262.992    2468.7035   -44731.696    34.600111   0.93282223 
   96900    208.96954    1.5919767    133996.74   -42193.337    2599.9783   -44793.315    34.632246   0.93206362 
   97000    203.01893   -36.223722    133947.54   -42223.024    2525.9415   -44748.965     34.65555   0.93240604 
   97100    202.20316   -35.322851    134019.77   -42214.387    2515.7918   -44730.178     34.58956   0.93190346 
   97200    203.09485    64.495496    133933.58    -42219.09    2526.8861   -44745.976    34.423115   0.93250321 
   97300    201.62375    37.068092    133915.11    -42213.31    2508.5828   -44721.893    34.584491   0.93263178 
   97400    200.98976   -63.549495    133883.62   -42221.567    2500.6948   -44722.261    34.553432   0.93285119 
   97500    209.75665   -145.92643    133923.56   -42113.951    2609.7715   -44723.722    34.526799   0.93257297 
   97600     203.1141   -33.468571    133899.55   -42173.874    2527.1256   -44700.999    34.627677   0.93274017 
   97700    202.84433    122.97546    133937.55   -42117.942    2523.7691   -44641.711     34.67193   0.93247556 
   97800    205.43199    -33.04533    134045.11   -42097.441    2555.9645   -44653.406    34.888798   0.93172733 
   97900    207.05539   -109.89734    134038.87   -42072.244    2576.1627   -44648.407    34.907593   0.93177069 
   98000    204.94761    15.413275     133837.6   -42085.863    2549.9379   -44635.801    34.856541   0.93317192 
   98100     201.0666   -190.60195    133933.99   -42163.636    2501.6508   -44665.287    34.713403   0.93250034 
   98200    202.63892   -4.6236904    133809.74   -42134.412    2521.2134   -44655.625    34.629793   0.93336625 
   98300    204.59593    85.468305    133920.96   -42156.064    2545.5623   -44701.626    34.680593   0.93259106 
   98400    200.34328   -60.581622    133906.45   -42163.455    2492.6512   -44656.106    34.671633    0.9326921 
   98500    205.28853   -21.601202    133857.33   -42172.962    2554.1796   -44727.141    34.783883   0.93303436 
   98600    202.54327   -69.449026    133935.24   -42194.066    2520.0233   -44714.089    34.797957   0.93249162 
   98700    202.95041    7.7382721    134041.87   -42239.136    2525.0889   -44764.224    34.733141   0.93174987 
   98800     202.7144    14.632431    133995.52   -42207.927    2522.1525    -44730.08    34.957091   0.93207215 
   98900    201.56999   -48.014293     133872.3   -42220.317    2507.9138   -44728.231    34.758263   0.93293007 
   99000    200.77674    6.1731341     134045.9   -42256.774    2498.0444   -44754.818    34.611834   0.93172182 
   99100    203.01277   -42.871289    134108.03   -42197.113    2525.8648   -44722.978    34.756165   0.93129015 
   99200    204.47987    52.750515    134163.45   -42189.087    2544.1184   -44733.205    34.777584   0.93090546 
   99300    208.28177    114.33275    134085.68   -42151.895    2591.4212   -44743.316    34.775617   0.93144539 
   99400    206.57457   -23.466572    134032.32   -42134.514    2570.1804   -44704.694    34.752751   0.93181621 
   99500    211.45724    92.355043    134049.69   -42021.443    2630.9301   -44652.373    34.773223   0.93169549 
   99600    208.71147    52.950183    134132.99   -42062.925    2596.7675   -44659.693    35.023329   0.93111687 
   99700    205.61041   -7.8983798    134020.91   -42068.951    2558.1844   -44627.135    34.911206   0.93189553 
   99800    209.13016    4.5381598       134039   -42085.554    2601.9767    -44687.53    34.741736   0.93176977 
   99900     205.2376   -83.122327    134002.56   -42135.729     2553.546   -44689.275    34.502338    0.9320232 
  100000    209.09889   -9.7913938    134040.57   -42145.879    2601.5878   -44747.467    34.559771   0.93175885 
  100100    205.55236    51.203096    134166.45    -42094.48    2557.4622   -44651.942    34.839048   0.93088468 
  100200    203.69004   -56.509609    134105.93    -42095.32    2534.2913   -44629.612    34.864609   0.93130473 
  100300    207.15769    65.453103    134127.19   -42090.027    2577.4355   -44667.462    34.898991   0.93115711 
  100400    205.17365   -13.473012    134177.55   -42115.689    2552.7503   -44668.439     34.88997   0.93080767 
  100500    209.32225   -65.791913     134274.7   -42050.748    2604.3667   -44655.115    34.829688    0.9301342 
  100600    204.78345   -37.608579    134225.87   -42129.147    2547.8954   -44677.042    34.693988   0.93047261 
  100631    207.49141    93.100326    134233.04   -42117.668    2581.5876   -44699.256    34.795608   0.93042287 
Loop time of 513.898 on 1 procs for 100000 steps with 4175 atoms

Performance: 84.063 ns/day, 0.285 hours/ns, 194.591 timesteps/s
100.0% CPU use with 1 MPI tasks x no OpenMP threads

MPI task timing breakdown:
Section |  min time  |  avg time  |  max time  |%varavg| %total
---------------------------------------------------------------
Pair    | 465.64     | 465.64     | 465.64     |   0.0 | 90.61
Neigh   | 34.185     | 34.185     | 34.185     |   0.0 |  6.65
Comm    | 2.2254     | 2.2254     | 2.2254     |   0.0 |  0.43
Output  | 0.98843    | 0.98843    | 0.98843    |   0.0 |  0.19
Modify  | 9.194      | 9.194      | 9.194      |   0.0 |  1.79
Other   |            | 1.667      |            |       |  0.32

Nlocal:        4175.00 ave        4175 max        4175 min
Histogram: 1 0 0 0 0 0 0 0 0 0
Nghost:        3698.00 ave        3698 max        3698 min
Histogram: 1 0 0 0 0 0 0 0 0 0
Neighs:        0.00000 ave           0 max           0 min
Histogram: 1 0 0 0 0 0 0 0 0 0
FullNghs:     113760.0 ave      113760 max      113760 min
Histogram: 1 0 0 0 0 0 0 0 0 0

Total # of neighbors = 113760
Ave neighs/atom = 27.247904
Neighbor list builds = 5052
Dangerous builds = 0

undump              1
unfix               2
unfix               3
unfix               4


################################################
#######         Run Simulation         #########
################################################

reset_timestep      0
log                 log.run_${NAME}
log                 log.run_liquid_density_MLmW
