LAMMPS data file via write_data, version 29 Oct 2020, timestep = 800000

4175 atoms
1 atom types

-0.6558627535084653 50.65586275350947 xlo xhi
-0.6558627535084653 50.65586275350947 ylo yhi
-0.6558627535084653 50.65586275350947 zlo zhi

Masses

1 18.015

Atoms # atomic

597 1 0.540031633366461 1.44206269378259 2.2787760860284716 1 0 0
2003 1 6.578142145522782 1.0119768673975997 1.599591154194878 0 0 1
2486 1 10.694367544817505 1.3996793679658217 0.35728572479782184 0 1 0
1695 1 20.682931031600553 0.006141905994902386 0.5300351915175523 0 0 1
1875 1 17.9283025459544 -0.569273975535603 0.1810155731110914 0 0 1
495 1 18.190578602624832 1.8381618906480326 1.9883305297288194 0 0 0
67 1 21.225689561797502 3.208306221461 -0.009482649324238479 0 0 0
233 1 22.343011483923732 -0.5347477871320578 6.4870437353665436 0 0 0
569 1 22.83711133922177 1.2650383229441393 1.8841698267793876 0 0 0
2363 1 26.99517563666393 0.24332728329462183 2.6554239906482437 0 1 0
516 1 27.075132544484536 3.0534761207079155 2.6447867475648468 0 0 0
2226 1 30.991951294103888 0.3869683176880361 1.5788326604475813 0 1 0
1959 1 42.656122043050296 20.136090623104298 0.6001370147207974 0 0 1
10 1 34.173830604115494 10.244282325317881 -0.29911195559015824 0 0 0
2744 1 36.47009756482505 2.3170397393257103 2.0324076022249873 0 1 0
553 1 41.19481742155173 0.6872841211260545 1.91867059109161 0 0 0
4081 1 29.57621014967177 22.061085020836558 -0.4962923251522251 0 0 1
290 1 47.43085322125214 0.8926132626721395 2.5762428242440563 0 0 0
268 1 47.82519811419478 2.20842675963519 0.1134456283788764 0 0 0
2691 1 -0.06978556333744212 4.166055044401899 2.119794812668401 1 1 0
289 1 2.265578236414283 4.884172835249021 0.8614493896026847 0 0 0
447 1 4.742278316015779 4.756527430262712 2.419617751090284 0 0 0
195 1 6.171432694075513 5.110840609880084 0.1992141265336952 0 0 0
198 1 8.821578430964173 2.547410719389521 2.0294278139932533 0 0 0
2441 1 8.757049577293508 5.1622120897576975 1.349118076412363 0 1 0
1548 1 31.498157734958518 12.899569994342565 -0.14123674103171224 0 0 1
1724 1 14.593530114957254 4.0859126899145775 1.4221264144959824 0 0 1
2450 1 19.53856749772155 4.361480153856861 2.8607117357133394 0 1 0
1708 1 26.684812918807147 9.749923109901173 -0.5768233943655631 0 0 1
2410 1 34.431153834905295 24.81320846147384 2.5792688770953975 0 0 0
1611 1 24.77376666993034 3.6312190693924222 1.1167064261996846 0 0 1
1729 1 30.585272233948235 2.914643841730444 0.9687771263317091 0 0 1
537 1 32.89270536729602 4.0880797545407805 0.02426749060037592 0 0 0
2099 1 34.168234107559044 3.9143394610225073 2.2989489125814853 0 0 1
2565 1 30.159423568333803 24.635700374116812 12.844113228434443 0 0 0
1429 1 10.678822861703864 6.4183307955051685 -0.3851264223026703 0 0 1
538 1 41.882213360072015 4.69121419951022 0.4748615150675066 0 0 0
2029 1 44.547111267363576 4.440043941975885 0.6235318019317204 0 0 1
1764 1 48.91740546744696 4.74949589022099 0.7418033640817938 0 0 1
1840 1 2.422892923092432 7.59925970713055 0.6846446767245133 1 0 1
224 1 38.27070593390852 24.72158001481314 1.5653555240190098 0 0 0
89 1 12.55494953471735 7.9955287290640875 0.6024520713889319 0 0 0
1786 1 16.427290571268312 8.619495388473537 1.2732425693505462 0 0 1
1979 1 17.98950972609517 6.418224092264873 2.247698916915143 0 0 1
694 1 30.021203029050362 24.496088618706175 0.9827157348563311 0 0 0
1716 1 21.50412141604183 8.886903815839196 2.8223688951010715 0 0 1
423 1 25.018150202987016 7.487747923766243 2.5596332357377127 0 0 0
354 1 28.71442135248308 7.663232149679306 0.11442193324312755 0 0 0
410 1 29.563902959803134 6.631981504225527 2.6984534941751592 0 0 0
1534 1 31.982840093340762 8.675162021468735 0.19203294664941173 0 0 1
438 1 32.33525654119472 7.565168246412714 2.7907139854526046 0 0 0
1997 1 37.06701047752574 7.691494809997165 1.5280243804426767 0 0 1
2268 1 40.84292078002991 5.555613488864133 2.938028374670553 0 1 0
436 1 39.196254118409456 7.935366951711108 3.283262537589656 0 0 0
45 1 0.03648120607789174 0.09862185668682488 -0.017492078653274845 0 0 0
2082 1 48.290800065839896 7.41653517778353 0.9969386976592642 0 0 1
174 1 1.8454737696589936 9.4962495732356 2.7307212242936214 1 0 0
626 1 0.4657516582925345 11.843011544773345 2.499074375180184 0 0 0
589 1 42.06742384051472 9.348840821796891 -0.09564013555146633 0 0 0
1984 1 4.8418736264875895 10.589295081826867 2.3647701963892906 0 0 1
561 1 7.2821545333564766 9.232430641752794 1.7252105777953561 0 0 0
32 1 8.967113077244004 10.847319555301638 0.4062004774509598 0 0 0
112 1 11.186750609339219 9.988736338400953 1.6276274313191528 0 0 0
109 1 19.686524618155943 7.851817936554282 0.7892377260368186 0 0 0
126 1 24.208064909437805 9.647247368122402 0.8002513938623774 0 0 0
1775 1 26.21413093084847 6.272295551447217 0.39361622242034877 0 0 1
1655 1 25.948350877466673 12.266713961620313 1.6449012734053698 0 0 1
265 1 28.20877255491741 10.522314244786001 1.9075467383599882 0 0 0
520 1 0.49664645917826555 18.08803173036348 -0.051464658355483306 0 0 0
1722 1 36.21011209371855 10.470964631811373 1.4573333854755632 0 0 1
1644 1 38.4828556617014 11.78498954023728 0.7766209851231858 0 0 1
562 1 40.2724369637214 10.0124459894218 1.817942172626751 0 0 0
462 1 44.544416501237194 9.386625099205736 0.8844168483131354 0 0 0
637 1 49.62177652685997 10.155694566986494 0.6171207145963848 0 0 0
1767 1 4.229572922432965 12.578451093447415 0.32969602697114087 0 0 1
377 1 2.0597104801534942 14.135963839140274 1.3251527743035811 0 0 0
1939 1 40.600979064347705 2.4649532236075187 -0.2814989343488721 0 0 1
1577 1 8.827989739827338 13.460410730570882 1.339532468269548 0 0 1
651 1 11.385746205692021 14.830976143238106 0.6962912415956553 0 0 0
363 1 12.763993115958558 12.38483485545962 1.3908122967399077 0 0 0
1607 1 14.894025238513613 12.888459996750234 2.9979175310003696 0 0 1
2432 1 25.123146784423216 24.28366649946072 -0.5030000131714525 0 0 0
169 1 21.483069588361655 11.912334858782852 0.8741984948283557 0 0 0
678 1 21.910425316271713 14.486993773167399 -0.1646173872506851 0 0 0
201 1 31.182553042521572 13.980916270750791 2.4112896026811677 0 0 0
56 1 0.02271436111414593 12.584179634595055 -0.38729406729036664 1 0 0
42 1 35.7956735695338 15.270589006582785 2.174551852283731 0 0 0
71 1 38.50184084093858 14.075498572835048 2.179810410439601 0 0 0
608 1 42.57887219688936 14.053612712659362 2.0757250831206657 0 0 0
1968 1 45.407916318257755 14.087835371026227 2.2226870058007715 0 0 1
1996 1 5.88659701633715 19.998829431699086 -0.4526025908416854 0 0 1
3795 1 47.278611389271795 24.911507947895934 -0.005142195413037842 0 0 1
1680 1 7.0586669201501095 16.02267637960556 0.776217252227783 0 0 1
1869 1 11.640388481329646 16.98595047292607 2.243084826289025 0 0 1
286 1 13.253573642209131 19.00628499716368 0.9039187876027899 0 0 0
708 1 15.496388013568211 17.37724432898826 0.4044113662586364 0 0 0
105 1 16.199028231388365 15.403425834838565 2.1123282626271864 0 0 0
2071 1 19.2119086013608 15.402999135441195 -0.30547459919213227 0 0 1
251 1 18.98932172333191 15.640911352469978 2.7800542726440924 0 0 0
570 1 22.91813532911837 16.430088363268677 1.5184892572231323 0 0 0
705 1 25.626623766775097 16.9203203107121 1.2569900354406727 0 0 0
1586 1 46.6680327850344 13.262163240280351 -0.13733406473526288 0 0 1
418 1 30.238601602270116 18.118594049959384 1.2423627903999308 0 0 0
587 1 32.648066687264695 18.732012340241916 -0.07478910445958398 0 0 0
383 1 38.551452924098264 18.495757853147456 2.2356063276347222 0 0 0
2171 1 39.9451618396958 16.330541388821207 1.1954321721822356 0 0 0
1425 1 43.92715413955996 18.221153030402533 2.3072112803414986 0 0 1
361 1 41.846721941928465 16.594366918965 3.124850570737627 0 0 0
1567 1 45.999011997529315 16.64636523330468 2.107920014895824 0 0 1
237 1 47.59796320544232 18.41287262289224 0.3569795775409508 0 0 0
1795 1 49.56675957962577 16.5969938969713 1.109873778153924 0 0 1
331 1 2.3547557924559244 19.96114057078253 0.49772391590924947 0 0 0
429 1 3.089226049554467 20.613127108931298 2.984231937399354 0 0 0
2041 1 18.88793834137496 10.430235545641612 -0.04733189138820704 0 0 1
617 1 9.927277996257459 21.437139891793986 -0.052805302507732965 0 0 0
1779 1 8.53791871523619 20.065192457200894 2.1048412010303377 0 0 1
656 1 17.060026662395483 19.34549200883326 -0.0025919251657444686 0 0 0
2027 1 17.823436594275073 19.58834405405049 2.5373986244947617 0 0 1
1632 1 21.731151820913627 20.779516622761733 1.3903785946226335 0 0 1
296 1 22.293478673863735 18.776386665901846 3.2745951026088154 0 0 0
660 1 26.29782058422849 19.842686315786963 1.117901538712751 0 0 0
378 1 28.856627831645095 20.41265059424562 1.8004839348437955 0 0 0
2575 1 34.37401556626211 19.373398197175838 2.0765428289842993 0 0 0
168 1 38.12402128555584 20.221777756428775 0.14885961583728835 0 0 0
1790 1 35.87413978615785 21.363964337335222 1.0529729749943546 0 0 1
624 1 39.056459672369876 -0.38813278460606937 11.886303793254129 0 0 0
485 1 41.42250743340578 21.797460547242984 2.558863706400585 0 0 0
1880 1 -0.23238688397199891 21.365331222055673 -0.07612269030968599 1 0 1
244 1 48.92164922627731 20.650529855296494 1.4658872750214855 0 0 0
3638 1 0.49882145729448046 23.741085896654322 1.149095980075289 1 0 1
623 1 5.928720361755689 20.826228519943168 2.340758353413663 0 0 0
2492 1 6.279686722421127 23.647698715288303 2.45421383090834 0 0 0
2500 1 10.940078734083873 23.8260122388691 1.2424749593545708 0 0 0
492 1 13.378100231731013 23.341103974678933 2.6175496516309082 0 0 0
1759 1 15.72958268476268 23.062701012723124 1.2686669102134076 0 0 1
1920 1 20.50930864618685 23.064173022681604 2.2840033404493836 0 0 1
519 1 49.14034631725249 14.271087945648636 -0.3687126665095043 0 0 0
2538 1 17.90605403794556 22.24366913392068 2.6240349110574193 0 0 0
1961 1 11.894452199600956 -0.4519904293555923 1.8303340088964104 0 0 1
3707 1 24.5856940321041 21.84711276038704 1.030371209765817 0 0 1
2287 1 2.5647507664824936 24.53743515050029 5.11067018908231 0 0 0
630 1 24.693757523034687 -0.3667308388475815 1.2979084889316896 0 0 0
1967 1 30.205091545551962 10.290712299924314 -0.4673557849443426 0 0 1
4021 1 20.735028948251582 24.473419610060205 -0.013183693098848703 0 0 1
1914 1 37.886394808119476 2.9052566161716515 -0.22031812062255185 0 0 1
559 1 42.47404005029182 24.45392844460098 2.567406102380038 0 0 0
634 1 46.48819323184465 22.345609112952115 0.9588199962271355 -1 0 0
342 1 22.626619643053793 6.883604419389118 0.16621236816956597 0 0 0
80 1 2.185756748047451 1.113890049345204 6.291792217404927 0 0 0
2279 1 5.271083655946537 2.316164799030597 3.581609819992895 0 1 0
12 1 2.9468878154173908 0.8142976443995478 3.3771467195272846 0 0 0
496 1 5.7799438797535405 2.8755227278310596 6.156087412645896 0 0 0
394 1 8.488636701252476 0.04520285706084137 5.243489445817414 1 0 0
477 1 10.950675356249986 0.3861109297243408 5.9984330431772435 0 0 0
324 1 13.542955292173149 0.8392273619138035 3.630182218816044 0 0 0
219 1 15.658202520714976 2.4595782982061163 3.2535775525162904 0 0 0
2578 1 19.24114755870453 0.5631362102812874 4.398986580564336 0 1 0
61 1 21.824186840378157 1.3054743102354782 4.466869411798613 0 0 0
2577 1 27.39455104252831 -0.01407094911910134 5.2970646155246675 0 1 0
2793 1 31.666619643325163 0.45932552164676865 4.2768303004665675 0 1 0
638 1 32.5365726471923 3.2455116089563885 4.5739834184166845 0 0 0
16 1 38.30821383130741 1.6805824051573146 3.9919136339740646 0 0 0
2365 1 36.32811103073062 1.144945580389491 6.038041281811528 0 1 0
43 1 42.39347451128085 1.8292577158501184 4.154965921700048 0 0 0
827 1 49.25570694463889 23.311943222343203 16.328701172700207 -1 0 0
5 1 -0.4803862906033012 0.3092484294396599 6.157977850797861 0 0 0
2532 1 49.81587548220351 -0.1613658128578217 3.336894162822699 0 1 0
2447 1 -0.041477768653488956 5.467839176797886 4.42695546293307 0 1 0
526 1 1.709535127375589 3.979987403170436 6.152044839077732 0 0 0
616 1 8.42268645580736 2.8526526394759557 5.038743465376535 0 0 0
599 1 11.219431206407046 2.4175072561979025 3.9687540760009794 0 0 0
578 1 12.243239225683343 4.889911953537664 4.917868707876741 0 0 0
592 1 16.658921698937437 2.9927179946959894 5.515258208613718 0 0 0
2756 1 18.69448083285445 5.039394870049159 5.427045466308821 0 1 0
185 1 22.654668097817794 3.363020381076794 6.3206865205286835 0 0 0
607 1 22.21291324772 4.714686684166419 2.0803931916163143 0 0 0
95 1 25.7442200782007 4.081821047898532 4.752220228347838 0 0 0
144 1 29.671056527472608 4.058160984502139 3.1128681678880996 0 0 0
121 1 34.4456979948718 3.0834594923313396 6.394851930093165 0 0 0
699 1 35.06041018823626 5.810502918531324 5.808870500176391 0 0 0
3668 1 40.33759909192288 3.4532150060421074 4.665914123881771 0 1 1
267 1 44.343410770627514 3.568090605024703 3.2902421153125077 0 0 0
123 1 46.87786449749388 2.9964030710231526 4.0470345752148456 0 0 0
131 1 48.411201354145085 5.188628332038527 4.8409563822734984 0 0 0
388 1 0.655072764421472 8.162726517169544 4.958665697294323 1 0 0
222 1 5.217323183573223 6.513201730151271 4.430593600071892 1 0 0
1592 1 4.106944166840559 8.830607907568519 4.766301395726289 1 0 1
665 1 7.889553461582887 7.122609117438947 3.405087603504122 1 0 0
55 1 9.020681151173044 8.223677575162837 5.45800874388978 0 0 0
595 1 13.36898890106216 6.168006800389676 2.55626492098343 0 0 0
1794 1 15.264196123312908 8.115176723238738 3.5834537566261053 0 0 1
532 1 17.41087315356732 7.577707479100225 5.168118434685924 0 0 0
677 1 19.328101084613227 9.51526584754834 5.62958042538985 0 0 0
474 1 22.117584662167435 8.466329913778834 5.6070023954483785 0 0 0
424 1 27.600212839047938 5.988320877855113 5.519682575571356 0 0 0
1 1 27.236281669523738 8.360426113533595 3.554125776775604 0 0 0
382 1 34.989654077495956 6.238996289328006 2.9477523000935455 0 0 0
21 1 38.57940780612162 8.767132114463605 6.029031920285335 0 0 0
425 1 43.222495154020756 6.267340626791299 4.296889235646479 0 0 0
536 1 45.113836914792806 8.158125204653066 3.3392036404961 0 0 0
458 1 47.733010088808506 7.590838129911482 3.5218778239919803 -1 0 0
343 1 5.837496382679572 11.977766929840001 4.52441817863044 0 0 0
87 1 11.006777569760242 9.996700551706864 4.354551130437878 0 0 0
306 1 13.690509061095756 9.672973613025913 5.285262439787672 0 0 0
333 1 16.8741073849599 11.364849312528584 2.271498115632298 0 0 0
687 1 14.39463140667833 12.251044446518062 5.363640270777018 0 0 0
239 1 19.503729211897472 10.952488106275492 3.2585658994624684 0 0 0
431 1 23.927106114428252 10.48871987761955 5.6380501785765365 0 0 0
1667 1 23.593429907909258 11.193882757685317 2.929752445109169 0 0 1
1501 1 26.8306212173916 9.95302770101588 5.869400889056494 0 0 1
266 1 30.138761026172798 11.636250738749128 3.420541915636587 0 0 0
51 1 32.42927487688145 10.01432536520324 4.212877415450947 0 0 0
183 1 34.99401387140269 11.308579867986456 3.7909749457737476 0 0 0
488 1 37.23442937610617 11.137246482882482 5.647742811193442 0 0 0
463 1 41.433329423421995 11.990952722855654 3.598115496234848 0 0 0
255 1 42.33741764642952 10.971236724020354 6.0388589405876765 0 0 0
47 1 44.66673296577908 10.27499481285041 5.067225757271279 0 0 0
191 1 49.42910710050012 9.14655378871482 4.873398956541646 -1 0 0
2020 1 49.1901909834736 11.431976477471858 3.5089909542220292 -1 0 1
471 1 -0.3954343749877808 13.628339587167117 4.814247044165034 1 0 0
609 1 2.0505068195047778 14.419374838511384 5.449368816840602 1 0 0
439 1 8.376951241836064 13.150595068658964 3.9442445438320473 0 0 0
302 1 10.050917934642559 12.17470070988858 5.793609464820911 0 0 0
376 1 12.338005582936708 13.741784109975255 6.156099808078138 0 0 0
479 1 20.555973863510747 13.549126031516977 3.764272047059012 0 0 0
1916 1 25.981163883823644 13.927463549484791 4.156931721095669 0 0 1
50 1 33.82747895747721 14.088431320338584 3.7583736203808265 0 0 0
645 1 38.9386675340979 13.046239799248232 4.831392889834681 0 0 0
594 1 46.35888969831709 12.242842414644569 4.101282064898556 0 0 0
54 1 46.28789040432137 14.290299144814531 5.789503221414199 0 0 0
684 1 2.021633684985049 18.16488375902798 4.029668678271026 0 0 0
91 1 -0.39747387411212204 17.991806692578066 5.037818602880622 1 0 0
648 1 3.1188739176674853 15.480042048083448 3.182349541401031 0 0 0
33 1 5.9032013370679675 16.433812830056954 3.353738116666717 0 0 0
136 1 7.6228067056477276 15.346177084206886 5.438391871051694 0 0 0
170 1 9.199288932227779 17.65806660403587 5.530843694983049 0 0 0
1815 1 9.141085938621574 17.443209786114206 2.730667599615095 0 0 1
615 1 12.735433021025246 16.149016864983313 4.669336766593773 0 0 0
1866 1 15.596447006632228 16.81488268913844 4.56781531131956 0 0 1
501 1 19.69243608060157 17.95950886745277 3.963165487341234 0 0 0
554 1 23.332081284152643 14.360726727413578 3.485952559186762 0 0 0
1945 1 27.111674051295903 16.566415977525388 3.6078221960876755 0 0 1
1780 1 30.011962108044894 16.320387209460705 3.3386915446080816 0 0 1
460 1 30.896488662857077 17.13683035274482 5.853810064469992 0 0 0
348 1 33.42639561570883 16.14359317250545 5.829395757205791 0 0 0
1416 1 36.17375576960454 17.760524306103363 3.274656857507295 0 0 1
231 1 41.5680842933887 16.689789866051054 5.916246068595504 0 0 0
175 1 47.338735185326364 16.623536238246466 4.556151915562281 0 0 0
339 1 49.874553833065235 15.869851350156612 3.9322168622478806 0 0 0
622 1 5.453684363949287 18.852037731098267 4.582921233159966 0 0 0
297 1 7.660565911239386 19.4040220522766 6.3394300509030685 0 0 0
1969 1 11.752764875563125 20.551241797619493 5.467825079853142 0 0 1
1544 1 13.246967349657591 20.570840851415948 3.18454012259517 0 0 1
422 1 15.508572591943153 19.59672510716682 4.164960701278808 0 0 0
417 1 24.18474074031703 20.12235588151003 4.746716331362767 0 0 0
188 1 26.775970143504814 18.815789513993266 5.263237235252296 0 0 0
177 1 28.81331968842646 20.906843843169632 4.756756903185173 0 0 0
6 1 30.98723521655654 19.91330270545288 5.667111880272076 0 0 0
2217 1 33.34710881977517 20.392415815633875 4.653564430666023 0 0 0
151 1 39.62192855556065 20.46601196745006 3.9811457046751206 0 0 0
357 1 42.05597686076 20.15888422967092 5.587607854046185 0 0 0
550 1 44.521358561535024 20.2095760369284 4.3164558870008864 0 0 0
325 1 46.82774082785087 19.280541449872185 5.4181781861934155 -1 0 0
2116 1 49.242888821842044 20.055716194521487 4.040621118486232 -1 0 0
344 1 1.5975173201983481 22.836268899519013 3.4421118062523526 0 0 0
923 1 48.17794168705717 23.954951364127847 13.663500804988434 0 0 0
2413 1 5.6487465973203514 22.577055195250615 6.806921403629462 0 0 0
2470 1 5.2458184621040935 24.644683853911953 5.136108087226704 0 0 0
62 1 8.913731409624567 23.957299963691035 3.150611687496804 0 0 0
2167 1 9.03539260202281 21.214214843850957 4.523371351118517 0 0 0
2059 1 16.581387366087846 5.363134829197946 -0.055559192257745305 0 0 1
668 1 17.72273048450293 22.88228902795147 5.188943105295235 0 0 0
2411 1 21.740444841561597 23.89172337118496 4.460264007111238 0 0 0
2633 1 25.819375529497936 24.427172133425607 4.959405633804732 0 0 0
104 1 24.147841602182194 22.695725021139587 3.66979591704966 0 0 0
253 1 27.733886894051313 22.967083480429466 6.191235899964098 0 0 0
2112 1 30.261294670174976 23.002242522968892 3.4921547155181596 0 0 0
2 1 32.85836827775725 22.91612667160643 4.072782576176727 0 0 0
529 1 36.433300329778966 23.321977280728778 2.9650179004013797 0 0 0
2567 1 38.128488983087195 22.61316724182316 5.045637107452984 0 0 0
2710 1 45.35687214571253 23.27269765972891 12.897222893199507 0 0 0
508 1 45.735688273175256 22.957541176332445 3.7373600114717007 0 0 0
443 1 50.52677080726983 22.476098221151265 4.788475339773515 0 0 0
1649 1 48.3519810864913 24.626774590980943 4.445551039978707 0 0 1
525 1 4.90212941535123 1.1023618102206685 7.81818585479248 1 0 0
2717 1 11.028359245115286 2.0429909793521905 8.363611694637166 0 1 0
372 1 44.78865434996201 -0.19503536702943652 6.130864994959733 0 0 0
1972 1 18.65701959869754 1.0112497635047104 7.105564835085786 0 0 1
287 1 43.13949073939845 24.714366623071673 13.118004282925266 0 0 0
2811 1 24.002394224345753 1.1339194858863415 7.94032879664179 0 1 0
433 1 26.379657218605534 2.175882238410489 6.606809286345633 0 0 0
202 1 30.179697479557458 1.4992149959700187 8.409233596261883 0 0 0
2707 1 34.148074970108986 -0.20431405822893806 9.300136480819864 0 1 0
567 1 32.68109688417633 2.068370730379211 8.575662916851503 0 0 0
2630 1 36.617001192169525 0.878782378163661 8.665824878780997 0 1 0
358 1 42.44588693815296 1.0470575747126798 6.9956325888399755 0 0 0
35 1 46.59104796752998 1.6737313860881686 6.2981098009734415 0 0 0
2561 1 48.74622025349269 1.1929090993045688 7.931385430649206 0 1 0
395 1 0.9098488388273027 4.393470738666567 8.665676647118826 1 0 0
540 1 4.195974622864778 4.972650025541712 6.493019005247629 0 0 0
18 1 7.5592756196991004 4.14840560408002 9.636058696068856 0 0 0
193 1 9.108767363243215 3.8137851748880083 7.482624524358711 0 0 0
264 1 13.416780390206137 3.1138628722622226 9.16192588026266 0 0 0
493 1 14.423837509080395 4.1504548072134835 6.413214660956012 0 0 0
283 1 19.27720713510552 3.1146094782336076 8.889118037056615 0 0 0
179 1 20.645024461205942 4.658898644217838 7.290417532355161 0 0 0
2068 1 23.55216968237868 6.053330110424928 4.548507073072696 0 0 1
197 1 28.640665105679386 3.5466677144920347 7.702505161315257 0 0 0
58 1 30.4051869535685 4.909860683649148 5.707161591357324 0 0 0
9 1 37.20365824736125 3.213613447725332 10.099939099752829 0 0 0
663 1 38.76747334452596 5.017663061411001 8.714711967206208 0 0 0
353 1 41.03583900119212 4.4788258184217185 7.173158469671506 0 0 0
472 1 42.761567945578285 3.0797292150571174 8.698514012267692 0 0 0
2201 1 45.541529632614264 3.718174809915335 8.355602131584893 -1 1 0
502 1 49.62294200156021 3.6023865977678495 9.060162664062881 -1 0 0
359 1 47.80264880823371 5.468191510361276 7.607654838193373 0 0 0
154 1 0.9366557929859578 7.242247804155995 8.894055765671014 0 0 0
409 1 2.1469704498527586 9.066570211952667 7.072150240305127 0 0 0
39 1 5.355559459334622 6.362312037594744 8.827848594617938 0 0 0
323 1 4.750077794920411 9.21860721642225 8.220539484434697 0 0 0
2345 1 10.590025353038122 6.074173396032795 6.9747482632611915 0 1 0
572 1 11.547329415959283 7.431994996997464 9.150605808038003 0 0 0
421 1 13.989607446437628 8.29285803527002 7.954456968327884 0 0 0
22 1 15.898876648545315 6.477940582500645 7.178971657345567 0 0 0
2768 1 21.835099248037807 7.258429099346622 8.31773987795276 0 1 0
115 1 24.661088675021592 7.7981345428318996 9.00554060327944 0 0 0
576 1 27.182243957091412 8.02336855215945 7.753670523603086 0 0 0
469 1 32.45496369009398 6.709735978280774 6.43958349301399 0 0 0
435 1 32.97556432330968 6.544190881346275 9.223171395208347 0 0 0
271 1 35.32190123569031 7.561252138066694 9.75488457027944 0 0 0
69 1 36.9788611799338 6.842319509890876 7.424658290038877 0 0 0
511 1 41.0542951456361 8.862706327303282 7.066738773732288 0 0 0
140 1 42.59549060852729 6.684665974871618 6.9724821490590045 0 0 0
450 1 45.32465754878036 7.037653566755129 7.897993314379285 0 0 0
494 1 49.34394499591491 7.467834132551497 8.971196019208877 -1 0 0
127 1 1.6642281496836238 11.881229803933044 7.655594580227044 0 0 0
221 1 4.730361958849414 11.751407914984556 9.269374082149687 0 0 0
466 1 6.802926840672533 9.912331215458266 6.417638693018372 0 0 0
48 1 8.77015788268037 11.234179906019044 7.974162279311896 0 0 0
135 1 15.208062047864496 10.57675746509275 8.946694281367465 0 0 0
225 1 19.182181409100856 11.757179452248014 7.566917594937637 0 0 0
534 1 28.878685156843115 11.706689943413636 5.9308290564574895 0 0 0
620 1 29.15419810534067 9.128565864935187 9.333039639071531 0 0 0
303 1 30.46932214928261 11.131247165223183 7.854978375631953 0 0 0
662 1 32.40041592489095 9.652696754518322 6.962282719583343 0 0 0
489 1 34.37982777763352 10.148946666527497 9.079495223112593 0 0 0
29 1 36.571342895817885 11.69647762391901 8.200235180194944 0 0 0
337 1 40.59920504942461 9.21897465098688 9.616703654206264 0 0 0
391 1 39.00508190174759 11.39808053711334 9.933477030896748 0 0 0
332 1 45.84206451245412 9.62341316893799 7.503456467067686 0 0 0
405 1 44.76647872658108 11.315711833620846 9.60125854129662 0 0 0
415 1 48.611475178911775 9.79736112726185 7.384164828004632 -1 0 0
398 1 4.275517913624979 12.920018642106465 6.5059198046402065 0 0 0
633 1 7.524970543602787 13.259725219948251 9.290726549199285 0 0 0
81 1 6.060497722942918 14.816618938165472 7.606073478423275 0 0 0
476 1 13.268790487521517 14.36345005429402 8.658272865982115 0 0 0
272 1 16.587275160353816 12.454543605652379 7.185238658450409 0 0 0
178 1 15.963534762155412 14.778046946159535 8.564780570672673 0 0 0
130 1 21.10832030686968 13.557941900871267 6.3949708692893275 0 0 0
452 1 23.399519013636347 12.418473624891543 7.4423945523958235 0 0 0
338 1 25.236271058769297 14.368302377967932 6.690938337998826 0 0 0
585 1 27.866294859203176 14.07180491045233 7.279440556418104 0 0 0
568 1 33.383086653344584 15.034966697468246 8.399356328922519 0 0 0
531 1 35.943805369235484 14.208583183721723 8.90179871666414 0 0 0
1423 1 39.89218459709667 14.667109492071956 6.723755028797447 0 0 1
636 1 40.83664640946982 13.24221757080633 9.130594178883863 0 0 0
346 1 43.04637639375587 12.63726043084318 7.988119950484341 0 0 0
1487 1 43.792081853557704 14.739317022493484 6.617043207719732 0 0 1
37 1 47.78627626382015 14.107121575665493 8.07315258220844 0 0 0
139 1 50.30132563078463 12.375610656639047 7.2563784803905325 -1 0 0
381 1 50.333508331269954 13.91081097299114 9.883725658266812 0 0 0
2230 1 2.2409470037521313 16.146115196451163 7.653593427460434 0 0 0
2054 1 -0.3768086905669231 17.54596064235677 7.665938230242675 0 0 1
490 1 5.25595704838496 17.237018147753204 8.228788477308646 1 0 0
2761 1 3.4569738104076277 18.487384180109174 6.390175672292909 1 0 0
31 1 11.586140982962114 18.077964166243508 6.574460202855064 0 0 0
672 1 10.83729120977302 18.335116539098117 9.10724450178979 0 0 0
155 1 16.670749471164278 16.89807675675546 7.1206535575338155 0 0 0
625 1 19.310172042005505 17.645362969970066 6.492127143711451 0 0 0
90 1 20.773619027036098 15.906005309866586 7.916826849991491 0 0 0
317 1 23.543551267863183 16.97524689715346 7.395639994160637 0 0 0
230 1 27.377876327785863 18.315586815656506 8.185678288317261 0 0 0
1726 1 29.182511257034946 16.248142853518104 8.007461707979719 0 0 1
419 1 35.96908530359058 17.641687912386526 5.985870122474403 0 0 0
101 1 37.775126814360355 15.939000020081235 7.629903838038857 0 0 0
40 1 39.33407233821693 17.903480191032926 8.869618930826102 0 0 0
277 1 44.51500178842346 16.720585387769315 8.343577711757808 0 0 0
666 1 48.429235442975425 16.805519202795907 8.809782207424547 0 0 0
2591 1 0.2621666916635915 19.953334551752477 8.666238866129651 0 0 0
356 1 3.0338771203742754 20.819902078010877 7.888223866547667 0 0 0
2755 1 6.887736310510782 19.417807089078902 8.934640747451459 0 0 0
457 1 13.24055279581905 21.910794263809528 7.4360015759756966 0 0 0
365 1 15.650925213334194 21.185246677770852 6.403383296434771 0 0 0
1877 1 16.386296200122178 19.362627478772747 8.278200520456151 0 0 1
533 1 18.86894149493073 20.358366788367395 9.599635980454904 0 0 0
114 1 20.493746714283375 19.959540956194047 7.375269530321203 0 0 0
1712 1 23.3772855728976 19.670343493768893 7.351408468866234 0 0 1
2361 1 24.724578174878253 21.55193366842983 8.989359289492398 0 0 0
2307 1 28.919303513774413 20.46861597758221 9.085515762065828 0 0 0
270 1 31.025848782119898 21.11040334511831 7.99375112397065 0 0 0
384 1 34.77814919018292 19.915982973403437 7.030886889420726 0 0 0
176 1 32.87740856977361 19.474818444191296 9.189096263926324 0 0 0
119 1 36.46462853754144 21.925177225507756 7.224245444462211 0 0 0
669 1 42.21167996967762 18.39079307902832 8.14841125846741 0 0 0
2728 1 46.85917107974313 22.233051496585297 6.328002510898854 -1 0 0
199 1 46.5027267926205 18.442164341722975 8.064694591364615 0 0 0
2188 1 0.3420227482245526 24.581762948386267 8.764244193919401 0 0 0
2409 1 2.636354957012321 23.670527988274504 7.739420884842934 0 0 0
2439 1 8.351071794704621 22.732718479498914 6.863051826985019 0 0 0
227 1 7.398685651621804 0.7966506309691732 16.439756156407658 0 0 0
186 1 12.66155711307591 24.47125390135484 6.988353716296092 0 0 0
49 1 16.21139787385045 23.640347430666083 8.46043509721272 0 0 0
2709 1 20.185170104764353 22.629763203670706 6.489472599219529 0 0 0
1015 1 20.7577660166429 23.698081086781684 8.815804343451013 0 0 0
442 1 23.347564413489916 23.8631737376003 9.271536728636335 0 0 0
512 1 27.258149545591905 22.53317132391644 8.87328175691494 0 0 0
428 1 42.59901566263043 22.605857631556464 15.004265217317633 0 0 0
329 1 31.344213270904596 24.104778581516285 7.8965079974743855 0 0 0
102 1 33.122529389668266 24.753858479848134 5.968624032406328 0 0 0
2328 1 35.57502493032537 24.4862734472135 7.955918896806624 0 0 0
24 1 13.6376301764054 1.7577117343622426 15.827353543747737 0 0 0
3789 1 40.086209918141265 24.469741938262615 6.3409481714701235 0 0 1
2246 1 41.837239321633156 22.48263261844525 6.928503457901317 0 0 0
275 1 44.25981569634189 22.727359871808186 7.910220969206508 0 0 0
2805 1 50.499471426046796 22.263288184391232 7.599542968401444 -1 0 0
2164 1 48.33177729241295 22.58033882305284 9.005640334444651 0 0 0
3150 1 3.1738538918420303 1.1869082289020527 13.314397004261838 0 1 0
2436 1 5.782022183021489 0.8406496055461354 12.175130790673885 0 1 0
632 1 10.328689416772159 0.3672542300016781 10.60819850510578 0 0 0
1310 1 9.869533510576161 1.5852318878197003 13.17870125111201 0 0 0
641 1 14.942888939249162 1.1859298432394538 10.251495512055856 0 0 0
2189 1 16.6136371810773 0.333110103553631 12.613974637379982 0 1 0
558 1 20.827531634358667 2.2669390639373 11.178126760189274 0 0 0
456 1 46.77845627904288 10.60235176459857 -0.38012677425022806 0 0 0
96 1 25.222503538469695 -0.4486045993645734 10.119881229045996 0 0 0
94 1 26.63734905672403 1.6164522406199247 11.374633323050489 0 0 0
2481 1 29.06929082460216 0.32829902378284825 10.840994342531403 0 1 0
2722 1 31.100939204183778 0.8588663733956923 12.499058865079332 0 1 0