
# Define the lattice
#
variable	    lattice_constant equal 6.36339
lattice		    diamond ${lattice_constant}
lattice		    diamond 6.36339
Lattice spacing in x,y,z = 6.3633900 6.3633900 6.3633900

# Define region
# multiples of lattice spacing
#
region 		    simbox block 0 8 0 8 0 8

# Create Atoms
#
create_box          1 simbox
Created orthogonal box = (0.0000000 0.0000000 0.0000000) to (50.907120 50.907120 50.907120)
  1 by 2 by 3 MPI processor grid
create_atoms        1 box
Created 4096 atoms
  create_atoms CPU = 0.000 seconds
mass                1 18.15

# Define potential
#
pair_style          sw
pair_coeff          * * ML_mW.sw mW
Reading sw potential file ML_mW.sw with DATE: 2019-02-27

# Add velocity/set timestep
#
velocity            all create ${TEMP} 120598 rot yes dist gaussian
velocity            all create 298 120598 rot yes dist gaussian
timestep            5.0

# Define output
#
compute	            1 all msd
thermo              100
thermo_style        custom step temp press vol etotal ke pe c_1[4]

# Neighbor lists
#
neigh_modify        delay 0 every 1 check yes

# Set fixes
#
fix                 1 all momentum 10 linear 1 1 1 rescale
fix                 2 all nve
fix                 3 all temp/csvr ${TEMP} ${TEMP} 500.0 928347
fix                 3 all temp/csvr 298 ${TEMP} 500.0 928347
fix                 3 all temp/csvr 298 298 500.0 928347
fix                 4 all press/berendsen iso ${PRES} ${PRES} 1000.0 modulus 20000
fix                 4 all press/berendsen iso -1000 ${PRES} 1000.0 modulus 20000
fix                 4 all press/berendsen iso -1000 -1000 1000.0 modulus 20000

# Run 0.5 ns equilibration
#
dump		    1 all custom 1000 eq.${NAME}.dump id type x y z vx vy vz
dump		    1 all custom 1000 eq.ice_298K_1000atm_ML.dump id type x y z vx vy vz
run                 100000
Neighbor list info ...
  update every 1 steps, delay 0 steps, check yes
  max neighbors/atom: 2000, page size: 100000
  master list distance cutoff = 6.0032907
  ghost atom cutoff = 6.0032907
  binsize = 3.0016454, bins = 17 17 17
  1 neighbor lists, perpetual/occasional/extra = 1 0 0
  (1) pair sw, perpetual
      attributes: full, newton on
      pair build: full/bin/atomonly
      stencil: full/bin/3d
      bin: standard
Per MPI rank memory allocation (min/avg/max) = 4.800 | 4.800 | 4.801 Mbytes
Step Temp Press Volume TotEng KinEng PotEng c_1[4] 
       0          298   -601.91163    131927.58   -46048.874    3637.5123   -49686.386            0 
     100    206.49302   -849.05063    132410.18   -44558.349    2520.5399   -47078.889   0.10401987 
     200     238.1169    -927.6809    132718.17   -43671.772    2906.5542   -46578.326   0.11624244 
     300    253.40476   -961.87409     132875.5   -43088.686    3093.1642    -46181.85   0.14645805 
     400    263.21396   -1092.6471    133009.54   -42740.222    3212.8994   -45953.122   0.15564813 
     500    290.82684   -1004.2464    133142.94   -42489.239    3549.9537   -46039.193   0.13933165 
     600    290.72893   -1016.2265    133201.02   -42202.761    3548.7585    -45751.52   0.17470402 
     700     300.6497   -892.66342    133262.39   -42161.874    3669.8557    -45831.73   0.15375258 
     800    298.17247   -942.16738    133247.71   -42058.874    3639.6176   -45698.491   0.16953722 
     900    299.28471   -1024.1598    133273.86   -42050.908    3653.1941   -45704.102   0.17585469 
    1000    294.66895   -882.73611       133238   -42112.398    3596.8521    -45709.25   0.14080561 
    1100    297.12601   -950.52064    133285.68   -42059.747     3626.844   -45686.591    0.1682072 
    1200    294.50586   -989.33153    133255.69   -42030.393    3594.8614   -45625.254   0.15732542 
    1300      298.347   -1034.4424    133306.17   -41972.413    3641.7479   -45614.161   0.17370202 
    1400    299.61555   -999.54002    133278.47   -42033.284    3657.2324   -45690.517   0.16711686 
    1500    299.60092   -960.89231    133278.46   -42098.762    3657.0539   -45755.816   0.14328204 
    1600    293.62203   -1051.9925    133287.03   -42046.759     3584.073   -45630.832   0.17656119 
    1700     292.6188   -921.77279    133255.51   -42058.037    3571.8271   -45629.864    0.1529596 
    1800    295.16548    -967.5923    133269.05   -42015.134     3602.913   -45618.047   0.17875386 
    1900    312.62927   -955.27512    133327.27   -41955.601    3816.0833   -45771.685   0.15673201 
    2000     305.7604   -986.02725    133327.89   -41907.419     3732.239   -45639.658   0.16592176 
    2100     297.6969   -985.39128    133311.83   -42064.711    3633.8126   -45698.524    0.1678057 
    2200    295.04337   -1017.4622    133291.39   -42004.926    3601.4225   -45606.349   0.17353636 
    2300    298.55853   -990.83057     133328.5    -41957.35    3644.3299    -45601.68   0.17543595 
    2400    299.78888   -974.44282    133359.39   -41992.948    3659.3481   -45652.296   0.16523144 
    2500    297.54661    -1009.578    133320.93   -42011.015    3631.9781   -45642.993   0.15646256 
    2600      300.242   -989.48546    133319.32   -42046.894    3664.8791   -45711.773   0.16413455 
    2700    296.20626   -969.75882    133305.43   -42037.688    3615.6172   -45653.305   0.14992198 
    2800    304.28718   -982.96352    133314.13    -41945.16    3714.2562   -45659.417   0.17314424 
    2900    309.06443   -990.60305    133329.54   -41949.588    3772.5693   -45722.158   0.16096566 
    3000    300.82749   -1008.0875    133299.38   -42003.605    3672.0259   -45675.631   0.16774053 
    3100    297.71148   -965.39836    133293.13   -41970.205    3633.9905   -45604.196   0.17744139 
    3200    296.20425   -995.05883    133286.81   -42067.493    3615.5926   -45683.086   0.16243725 
    3300    295.79183   -1039.7571    133244.92   -42165.869    3610.5584   -45776.427   0.17819492 
    3400    299.79454   -958.61133    133294.42   -42094.411    3659.4172   -45753.829   0.15082398 
    3500    295.74076    -1001.099    133307.98   -42061.865    3609.9351     -45671.8   0.16725424 
    3600    297.86414   -972.94721    133319.69    -42064.15    3635.8539   -45700.004   0.16010742 
    3700    299.94912   -993.48627    133306.01   -42020.282    3661.3041   -45681.586   0.16913194 
    3800    294.72039   -1017.7157     133294.4   -42005.024      3597.48   -45602.504   0.17419846 
    3900    295.95925     -997.724    133315.16   -42013.335    3612.6021   -45625.937    0.1686888 
    4000    300.51849   -951.89617    133295.74    -42058.86     3668.254   -45727.114   0.15579704 
    4100    299.39114   -942.96809    133302.56   -42073.697    3654.4932    -45728.19    0.1647178 
    4200    296.66355   -1004.6029     133293.3   -42030.157    3621.1991   -45651.356   0.16410923 
    4300    286.75318   -1030.9206    133244.66   -42154.414     3500.229   -45654.643   0.17703497 
    4400    299.19203   -997.71467     133275.8   -42048.248    3652.0628   -45700.311   0.16330125 
    4500    295.97779   -997.16549    133264.54   -42109.875    3612.8284   -45722.703   0.16641274 
    4600    293.23109   -989.93346    133247.59   -42133.278     3579.301   -45712.579   0.16159516 
    4700    295.23902   -1009.2223       133266   -42039.923    3603.8106   -45643.734   0.17284562 
    4800    301.89041   -989.07214    133298.56    -41946.87    3685.0003    -45631.87   0.17393332 
    4900    301.90909   -1000.2686     133330.7   -41915.964    3685.2283   -45601.192   0.17196501 
    5000    294.31004   -1012.3511    133305.31   -42045.918    3592.4712   -45638.389    0.1654198 
    5100    302.51701   -982.56627    133291.94   -41968.055    3692.6488   -45660.703   0.15829124 
    5200     299.8546   -976.86558    133285.97   -42040.013    3660.1503   -45700.163   0.16987154 
    5300    298.15618   -976.39696    133267.74   -42138.986    3639.4188   -45778.404    0.1540756 
    5400    289.61061   -1014.0879    133247.36   -42106.929    3535.1079   -45642.037   0.17375122 
    5500    300.68488    -988.1788    133256.85   -42073.325    3670.2851    -45743.61   0.15470396 
    5600    292.62787   -1010.2737    133242.15    -42102.04    3571.9379   -45673.977    0.1679049 
    5700    284.89325   -1048.3357    133279.73   -42099.012    3477.5259   -45576.538   0.17395795 
    5800     295.3706   -1006.9277    133263.24   -42041.703    3605.4168    -45647.12    0.1741109 
    5900    294.01165   -988.09325    133276.21   -42119.154    3588.8288   -45707.983   0.16512967 
    6000    298.35372     -986.001    133269.76    -42098.04    3641.8299    -45739.87   0.16191509 
    6100    291.73655   -1006.0371    133233.09   -42164.042     3561.058     -45725.1   0.15687495 
    6200     295.0501   -1005.2212    133243.22   -42152.811    3601.5046   -45754.315   0.17470155 
    6300    298.19382   -985.65588    133284.34   -42030.498    3639.8782   -45670.376   0.16043713 
    6400    297.10799   -991.79616    133295.65    -42091.54    3626.6241   -45718.165   0.16805881 
    6500    298.82848   -979.00178     133258.4   -42095.983    3647.6251   -45743.608   0.16240393 
    6600    295.52751   -987.50917     133230.4   -42100.379    3607.3321   -45707.711   0.16476554 
    6700     290.3814   -992.28141     133226.3   -42156.363    3544.5164    -45700.88   0.17417764 
    6800    298.99849   -1010.1205    133216.65   -42110.232    3649.7003   -45759.932   0.15654833 
    6900    300.18618   -1008.7289    133253.51   -42037.313    3664.1977    -45701.51   0.16596167 
    7000    301.95686   -975.44042    133260.51    -42031.74    3685.8114   -45717.552   0.16318777 
    7100    298.42133   -969.82238    133232.66   -42037.486    3642.6552   -45680.142   0.16661174 
    7200    288.40262   -1020.7616    133233.27   -42150.684    3520.3627   -45671.046   0.17039363 
    7300    290.25948   -1018.5891    133217.62   -42200.381    3543.0283   -45743.409   0.16695837 
    7400    299.99914    -983.9224    133267.87   -42091.129    3661.9147   -45753.043   0.15559013 
    7500    301.68969   -961.17526    133288.32   -42028.923    3682.5502   -45711.474   0.17169954 
    7600    303.99201   -998.36709    133280.41    -42002.77    3710.6532   -45713.423    0.1535707 
    7700    291.22574    -985.9598    133290.66   -42101.291    3554.8229   -45656.114   0.17628109 
    7800    296.02298    -1013.717    133279.12   -42155.042      3613.38   -45768.422   0.15509059 
    7900    295.83814   -994.83327    133296.22   -42101.016    3611.1237    -45712.14   0.15892492 
    8000    301.68159   -988.86892    133319.35   -42000.668    3682.4513   -45683.119   0.16499723 
    8100    303.21417   -994.35128    133343.29   -41969.849    3701.1586   -45671.008   0.15766081 
    8200    304.37266   -999.79274     133348.3   -41993.833    3715.2997   -45709.133   0.16917788 
    8300    305.43782   -998.69195    133348.52   -41950.509    3728.3014    -45678.81   0.16413882 
    8400    303.88176   -1019.7252    133378.99   -41934.341    3709.3075   -45643.649   0.15655561 
    8500    297.91511   -1011.9921    133330.37   -42016.667    3636.4761   -45653.144   0.17222049 
    8600    301.04668   -999.55441     133313.5   -42037.709    3674.7013    -45712.41   0.15670183 
    8700    298.32402   -1011.7232    133304.58    -42007.44    3641.4674   -45648.907   0.17056859 
    8800    297.79827   -1010.8748    133332.27   -42047.866      3635.05   -45682.916   0.16849458 
    8900    297.42593   -1021.8086    133317.88   -42111.829     3630.505   -45742.334   0.15095527 
    9000    297.12687   -984.73683    133305.71   -42032.115    3626.8546    -45658.97   0.17725915 
    9100    296.76518   -980.84493    133306.18   -42086.241    3622.4396   -45708.681    0.1485068 
    9200     298.2543   -982.13654    133325.17   -41980.942    3640.6164   -45621.558   0.16851485 
    9300    294.02456   -995.08611    133330.61   -42129.229    3588.9864   -45718.215   0.15487822 
    9400    297.65008   -992.89158    133332.32   -42093.853    3633.2411   -45727.094   0.15232307 
    9500     299.5211   -984.49343       133315   -42135.331    3656.0795   -45791.411   0.15839344 
    9600    299.56686   -966.39546       133311   -42125.812     3656.638    -45782.45   0.14775724 
    9700     298.2186   -966.68365     133324.4   -42000.231    3640.1807   -45640.411   0.15936656 
    9800    298.70565   -1032.5545    133356.47   -41964.664    3646.1257   -45610.789   0.17339909 
    9900    297.76965   -1019.7375    133336.88   -41988.065    3634.7006   -45622.766   0.15623562 
   10000    297.39953   -1000.6412    133314.65   -42045.056    3630.1827   -45675.239   0.17246803 
   10100    298.55706   -989.97941    133325.45   -41992.646     3644.312   -45636.958   0.15666471 
   10200    298.11017   -1004.7017    133353.89   -41963.591    3638.8571   -45602.448   0.16977966 
   10300    303.96894   -1024.9802    133381.36   -41965.639    3710.3717   -45676.011   0.16498639 
   10400    302.96196   -1005.5025    133340.66   -41958.189      3698.08   -45656.269   0.15407142 
   10500    296.70854   -958.14515    133332.48   -42003.613    3621.7483   -45625.361     0.160545 
   10600    303.13122   -1009.0514    133342.38    -42031.86    3700.1461   -45732.006    0.1522458 
   10700    295.39664   -987.94295    133309.96   -42064.976    3605.7346   -45670.711   0.16499851 
   10800    294.77569   -1030.0043    133318.78   -42192.008    3598.1551   -45790.163   0.15918862 
   10900     292.5633   -1005.4036     133306.6   -42178.923    3571.1497   -45750.073   0.15583596 
   11000    291.52337   -1009.3896    133282.21   -42179.882    3558.4559   -45738.337   0.15523193 
   11100    297.11292   -1012.5862    133318.73   -42100.349    3626.6843   -45727.033   0.16036325 
   11200    293.30415   -1001.6009    133312.59   -42193.467    3580.1928    -45773.66    0.1537278 
   11300    295.60588   -1019.5471    133315.56   -42117.918    3608.2887   -45726.207   0.16416858 
   11400    290.31853   -988.16123    133330.94   -42095.098    3543.7491   -45638.847   0.15883645 
   11500    298.08656   -1002.7668    133359.58   -41991.064    3638.5689   -45629.633   0.16346994 
   11600    305.67046   -1040.0765    133365.58   -41997.712    3731.1411   -45728.853   0.15981051 
   11700    303.21647   -1016.2807    133383.53   -41864.439    3701.1867   -45565.626   0.17100972 
   11800    305.06105   -1017.3708    133381.69   -41953.781    3723.7025   -45677.484   0.15687171 
   11900    302.87204   -1017.4997    133340.97   -42001.696    3696.9825   -45698.679   0.16099744 
   12000    307.78258   -953.22256     133356.7   -41942.313    3756.9226   -45699.235   0.14576099 
   12100    296.33292   -1027.7884    133348.94   -42016.799    3617.1632   -45633.963   0.16777433 
   12200    298.00111   -1026.8308    133331.75   -42006.691    3637.5259   -45644.216   0.16803767 
   12300     294.3224   -978.76873     133329.8   -42067.721     3592.622   -45660.343   0.16115543 
   12400    296.50907   -1012.0919    133325.99   -42024.888    3619.3134   -45644.201   0.16988342 
   12500    306.90688   -1004.7968    133343.73   -41966.621    3746.2335   -45712.855   0.15349678 
   12600    305.18685   -1022.9806    133346.12   -41964.897     3725.238   -45690.135   0.17573753 
   12700    302.70925   -995.82315    133333.75   -41997.441    3694.9954   -45692.436   0.16456484 
   12800    297.21391   -1009.9894    133330.17   -42026.089     3627.917   -45654.006   0.16185271 
   12900    302.40045   -995.93345    133326.72   -42072.532     3691.226   -45763.758   0.15967823 
   13000    296.00831   -1022.0907     133328.1   -42062.643    3613.2009   -45675.844   0.15175004 
   13100    299.81301   -1029.4118    133286.86   -42089.944    3659.6427   -45749.587    0.1674158 
   13200    291.22856   -1026.9454    133266.22   -42134.536    3554.8573   -45689.393   0.16812809 
   13300    292.05114   -985.57416    133270.45   -42190.409     3564.898   -45755.307    0.1490732 
   13400    292.63209   -1011.0696    133235.29   -42233.871    3571.9894    -45805.86   0.16997691 
   13500     297.8891   -983.46867    133260.75   -42109.433    3636.1586   -45745.592   0.14934897 
   13600      296.117   -1018.7034    133257.56   -42086.603    3614.5276   -45701.131   0.17510883 
   13700    296.40849   -1013.9269    133255.91    -42099.42    3618.0856   -45717.506     0.159201 
   13800    298.77311   -1008.6807    133276.73    -42060.84    3646.9492   -45707.789   0.16153073 
   13900    298.41529   -1030.4209    133291.55   -42020.491    3642.5816   -45663.073   0.17291601 
   14000    300.49192   -990.73421    133325.88   -41925.394    3667.9298   -45593.324   0.15956406 
   14100    296.03715   -1018.0541    133310.83    -42018.09    3613.5529   -45631.643   0.17626666 
   14200    300.87608   -1025.6353    133334.57   -42017.923    3672.6189   -45690.541   0.15755258 
   14300      292.339   -1032.9573    133298.18   -42050.854    3568.4118   -45619.265   0.16736132 
   14400    298.68712   -1007.5873    133297.08   -42095.179    3645.8996   -45741.079   0.15979588 
   14500    298.06939   -985.18425    133279.84   -42096.542    3638.3593   -45734.901   0.15683141 
   14600    296.10755   -996.36977    133296.31   -42094.703    3614.4123   -45709.116   0.16739371 
   14700    298.02122    -991.7136    133297.07   -42043.044    3637.7713   -45680.815   0.15665007 
   14800     303.5072   -971.48005    133342.12   -42011.657    3704.7355   -45716.393   0.16176429 
   14900    301.09284   -978.23213     133326.6    -41991.67    3675.2648   -45666.935    0.1707704 
   15000    296.78415   -968.95433    133300.31    -42060.89    3622.6712   -45683.561   0.15633661 
   15100    292.10424   -991.26349    133296.61   -42087.112    3565.5462   -45652.658   0.17502707 
   15200    291.52594   -1008.1389    133327.04   -42036.976    3558.4872   -45595.463   0.15789587 
   15300    294.12835   -1005.1574    133328.62   -42093.957    3590.2533    -45684.21   0.16635487 
   15400    299.63217    -973.3038    133312.36   -42131.412    3657.4352   -45788.847   0.15578648 
   15500    299.48469   -990.12261    133329.33   -42055.447    3655.6351   -45711.082   0.15509838 
   15600    305.88532   -996.54832       133344   -41936.117    3733.7638   -45669.881   0.16896566 
   15700    306.79589   -966.70167    133345.01    -41918.85    3744.8786   -45663.729    0.1578682 
   15800    304.14108   -1020.1831    133321.93   -41931.664    3712.4729   -45644.137    0.1732824 
   15900    305.51403    -991.0782    133309.43   -41935.356    3729.2316   -45664.588   0.16503528 
   16000    298.99074   -987.91034     133266.1   -41983.859    3649.6057   -45633.464   0.16417116 
   16100    298.17253   -1028.0939    133253.59   -42060.303    3639.6183   -45699.921   0.16500003 
   16200    300.78293   -956.60356    133265.92   -42021.211    3671.4819   -45692.693   0.15945534 
   16300    296.72104   -1054.9059     133283.1    -42039.44    3621.9009   -45661.341   0.16698137 
   16400    297.07402   -992.22229    133266.09   -42064.165    3626.2094   -45690.375   0.16444026 
   16500    295.23967     -1029.96    133280.51   -41976.551    3603.8186   -45580.369   0.16365461 
   16600    301.10631   -993.79948    133315.65   -41945.901    3675.4292    -45621.33   0.16961795 
   16700    298.94888   -977.73189    133298.22   -41973.908    3649.0947   -45623.002    0.1588442 
   16800    295.41245    -1013.958     133298.7   -42031.324    3605.9275   -45637.252   0.17004535 
   16900    301.25795   -1003.0158       133298   -42047.704    3677.2802   -45724.984   0.15631468 
   17000     294.2576   -980.56079    133294.18   -42108.101     3591.831   -45699.932   0.16081674 
   17100    304.47669   -987.18102    133296.15   -42040.933    3716.5695   -45757.503    0.1593148 
   17200    292.37697   -1047.3855    133294.28   -42095.274    3568.8752   -45664.149   0.16632556 
   17300    286.97627    -1035.902    133280.92   -42163.485     3502.952   -45666.437   0.16396612 
   17400    292.38848   -1022.0474    133273.04   -42192.184    3569.0157   -45761.199   0.15698129 
   17500    293.35172   -954.70588    133299.62   -42067.931    3580.7735   -45648.704   0.15810705 
   17600    293.74696   -1047.6244    133303.59   -42086.631    3585.5979   -45672.229   0.16386383 
   17700    293.70349   -1047.0572    133285.16    -42125.98    3585.0673   -45711.048   0.16609259 
   17800    294.67427   -1002.9632    133279.01    -42121.95     3596.917   -45718.867   0.16067076 
   17900     299.1317   -1018.2611    133287.68   -42045.063    3651.3263    -45696.39   0.16472442 
   18000    307.14997   -953.79514    133289.28   -41999.013    3749.2007   -45748.213   0.15755584 
   18100    300.89563   -1001.1547    133284.04   -41951.924    3672.8575   -45624.781   0.16888416 
   18200    297.31921   -1020.5561    133282.54   -42064.252    3629.2023   -45693.454   0.16299323 
   18300    301.63632    -967.0242    133269.25    -41998.44    3681.8987   -45680.338   0.16480508 
   18400    294.00762   -1013.4131    133260.61   -42107.232    3588.7796   -45696.012    0.1602993 
   18500     298.3566   -1001.0727    133266.82    -42072.88    3641.8651   -45714.745   0.16722962 
   18600    301.30286   -967.25322    133291.82    -41989.71    3677.8284   -45667.539   0.16004809 
   18700    299.73827   -989.81871    133285.22   -42028.169    3658.7304     -45686.9   0.17134758 
   18800    300.38164   -1000.8105    133261.07   -42055.424    3666.5836   -45722.008    0.1558673 
   18900    297.12523   -982.32797    133261.79   -42028.037    3626.8345   -45654.872   0.16450894 
   19000    301.72839   -1015.8351    133290.22   -42005.353    3683.0226   -45688.376   0.16617851 
   19100    301.39539   -986.25492    133275.58   -41978.256    3678.9579   -45657.214   0.16171658 
   19200    300.89426   -1029.5217    133267.17   -42033.207    3672.8409   -45706.048   0.17112189 
   19300    299.72769   -1006.0941    133297.44   -41884.701    3658.6013   -45543.302   0.16482748 
   19400    303.15636   -1022.8148    133255.55   -41967.942     3700.453   -45668.395   0.17060232 
   19500    306.53788   -980.34945    133258.91    -41934.05    3741.7293   -45675.779   0.16963026 
   19600     304.8744    -1006.642    133284.36   -41955.633    3721.4242   -45677.057   0.16502213 
   19700    306.73558   -997.77258    133300.74   -41969.605    3744.1424   -45713.748    0.1676637 
   19800    298.46835   -1016.0799    133268.65   -41956.574    3643.2292   -45599.803   0.17073568 
   19900     301.4801   -1020.7757    133292.39   -41985.712    3679.9919   -45665.704   0.16233175 
   20000    295.98274   -1012.8072    133266.98    -42016.29    3612.8888   -45629.179   0.17854007 
   20100    297.88956    -931.1423    133265.01   -42061.186    3636.1642    -45697.35   0.14948682 
   20200    293.38687   -1022.5663    133275.66   -42091.513    3581.2026   -45672.715   0.17294308 
   20300    299.19739   -1017.4937    133266.76    -42009.34    3652.1282   -45661.468   0.16015485 
   20400    296.94329   -986.50263    133305.27   -42031.762    3624.6136   -45656.376   0.16671168 
   20500     294.4111   -1018.9278    133266.36   -42089.625    3593.7047    -45683.33   0.16914807 
   20600    295.68669   -1028.6826    133278.67   -42130.279    3609.2751   -45739.554   0.16051781 
   20700    297.45971    -997.5957    133255.87    -42082.73    3630.9173   -45713.647   0.16303476 
   20800    299.07153   -1014.5472    133276.29   -42002.226    3650.5918   -45652.818    0.1679222 
   20900    301.60315   -983.50299     133296.7   -42009.866    3681.4938    -45691.36    0.1598338 
   21000    303.91794   -1021.5613     133279.4   -42056.207    3709.7492   -45765.956    0.1694784 
   21100    295.80796   -1042.4848    133309.38   -42013.474    3610.7553   -45624.229   0.16244973 
   21200    306.74648   -995.45167    133285.53   -41996.811    3744.2754   -45741.086   0.16254318 
   21300    301.58557   -975.50728    133307.81   -41951.012    3681.2792   -45632.292   0.16787077 
   21400      300.531   -964.27461    133295.66   -42004.305    3668.4068   -45672.712   0.15873435 
   21500    296.10134    -991.8742    133267.17   -41943.478    3614.3365   -45557.814   0.18134396 
   21600    298.80662   -1010.7033    133280.95   -41926.634    3647.3582   -45573.993   0.16141967 
   21700    294.24639   -968.54334    133257.92   -42026.909    3591.6942   -45618.603   0.17031589 
   21800    299.50253   -1009.4506    133252.41   -42044.649    3655.8528   -45700.502   0.16448853 
   21900    294.08179   -1029.3117    133254.77   -42047.055     3589.685    -45636.74   0.16788493 
   22000    297.77889   -982.25636    133242.23   -42108.188    3634.8133   -45743.001   0.16457018 
   22100    303.19046   -1020.5411    133258.82   -42086.186    3700.8693   -45787.055   0.16028892 
   22200    296.42122   -993.04847    133243.02   -42210.377    3618.2411   -45828.619   0.15860156 
   22300    295.03636    -1001.896    133243.43   -42119.262    3601.3368   -45720.599   0.16790377 
   22400    296.35555    -1032.166    133256.69   -42006.821    3617.4395   -45624.261   0.16363409 
   22500    297.56289   -965.19124    133261.55   -42010.824    3632.1768   -45643.001   0.16676717 
   22600    302.21457   -960.91856    133285.23   -42031.723    3688.9571   -45720.681   0.15680451 
   22700    292.52813    -990.4457    133266.36   -42082.882    3570.7204   -45653.602    0.1644916 
   22800    296.89682   -998.73082    133279.42   -42013.229    3624.0464   -45637.276   0.16936162 
   22900    295.76972   -1033.8641    133285.96   -42055.217    3610.2885   -45665.505   0.16321243 
   23000    296.54594   -989.42718    133251.47   -42114.048    3619.7634   -45733.811   0.16468621 
   23100    298.94914   -1009.1491    133285.07   -42036.083     3649.098   -45685.181   0.16049101 
   23200    298.06719   -975.71781    133290.12   -42027.138    3638.3325   -45665.471   0.16705668 
   23300    294.77376   -1008.4632    133316.18   -42035.757    3598.1315   -45633.889   0.16259235 
   23400    300.00375   -979.99757     133307.9   -42015.124     3661.971   -45677.095   0.16202495 
   23500    297.86551   -981.31942     133292.1   -41994.308    3635.8706   -45630.179    0.1596509 
   23600    298.45255    -1016.556    133323.06   -41933.767    3643.0363   -45576.803   0.16849641 
   23700     301.8911    -971.5807    133338.79   -41961.608    3685.0087   -45646.617   0.15962828 
   23800    301.07115    -1013.585    133340.18   -41972.072    3675.0001   -45647.072   0.16472093 
   23900    296.30202   -994.25719    133308.08   -42071.605     3616.786   -45688.391   0.16013552 
   24000    297.72673   -1033.0215    133295.35   -42019.796    3634.1766   -45653.972   0.16813222 
   24100    304.63838   -934.75578    133304.13   -41982.364    3718.5432   -45700.907   0.16141959 
   24200    294.80576    -1026.248    133318.43    -42048.37    3598.5221   -45646.892   0.16567519 
   24300    296.17475   -1023.6441    133301.93   -42096.921    3615.2325   -45712.154   0.15690573 
   24400    294.99707   -1024.7547    133295.12       -42142    3600.8573   -45742.857   0.16426019 
   24500    295.16426   -1012.3578    133287.19   -42095.317    3602.8981   -45698.215   0.15696618 
   24600    291.83152   -1018.4936    133281.99   -42144.121    3562.2173   -45706.338   0.16127791 
   24700    298.14362    -975.0514    133283.57   -42150.032    3639.2654   -45789.298    0.1566372 
   24800    296.01649   -983.03412    133296.15   -42115.998    3613.3008   -45729.299   0.15659318 
   24900     295.4583    -1032.635    133279.13   -42132.491    3606.4872   -45738.978   0.16996325 
   25000    294.72933   -1017.9399    133264.88    -42094.51    3597.5892   -45692.099   0.15579041 
   25100    298.30325   -985.88648    133283.05       -42150    3641.2139   -45791.214   0.16326591 
   25200    292.89983   -977.87882    133270.34   -42260.451    3575.2575   -45835.709   0.14916779 
   25300    291.58618   -1001.6908    133261.82    -42199.47    3559.2225   -45758.692   0.15296316 
   25400    291.64877   -999.08252    133284.52   -42140.652    3559.9866   -45700.639   0.16202089 
   25500    293.05819   -1031.4653    133300.27   -42086.297    3577.1905   -45663.487   0.15758728 
   25600    300.82405   -1006.6502    133323.55   -41937.778    3671.9839   -45609.762   0.16763859 
   25700    294.83362   -1013.0343    133308.88   -42055.698    3598.8622   -45654.561   0.16623465 
   25800     304.3374   -916.80976    133318.19   -41934.856    3714.8692   -45649.725   0.15170041 
   25900    295.94228   -983.22059    133323.43   -41936.204    3612.3949   -45548.599   0.17622645 
   26000    298.65949   -987.43726     133320.3   -41972.683    3645.5624   -45618.245   0.15200642 
   26100    300.24476    -960.8175    133313.61   -41996.289    3664.9128   -45661.202   0.16598056 
   26200    301.85543    -999.5726    133319.43     -42036.7    3684.5733   -45721.273   0.15630708 
   26300    294.18732   -1006.6505    133304.11   -42095.999    3590.9732   -45686.972   0.15344669 
   26400    293.67678   -1003.7207    133278.34    -42114.52    3584.7413   -45699.261   0.17224323 
   26500    298.71296   -974.61552    133300.32   -42016.865     3646.215    -45663.08   0.15516892 
   26600    299.38862   -1057.1298    133310.72    -41975.91    3654.4624   -45630.372   0.17397006 
   26700    302.06913   -963.40328    133320.21    -41936.89    3687.1818   -45624.072   0.15810586 
   26800    300.03263   -1020.3626    133309.31     -42004.4    3662.3234   -45666.724    0.1611884 
   26900    298.23392   -1039.3076    133285.61   -41970.715    3640.3677   -45611.082    0.1732689 
   27000    302.82966   -993.95745    133298.08   -41967.163    3696.4652   -45663.629   0.15970016 
   27100    300.88262    -988.0098    133282.15   -41954.802    3672.6988   -45627.501   0.16608242 
   27200    296.17299   -994.53606    133271.85   -41990.171    3615.2111   -45605.382    0.1656689 
   27300    303.66083    -956.6565    133311.56    -41890.61    3706.6108   -45597.221   0.16081788 
   27400    298.13071   -1017.7765    133326.89   -41924.046    3639.1078   -45563.154   0.17776505 
   27500    296.93249   -995.03205    133300.52   -42037.409    3624.4818    -45661.89   0.15544363 
   27600    296.42356    -1041.988    133270.74    -42157.21    3618.2696   -45775.479   0.16532591 
   27700    299.16665   -945.44029     133285.3   -42055.668    3651.7529   -45707.421   0.15548071 
   27800     298.7434   -1036.2109    133300.69   -41970.037    3646.5866   -45616.623   0.16662456 
   27900    297.67441   -1024.9006    133284.77   -42063.702     3633.538    -45697.24   0.16292748 
   28000    288.61348   -1024.2631    133285.22   -42123.913    3522.9365    -45646.85   0.15615594 
   28100    296.43647   -993.17553     133288.1   -42104.378    3618.4273   -45722.805   0.15906349 
   28200    291.55151   -989.55555    133307.55   -42083.687    3558.7994   -45642.487   0.15549581 
   28300    300.99033   -1011.8358    133301.14    -42079.05    3674.0136   -45753.064   0.16039927 
   28400    300.93586   -995.51816    133303.19   -42067.676    3673.3486   -45741.025   0.15512735 
   28500    295.88465   -1050.6655    133297.46   -42074.318    3611.6914    -45686.01   0.16501477 
   28600    295.88272    -995.6149    133313.76   -42097.611     3611.668   -45709.279   0.15568844 
   28700    293.71169   -997.41991    133304.99   -42086.491    3585.1674   -45671.659   0.16206482 
   28800    296.91579    -1027.617    133326.27     -42118.6     3624.278   -45742.878   0.15785662 
   28900     298.1761   -967.05997    133317.09   -42080.368    3639.6618   -45720.029   0.15724176 
   29000    298.16889   -1001.4003    133332.68   -42052.319    3639.5739   -45691.893   0.15654471 
   29100    301.64737   -1005.2235    133334.15   -42013.053    3682.0336   -45695.086   0.16004325 
   29200    300.35004   -995.61022    133342.31   -41920.227    3666.1979   -45586.425   0.15619036 
   29300    299.60777   -1026.8606    133361.86   -41957.795    3657.1374   -45614.932   0.16738208 
   29400    301.69964   -1018.0536    133352.55   -42004.287    3682.6717   -45686.959   0.15306307 
   29500    298.57956   -964.80999    133365.73   -41986.765    3644.5866   -45631.351   0.16296688 
   29600    301.59747   -986.22639    133349.84    -41977.72    3681.4245   -45659.145   0.15508732 
   29700    300.90276   -1002.0968    133347.84   -42046.075    3672.9446    -45719.02   0.15626725 
   29800    292.61734   -995.10253    133303.28    -42147.23    3571.8093   -45719.039   0.15906825 
   29900    297.24656    -1032.703     133296.6   -42091.837    3628.3155   -45720.153   0.15856819 
   30000    293.71631   -983.87415    133299.78   -42144.653    3585.2238   -45729.877   0.15969443 
   30100    301.57043   -1019.7119    133307.64   -42047.232    3681.0945   -45728.327     0.158436 
   30200    292.52022    -1036.915    133290.81   -42092.611    3570.6239   -45663.235   0.16050698 
   30300    294.99503   -989.53964    133302.99   -42089.285    3600.8325   -45690.118   0.15609051 
   30400    298.65572    -1007.828    133306.29   -42054.473    3645.5162   -45699.989   0.15660058 
   30500    292.57373     -997.394     133266.5   -42174.568     3571.277   -45745.845   0.15320679 
   30600     292.6501   -1019.2238    133266.34   -42115.807    3572.2093   -45688.016   0.16284007 
   30700    294.86241   -948.31516    133261.22   -42144.222    3599.2135   -45743.436   0.14940894 
   30800    300.28511   -992.17813    133251.62    -42091.51    3665.4053   -45756.915   0.16372442 
   30900    301.64131   -992.07824    133292.84   -42021.524    3681.9597   -45703.484   0.15342414 
   31000    296.79608   -996.41664    133288.97   -42044.244    3622.8168   -45667.061   0.16571361 
   31100    296.56515   -998.07554    133299.84   -42056.069    3619.9979   -45676.066   0.15507988 
   31200     295.4293   -970.35782    133313.11   -42050.576    3606.1332    -45656.71    0.1581152 
   31300    300.66978   -988.40703     133300.1   -41938.881    3670.1007   -45608.982   0.16254805 
   31400    295.74863   -1000.0422    133305.97   -42028.431    3610.0312   -45638.462   0.16050398 
   31500    301.62807   -959.66565    133270.48   -41983.384     3681.798   -45665.182   0.16159872 
   31600    299.11464   -970.77077    133305.97   -42014.622     3651.118    -45665.74    0.1629968 
   31700     306.0019   -983.40268    133329.65   -42012.219    3735.1869   -45747.406   0.15313327 
   31800    297.27469   -980.98846     133322.1   -41986.504    3628.6589   -45615.163   0.16600103 
   31900    294.82454   -960.60145    133307.39   -42051.719    3598.7513    -45650.47    0.1581466 
   32000    296.05366   -992.37998    133334.37   -42041.859    3613.7544   -45655.613   0.16019049 
   32100    295.41953    -993.4087    133316.46   -42073.202     3606.014   -45679.216   0.15908611 
   32200    293.37441   -1030.6723    133323.03   -42189.152    3581.0504   -45770.203    0.1487156 
   32300     296.7261   -985.78708    133279.07   -42138.756    3621.9626   -45760.719    0.1606692 
   32400    295.34723   -1005.5301    133282.95   -42156.733    3605.1315   -45761.865     0.150562 
   32500    298.27363   -987.14161    133279.83   -42058.796    3640.8523   -45699.649   0.16525466 
   32600    298.14845   -969.31413    133289.23   -42002.633    3639.3244   -45641.957   0.15844513 
   32700    295.19964   -1028.9471     133301.6   -42097.559    3603.3299   -45700.889   0.15988411 
   32800    307.78704   -986.26382    133326.32   -41971.687     3756.977   -45728.664   0.15948654 
   32900     299.9131   -1020.4839    133324.12   -42024.516    3660.8643    -45685.38   0.16063761 
   33000    304.28031   -979.50337       133328   -42017.689    3714.1724   -45731.861    0.1593355 
   33100    297.96842   -1018.5451    133336.89   -42027.883    3637.1269    -45665.01    0.1588376 
   33200    297.45073   -988.20071    133343.18   -42045.628    3630.8077   -45676.435     0.153188 
   33300    302.04983   -995.67769    133317.26   -42023.952    3686.9462   -45710.898   0.16244076 
   33400    297.58339   -1034.9041    133314.28   -42059.695     3632.427   -45692.122   0.15695698 
   33500    296.79375    -1010.543    133310.93   -42118.569    3622.7884   -45741.357   0.16026664 
   33600    297.66394    -995.4781    133311.52   -42094.903    3633.4102   -45728.314   0.15144469 
   33700     296.5858   -976.66046    133345.92    -42056.33      3620.25    -45676.58    0.1542898 
   33800    299.77299   -985.21556    133398.16   -41906.633    3659.1542   -45565.788    0.1635655 
   33900     302.4671   -988.75179    133402.72   -41897.746    3692.0396   -45589.786   0.15328336 
   34000    300.21073   -1003.1794    133361.84   -42063.297    3664.4974   -45727.794   0.16094417 
   34100    299.22062   -983.94225    133361.32   -42052.447    3652.4117   -45704.858   0.15007102 
   34200    291.57552   -1025.9257    133328.36   -42086.507    3559.0924     -45645.6   0.16024117 
   34300    299.54002   -1000.1088    133331.19   -42138.807    3656.3104   -45795.118   0.15516755 
   34400    297.10372   -1039.9221    133319.07   -42107.956     3626.572   -45734.528   0.15769938 
   34500    300.51681   -975.05327    133337.09   -41972.864    3668.2336   -45641.097   0.16249219 
   34600    302.98861    -985.0095    133362.62   -41930.346    3698.4053   -45628.751    0.1594377 
   34700    299.02213   -1062.4454    133347.13   -42032.095    3649.9888   -45682.084   0.15496022 
   34800    290.49756   -1012.6144    133320.39   -42087.822    3545.9345   -45633.756   0.16241397 
   34900    297.94853   -979.77187    133311.97   -42042.445    3636.8841   -45679.329   0.14868192 
   35000    295.56861   -999.65861    133318.47   -42063.282    3607.8338   -45671.116   0.16239385 
   35100    302.00928   -986.79011    133326.36   -42025.859    3686.4513    -45712.31   0.15555225 
   35200    304.64118   -988.00786    133325.08   -41973.786    3718.5774   -45692.364    0.1609579 
   35300    298.38294   -986.66124    133327.26   -42012.386    3642.1867   -45654.572   0.15668967 
   35400    296.12102    -1012.237    133330.13   -42057.163    3614.5768    -45671.74   0.15606891 
   35500    298.93966   -999.30172    133335.51   -42074.127    3648.9822   -45723.109   0.15581355 
   35600    297.61777   -1016.1493    133348.48   -42055.303    3632.8467    -45688.15    0.1570166 
   35700    300.00447   -1071.0056    133334.72   -42009.436    3661.9797   -45671.416   0.16266191 
   35800    301.14616   -998.01981    133361.03   -41872.392    3675.9156   -45548.308   0.16145021 
   35900    299.41479   -1022.7778    133340.47   -41969.243    3654.7818   -45624.025   0.16177763 
   36000    297.04953   -1007.8367    133343.87   -42043.373    3625.9105   -45669.284   0.15360872 
   36100     296.7001   -996.78166    133330.34   -42085.033    3621.6452   -45706.679   0.15930619 
   36200    294.03135   -1016.8712    133315.55   -42066.907    3589.0693   -45655.976   0.15361315 
   36300    293.07015   -1009.2662    133290.44   -42067.215    3577.3365   -45644.551   0.15826002 
   36400    300.60382   -1011.0945     133298.3   -42087.528    3669.2956   -45756.824   0.15370808 
   36500    297.85997   -993.99177    133277.19   -42090.853    3635.8031   -45726.656   0.15535059 
   36600     297.6511   -967.27077    133269.61   -42044.643    3633.2535   -45677.897   0.15783513 
   36700    294.21198   -1034.2341    133287.75   -42096.486    3591.2742    -45687.76   0.16066272 
   36800    294.84911   -993.50433    133274.41   -42156.179    3599.0512    -45755.23   0.15415361 
   36900    297.13578    -998.3912    133306.37   -42103.215    3626.9632   -45730.178   0.16267481 
   37000    297.70266   -1009.6579     133289.6   -42084.644    3633.8829   -45718.527   0.15179307 
   37100    296.15234    -996.9616    133279.26   -42123.335     3614.959   -45738.294   0.15803903 
   37200    297.49997   -981.31145    133262.96   -42124.912    3631.4088   -45756.321   0.15289788 
   37300    291.66998   -1076.5955    133271.21   -42133.456    3560.2454   -45693.701   0.16189281 
   37400    295.75029    -992.9125    133273.69   -42162.099    3610.0514    -45772.15   0.15820649 
   37500    296.90615   -959.46923    133255.28    -42116.75    3624.1604    -45740.91    0.1483554 
   37600    298.92431   -985.81888    133245.59   -42141.353    3648.7948   -45790.148   0.15776378 
   37700    292.67435   -962.25412    133249.74   -42244.551    3572.5052   -45817.056   0.14723939 
   37800    287.34826    -1013.094    133232.06   -42282.779    3507.4928   -45790.272   0.15571974 
   37900    290.72892   -1009.8015    133266.17   -42160.509    3548.7585   -45709.268    0.1584032 
   38000    300.38797   -984.98982    133288.04   -42073.821    3666.6609   -45740.482   0.15229227 
   38100    293.35449    -989.2115     133298.7   -42072.082    3580.8072   -45652.889     0.157736 
   38200    299.10282   -964.56959    133316.13   -42016.846    3650.9738   -45667.819   0.16030334 
   38300    303.93917   -1010.6663    133304.58    -42050.82    3710.0083   -45760.828   0.15358314 
   38400    299.81925   -1023.0453     133334.8   -42018.763    3659.7188   -45678.482   0.16696449 
   38500    297.95608    -1028.775    133322.57   -42047.007    3636.9762   -45683.983   0.15175988 
   38600    298.96611   -1019.8624    133322.69   -42039.705     3649.305    -45689.01   0.16545994 
   38700    302.11377   -999.11042    133352.18   -42015.425    3687.7266   -45703.152   0.15829984 
   38800    301.12807   -949.37062    133315.23   -42061.702    3675.6948   -45737.397   0.15489182 
   38900    302.99654   -1006.0573    133360.94   -41956.901    3698.5021   -45655.403   0.16145328 
   39000    295.96964   -1031.4367     133359.5   -41999.398    3612.7289   -45612.127    0.1535024 
   39100    298.26979   -966.81681    133326.62    -42034.21    3640.8055   -45675.016   0.15788676 
   39200    292.32488   -1053.2829    133330.88   -42151.616    3568.2394   -45719.856     0.160135 
   39300     294.4176   -999.82473    133282.59   -42191.953    3593.7841   -45785.737   0.15291446 
   39400    297.74118   -1004.6133    133318.04   -42024.693     3634.353   -45659.046   0.16189699 
   39500    301.39056   -1001.7674    133321.46   -42054.038    3678.8989   -45732.937    0.1546826 
   39600    301.42937   -1000.1418    133329.53   -42023.164    3679.3727   -45702.537   0.15565909 
   39700    297.05784   -1007.0925    133334.58   -42030.099     3626.012   -45656.111   0.16191007 
   39800    299.87168   -1027.1037    133331.11   -42064.703    3660.3589   -45725.062   0.15262326 
   39900    297.85716   -971.65022    133320.94   -42008.688    3635.7687   -45644.457   0.16265912 
   40000    298.13561   -993.01078     133325.9    -42058.41    3639.1676   -45697.578   0.15265058 
   40100    300.58046   -989.38937     133316.8   -42080.046    3669.0105   -45749.056   0.15899347 
   40200    304.87947   -986.28735    133320.66   -42050.776     3721.486   -45772.262   0.15309343 
   40300    296.33895   -998.30156    133318.67     -42119.8    3617.2369   -45737.037   0.15716213 
   40400    291.87507   -1012.2117    133300.72   -42154.783    3562.7489   -45717.532   0.15324515 
   40500    300.79766   -977.02752     133304.5   -42050.045    3671.6617   -45721.706   0.15635857 
   40600    297.69379   -1026.0413    133330.13   -42059.292    3633.7746   -45693.066   0.15492142 
   40700    294.09759   -1000.6943    133321.17   -42123.082    3589.8778    -45712.96   0.15671102 
   40800     296.5822   -984.58804    133334.15   -42035.336    3620.2061   -45655.542   0.15754109 
   40900    292.19563    -985.1799    133327.39   -42102.249    3566.6617   -45668.911   0.15956395 
   41000    293.56325   -1002.8626    133328.82   -42103.557    3583.3555   -45686.912   0.15521356 
   41100    296.35468   -1013.5976    133305.94   -42108.099    3617.4288   -45725.528   0.15588868 
   41200    297.29488   -995.52182    133324.43    -42003.36    3628.9053   -45632.265   0.15974117 
   41300     298.4076   -1012.7609    133322.02    -42054.45    3642.4876   -45696.937   0.15332313 
   41400    302.96491   -999.57955    133329.28   -42031.048     3698.116   -45729.164   0.15741516 
   41500    297.91806   -1008.9384    133329.07   -42000.079    3636.5121   -45636.591    0.1556061 
   41600    300.58792   -977.92672    133317.99   -42018.863    3669.1015   -45687.964   0.15758898 
   41700    295.07863   -979.95341    133268.96   -42119.583    3601.8528   -45721.436   0.15428926 
   41800    296.23846   -979.91137    133302.57   -42051.883    3616.0103   -45667.893   0.15705436 
   41900    294.92778   -948.20511    133294.89   -42125.563    3600.0115   -45725.575    0.1496195 
   42000    297.90712   -1027.1033    133302.46   -42103.944    3636.3786   -45740.323   0.15913155 
   42100    290.21222   -1055.0518    133260.69   -42172.489    3542.4514    -45714.94   0.15629579 
   42200     298.7888   -995.44247    133269.76   -42114.769    3647.1408    -45761.91   0.16002368 
   42300    297.87417    -1006.846    133284.62    -42095.75    3635.9764   -45731.726   0.15476005 
   42400    296.04048   -990.17873     133304.2   -42099.302    3613.5937   -45712.896   0.15535823 
   42500    294.81633   -1011.6705    133292.11   -42074.803    3598.6511   -45673.454   0.15807728 
   42600    298.69538   -1000.1435    133290.34   -42089.942    3646.0004   -45735.943   0.15279557 
   42700    292.07752   -1076.6475       133277   -42173.373    3565.2201   -45738.593   0.15827771 
   42800    300.20971   -979.28771    133275.64   -42094.239     3664.485   -45758.724   0.15381776 
   42900     295.4724   -1019.7045    133281.61    -42123.18    3606.6593   -45729.839   0.15263056 
   43000    297.59303   -1021.7713    133304.67     -42108.4    3632.5447   -45740.945   0.15451894 
   43100    298.26105   -988.90937    133299.98   -42057.855    3640.6988   -45698.554   0.15361232 
   43200    295.10348   -1034.2619    133314.28   -42074.612    3602.1562   -45676.768   0.15693166 
   43300    293.93771   -972.24742    133284.81   -42121.367    3587.9263   -45709.293   0.15458736 
   43400    295.49091   -967.40315    133295.82   -42046.897    3606.8853   -45653.782   0.15338714 
   43500    298.82019   -1006.4675    133301.99   -42055.644    3647.5239   -45703.167    0.1613431 
   43600    297.35959   -1009.6342     133309.3   -42082.331    3629.6952   -45712.027   0.15517647 
   43700    294.24138   -1030.1947    133278.33   -42155.982     3591.633   -45747.615   0.15720893 
   43800    289.15032   -1038.8073    133279.31   -42175.283    3529.4894   -45704.772   0.15657699 
   43900    297.12792   -1005.3264    133307.28   -42096.234    3626.8674   -45723.101   0.15076102 
   44000    294.93414   -991.35875    133287.23   -42191.681    3600.0891    -45791.77   0.15255078 
   44100    290.12908   -989.90314    133274.65   -42190.805    3541.4366   -45732.241   0.15064243 
   44200    296.61504   -968.70748    133295.01   -42108.665     3620.607   -45729.272   0.15200785 
   44300    295.33395   -970.98878    133307.26   -42114.811    3604.9693    -45719.78     0.155085 
   44400    293.42652   -978.83984    133281.41   -42146.289    3581.6864   -45727.976   0.14671389 
   44500    295.16521   -1018.8459    133304.93   -42136.056    3602.9097   -45738.966   0.15696845 
   44600    299.77227   -975.63322    133296.85   -42118.531    3659.1454   -45777.676   0.14881428 
   44700    299.21717   -986.22428    133299.05   -42101.556    3652.3696   -45753.926   0.15387178 
   44800    293.99308   -998.83985    133281.82    -42097.74    3588.6021   -45686.342   0.15981363 
   44900    295.64554   -993.55077    133313.04   -42073.141    3608.7728   -45681.914   0.15122478 
   45000    295.06031    -962.8069    133288.92   -42080.398    3601.6292   -45682.028   0.15765056 
   45100    297.78344   -1058.4547    133301.37   -41981.555    3634.8688   -45616.424   0.16213554 
   45200     299.8703   -1001.5526    133283.32   -42021.415     3660.342   -45681.757   0.15805805 
   45300    297.98968   -1007.5097    133296.19   -42065.697    3637.3863   -45703.083   0.15837094 
   45400    300.89558   -989.81724     133291.7   -42080.919     3672.857   -45753.776   0.15186006 
   45500    296.01184   -986.99547    133304.22   -42037.613     3613.244   -45650.857   0.15705533 
   45600    298.62438   -1009.9847    133312.24   -42007.242    3645.1338   -45652.376   0.16068031 
   45700    299.41021   -957.16692    133296.23   -41985.478     3654.726   -45640.204   0.15367524 
   45800     293.5759   -996.55394    133281.23   -42034.985    3583.5099   -45618.495   0.16186744 
   45900    304.68982   -981.29242    133307.57   -41960.503     3719.171   -45679.674   0.15590035 
   46000    299.08251   -997.66962    133329.83   -41987.622    3650.7259   -45638.348   0.15954458 
   46100    299.92949   -1020.8097    133328.05   -41909.135    3661.0645     -45570.2   0.16506851 
   46200     298.0876   -988.63973    133342.17    -41971.39    3638.5815   -45609.972   0.16227071 
   46300    304.50635   -1003.6377    133335.66   -41938.441    3716.9316   -45655.373   0.16218137 
   46400    295.04925   -1016.4549    133342.37   -42008.465    3601.4942   -45609.959   0.15929589 
   46500    300.51614   -988.94107    133329.49   -41937.607    3668.2254   -45605.833   0.16139267 
   46600     294.9117   -1000.3636    133318.39   -42048.012    3599.8152   -45647.827   0.16135056 
   46700    301.24446     -983.853    133339.42   -41974.865    3677.1155   -45651.981   0.15548725 
   46800     296.0784   -1003.4813    133344.51   -41965.911    3614.0564   -45579.967   0.15846629 
   46900    295.70941   -1023.7797    133345.29   -41999.297    3609.5524   -45608.849   0.16071083 
   47000    298.74443   -988.89119    133320.72   -42060.032    3646.5991   -45706.631   0.15464511 
   47100    292.57482   -961.41945    133300.56   -42063.873    3571.2904   -45635.163   0.16375789 
   47200    297.55612   -984.14211    133297.28   -42072.324    3632.0941   -45704.418   0.15238039 
   47300    296.97907   -997.45445     133302.5   -42138.566    3625.0504   -45763.616   0.15618975 
   47400    300.73979   -962.44182    133303.45   -42088.374    3670.9553   -45759.329   0.15276444 
   47500    296.04464   -1008.7893    133289.28   -42115.494    3613.6444   -45729.139   0.15493649 
   47600    296.87233   -1045.4136    133272.85   -42083.549    3623.7475   -45707.297   0.16687283 
   47700    302.26419   -990.01747    133307.47   -42033.022    3689.5628   -45722.584   0.15582141 
   47800    291.97855    -1019.793    133288.38   -42074.305     3564.012   -45638.317   0.16213141 
   47900    292.44391    -1052.109    133268.88   -42128.345    3569.6924   -45698.037   0.16331585 
   48000    297.82928   -973.20898    133299.87   -42082.736    3635.4284   -45718.165   0.15413886 
   48100     291.2964   -1018.5716    133294.61   -42133.653    3555.6854   -45689.338   0.16437087 
   48200    299.08354    -976.3855    133293.26   -42119.024    3650.7385   -45769.762   0.15213524 
   48300    301.08463   -983.07701    133296.01   -42089.366    3675.1646   -45764.531   0.15364376 
   48400     298.4489   -989.57781    133296.34   -42096.038    3642.9918    -45739.03   0.15735578 
   48500    289.59507   -1013.9279    133265.45   -42177.555    3534.9183   -45712.473   0.15496174 
   48600     293.5934   -1032.8653    133252.31   -42172.823    3583.7235   -45756.547   0.16365551 
   48700    298.53015   -977.28041    133280.23   -42073.502    3643.9835   -45717.485   0.15623324 
   48800     296.7439   -977.61884    133276.21   -42082.273    3622.1798   -45704.453   0.15929837 
   48900     296.4859   -993.28222    133282.18   -42063.113    3619.0306   -45682.143   0.16412539 
   49000    292.52827   -1027.7318    133273.75   -42110.714    3570.7221   -45681.436   0.16415562 
   49100    296.87827   -996.58687    133285.49   -42047.842      3623.82   -45671.662   0.16223564 
   49200     298.1694   -1004.9612     133306.6   -42054.046    3639.5801   -45693.626   0.15977063 
   49300     295.5658   -988.71515    133283.96   -42109.392    3607.7994   -45717.191   0.15665233 
   49400    292.39336   -1002.6498    133234.54    -42148.66    3569.0754   -45717.736   0.16037544 
   49500    294.53066   -1012.0611    133244.03   -42071.535     3595.164   -45666.699   0.15917364 
   49600    299.36442   -989.04053    133236.94   -42099.369    3654.1669   -45753.535   0.15895998 
   49700    290.71962   -1018.4464     133238.1    -42118.71    3548.6449   -45667.355   0.16141416 
   49800     294.5801   -1004.1901    133258.11   -42100.535    3595.7676   -45696.303   0.15984714 
   49900    301.71693   -948.43308     133245.5   -42053.655    3682.8827   -45736.537   0.15939573 
   50000    296.74613   -1017.8598    133243.33   -42063.813     3622.207    -45686.02   0.16260896 
   50100    298.93052   -997.62722     133297.6   -41941.858    3648.8706   -45590.729   0.16294795 
   50200    302.02339   -1000.0416    133275.11   -42018.508    3686.6235   -45705.132   0.16445585 
   50300    298.29567   -1001.5939    133273.03   -42029.768    3641.1214    -45670.89   0.15833426 
   50400    297.91271   -1001.8556    133279.85   -42053.955    3636.4468   -45690.402   0.16121829 
   50500    298.82974   -996.82139    133269.02   -41989.663    3647.6405   -45637.303   0.16523165 
   50600    302.56917   -984.99742    133330.23   -41884.717    3693.2855   -45578.002   0.16378477 
   50700    295.88942   -1019.4231    133297.08   -42127.845    3611.7497   -45739.595   0.16277755 
   50800    298.11244   -997.41334    133273.44   -42133.888    3638.8849   -45772.773   0.15250756 
   50900    295.37144   -1009.1288     133281.5   -42146.262     3605.427   -45751.689   0.15701348 
   51000    294.79265   -1015.3251    133274.39   -42111.574     3598.362   -45709.936   0.16062345 
   51100    297.82984   -989.38279    133291.19   -42110.648    3635.4353   -45746.083   0.15961439 
   51200    294.15588   -989.49942    133269.76   -42160.657    3590.5894   -45751.246   0.16069659 
   51300    295.88451   -992.81079    133254.34   -42177.043    3611.6898   -45788.733   0.15374277 
   51400    295.74324    -997.0089    133287.54    -42111.09    3609.9653   -45721.055   0.15921934 
   51500    296.01388   -1016.3184    133279.18   -42143.722    3613.2689   -45756.991   0.16286434 
   51600    298.58558   -1000.7682    133297.59   -42091.223    3644.6602   -45735.883   0.15850978 
   51700    299.83149   -1001.5624     133315.9   -42030.363    3659.8683   -45690.231   0.16521337 
   51800    302.75811   -977.36051    133316.41   -42023.681    3695.5918   -45719.272    0.1503877 
   51900    296.17006    -1007.579    133310.76   -42085.119    3615.1753   -45700.294   0.16272041 
   52000    292.76737   -1028.2857     133309.5    -42084.88    3573.6406   -45658.521   0.16302794 
   52100    289.24355   -976.71864    133306.51   -42161.975    3530.6274   -45692.602   0.15924215 
   52200    293.57304   -952.86626    133302.34   -42194.915    3583.4749    -45778.39   0.15532469 
   52300    290.79581   -981.61435    133292.48   -42185.419     3549.575   -45734.994   0.14948193 
   52400    291.31234   -972.32644    133296.36   -42268.558      3555.88   -45824.438   0.15514055 
   52500    292.83835   -963.98197    133282.41   -42147.533    3574.5071    -45722.04   0.15942653 
   52600    294.51705   -1001.0047    133308.81   -42066.423     3594.998   -45661.421   0.16388966 
   52700    297.39172   -986.32784    133322.29   -42082.191    3630.0873   -45712.278   0.15779422 
   52800    301.13703    -993.4829    133350.77   -41969.391    3675.8042   -45645.196    0.1576789 
   52900      301.926   -983.57682    133359.18   -42027.359    3685.4347   -45712.794    0.1616093 
   53000    301.25042   -1019.9142    133355.09   -41992.406    3677.1883   -45669.594   0.16396779 
   53100    294.93485   -1017.4021    133314.07   -42114.752    3600.0978    -45714.85   0.15871705 
   53200    292.83156   -976.12449    133293.05   -42163.814    3574.4242   -45738.239   0.15629932 
   53300    293.99189    -988.5525    133291.41   -42154.113    3588.5877   -45742.701   0.15250343 
   53400    295.86819   -998.26319     133304.3   -42066.799    3611.4905   -45678.289   0.16436245 
   53500    300.00372   -997.06211    133315.58    -42036.35    3661.9706    -45698.32   0.15789396 
   53600    295.37955   -1051.8695     133312.1   -42119.025     3605.526   -45724.551   0.15942824 
   53700    292.83509   -1018.9862    133314.76    -42076.06    3574.4672   -45650.527   0.15895454 
   53800    296.76799   -1008.4615     133276.4   -42114.848    3622.4739   -45737.322   0.15523227 
   53900    293.67254   -980.71986    133253.69   -42116.331    3584.6896   -45701.021   0.16166572 
   54000    292.57866   -988.17201    133284.58   -42144.953    3571.3372    -45716.29   0.15662281 
   54100    299.41956   -996.00683    133285.97   -42091.471      3654.84   -45746.311   0.15718566 
   54200    304.57028   -992.63098    133297.48     -42041.6    3717.7119   -45759.312   0.15679181 
   54300    302.89878   -1005.5083    133305.25   -41971.544    3697.3089   -45668.853   0.15955336 
   54400    301.24253   -1011.3428    133307.87   -41930.463     3677.092   -45607.555   0.16365296 
   54500    295.66502   -1005.8351     133301.7   -41994.434    3609.0106   -45603.445    0.1626117 
   54600     299.2815   -987.55858    133304.21   -41975.829    3653.1548   -45628.984   0.15824466 
   54700    300.16905   -968.22899    133289.87   -42007.738    3663.9887   -45671.726   0.16130684 
   54800    300.79896   -994.31644    133310.93   -41983.831    3671.6776   -45655.509   0.15944406 
   54900    296.23017   -1016.1868    133315.59   -41995.727     3615.909   -45611.636   0.16377204 
   55000    299.39542   -1028.2376    133307.57   -42016.429    3654.5454   -45670.975   0.16092043 
   55100    299.68921   -993.36243    133301.64   -42022.943    3658.1316   -45681.074   0.16013153 
   55200    298.19277   -1010.8284    133267.08   -42161.134    3639.8654       -45801   0.15364234 
   55300    294.26912   -1026.7777    133260.55   -42215.616    3591.9717   -45807.587   0.15820834 
   55400    297.01326   -1001.3317    133265.04   -42150.859    3625.4677   -45776.327   0.15199343 
   55500    293.92052   -999.78343    133289.91   -42149.622    3587.7165   -45737.339    0.1568724 
   55600    297.08572   -956.11004    133316.39   -42029.728    3626.3522    -45656.08   0.15301308 
   55700    299.69863   -995.06477    133330.89   -41979.885    3658.2465   -45638.132   0.15819157 
   55800    299.73762   -975.41323    133342.89   -41969.219    3658.7224   -45627.941   0.16224018 
   55900    303.81016   -971.12684    133354.47   -42001.124    3708.4336   -45709.557    0.1504027 
   56000    294.71707   -1030.3077    133365.65   -42007.762    3597.4395   -45605.201   0.16455046 
   56100    300.94834    -995.0857    133379.11   -41990.538     3673.501   -45664.039   0.15388875 
   56200    301.14152   -983.72946       133354   -42008.138     3675.859   -45683.997   0.15969162 
   56300    289.72181   -993.28141    133324.14   -42097.579    3536.4653   -45634.045   0.15909595 
   56400      297.734   -976.86005     133321.1   -42134.198    3634.2655   -45768.464   0.14695349 
   56500    291.97942   -1000.1125    133284.84   -42190.415    3564.0226   -45754.438   0.15487122 
   56600    289.32608   -983.91803    133276.31   -42235.359    3531.6348   -45766.993   0.15354991 
   56700    294.24568   -979.01558    133294.14   -42186.559    3591.6856   -45778.245   0.15183633 
   56800    298.50303   -975.08937    133308.88    -42081.71    3643.6525   -45725.363   0.16267327 
   56900    294.27832    -1006.987     133294.7   -42196.316    3592.0839     -45788.4   0.14639562 
   57000    290.55258   -1040.2931    133253.23   -42213.205     3546.606   -45759.811   0.16131899 
   57100    298.62282   -998.79637    133292.58   -42092.175    3645.1147   -45737.289   0.15439322 
   57200    294.17092   -983.32178    133327.18   -42055.238     3590.773   -45646.011   0.15537181 
   57300     288.2819    -1023.228     133288.5   -42182.531    3518.8891    -45701.42   0.15898938 
   57400    295.82557   -1001.2821    133314.65   -42091.187    3610.9703   -45702.158   0.15472426 
   57500    296.35404   -1001.0057     133317.1   -42081.883     3617.421   -45699.304   0.15907871 
   57600    296.83441   -964.09586    133299.56   -42159.325    3623.2847    -45782.61   0.15617932 
   57700    294.10358   -938.76636    133310.62   -42109.653     3589.951   -45699.604   0.14953292 
   57800    295.30181   -1053.6853    133328.96   -42032.543    3604.5771    -45637.12   0.16630597 
   57900     293.2187   -992.06735    133331.64   -42098.797    3579.1497   -45677.946   0.15474998 
   58000    296.00905   -1001.3664    133336.75   -42029.671      3613.21   -45642.881   0.15651251 
   58100    297.58447   -1012.6439    133338.03   -42096.673    3632.4402   -45729.113   0.15916539 
   58200     300.8109   -974.21079    133329.61   -41935.375    3671.8234   -45607.199   0.15515334 
   58300    299.36153   -959.95447     133317.2   -42009.179    3654.1317   -45663.311   0.15979106 
   58400      296.998   -1008.3534     133319.3   -42050.021    3625.2815   -45675.303   0.15777046 
   58500    296.37473   -1004.1141    133327.77   -42081.179    3617.6736   -45698.853   0.15630677 
   58600    292.54742   -1016.3296    133316.15   -42121.437    3570.9559   -45692.392   0.15882652 
   58700     296.8486   -961.76708    133322.07   -42075.289    3623.4579   -45698.747   0.15560522 
   58800    297.88552   -990.59823    133313.73   -42082.487     3636.115   -45718.602   0.15456823 
   58900    299.29156   -1013.8237    133315.85    -42027.62    3653.2776   -45680.897    0.1663288 
   59000    302.58653   -1028.4403    133349.69    -41945.91    3693.4974   -45639.407    0.1513212 
   59100    301.81423   -1016.0899    133339.85   -41963.262    3684.0704   -45647.332    0.1670134 
   59200     296.7929    -1015.999    133329.22   -42043.551    3622.7779   -45666.329   0.15344933 
   59300    301.90042   -999.15688    133319.09   -42056.511    3685.1225   -45741.633   0.15733406 
   59400    296.77645   -979.82214    133323.94    -42030.62    3622.5772   -45653.197   0.15800167 
   59500    291.63883   -1004.6853    133302.41   -42142.644    3559.8653   -45702.509   0.14779565 
   59600    297.64139   -954.93708    133289.58   -42076.092     3633.135   -45709.227   0.15725445 
   59700       296.87   -985.80608    133307.84   -42032.556    3623.7191   -45656.275   0.15621493 
   59800    295.17556   -980.84648     133268.9   -42162.748    3603.0361   -45765.784   0.15384715 
   59900    290.62177   -981.31799    133258.85   -42161.328    3547.4505   -45708.779   0.15866824 
   60000    293.48092   -977.27835    133292.64   -42112.899    3582.3506    -45695.25   0.15155233 
   60100    298.84491   -1026.8146    133297.23   -42102.718    3647.8256   -45750.543   0.15567401 
   60200    300.71337   -1018.6714    133308.57   -42070.847    3670.6328    -45741.48   0.15283936 
   60300    296.89377   -1015.9755    133311.54   -42006.897    3624.0093   -45630.906   0.15683908 
   60400    297.77068   -1007.3356    133314.09   -41964.274    3634.7132   -45598.988   0.16472636 
   60500    305.18049   -961.70171    133349.25   -41955.022    3725.1604   -45680.182   0.14876199 
   60600     298.8875   -1003.8571    133317.39   -42044.296    3648.3455   -45692.642   0.16066619 
   60700    302.48362   -1024.9686    133342.67   -41907.898    3692.2412   -45600.139   0.15849826 
   60800    298.62969   -1010.2699    133355.02   -41905.033    3645.1986   -45550.232   0.16294649 
   60900    305.59646   -1014.8789    133367.34   -41964.203    3730.2378   -45694.441   0.15835111 
   61000    298.70745   -984.89899    133345.38   -42054.847    3646.1478   -45700.995   0.15529017 
   61100    298.87983   -1011.6286    133327.61   -41989.473    3648.2518   -45637.725   0.16069483 
   61200    302.18625   -965.18227     133324.4   -42010.234    3688.6114   -45698.845   0.15939704 
   61300    296.14645   -998.07587    133326.04   -42036.123    3614.8871    -45651.01   0.15644356 
   61400    295.78544    -1031.215    133332.49   -42056.316    3610.4805   -45666.796   0.16030789 
   61500    298.73575   -1011.4555    133339.19   -42048.376    3646.4932   -45694.869   0.15369457 
   61600    298.33713   -1012.8599    133340.24   -42112.516    3641.6275   -45754.143   0.15373386 
   61700    297.77132   -971.64682    133317.92   -42118.024     3634.721   -45752.745   0.15272889 
   61800    291.80853   -1060.5274    133310.57   -42118.409    3561.9367   -45680.346   0.15491576 
   61900    298.55729   -1004.2717    133309.06   -42025.673    3644.3148   -45669.988   0.15703234 
   62000    297.39281   -965.44494    133321.86   -42046.537    3630.1007   -45676.638   0.15448102 
   62100    296.09953   -1001.3622    133315.66   -42074.014    3614.3144   -45688.328   0.15594292 
   62200    297.68893   -986.84183    133327.71   -41983.369    3633.7153   -45617.084   0.15502622 
   62300    295.80941   -993.59879    133317.99   -42093.806    3610.7731   -45704.579   0.15840522 
   62400    296.15179   -993.07215    133327.88   -42089.724    3614.9523   -45704.677   0.15116747 
   62500    296.98575   -1027.5846    133328.32   -42091.501    3625.1319   -45716.633   0.16355992 
   62600    293.59695   -1032.4432    133330.12   -42122.525    3583.7668   -45706.292   0.15174321 
   62700    295.57936   -1007.1551    133308.21   -42116.911     3607.965   -45724.876   0.15662411 
   62800    299.18083   -951.48665    133308.08   -42119.019    3651.9261   -45770.945   0.14936498 
   62900    298.05085   -986.95587    133334.41   -42062.833     3638.133   -45700.966   0.15101441 
   63000    296.19085    -1036.291    133339.65   -42104.998    3615.4291   -45720.427   0.15601565 
   63100    288.69749   -1031.0585    133310.53   -42164.771     3523.962   -45688.733   0.15393449 
   63200    294.84799   -966.09675    133335.83   -42033.167    3599.0376   -45632.204   0.15626455 
   63300    291.90755   -1030.0325    133347.12   -42130.688    3563.1454   -45693.833   0.15512283 
   63400    292.63466   -1017.1862    133328.09   -42196.352    3572.0207   -45768.372   0.14770392 
   63500    293.54606   -1012.4489    133329.14   -42145.764    3583.1457    -45728.91   0.15842274 
   63600    288.40387   -1028.9093     133318.2    -42215.78     3520.378   -45736.158   0.15041754 
   63700     290.4577   -983.64284     133322.4   -42232.987    3545.4478   -45778.435   0.14775201 
   63800    287.28128   -1024.3411    133295.15   -42255.376    3506.6751   -45762.051   0.15296237 
   63900    291.39114    -1022.998     133300.6   -42152.033    3556.8418   -45708.874   0.15210173 
   64000    296.49341    -972.1232    133295.61   -42069.295    3619.1222   -45688.417   0.16025673 
   64100    297.23848   -1046.0009    133354.43   -42042.136    3628.2169   -45670.353   0.15142319 
   64200    300.22148    -998.0056    133355.87   -42006.597    3664.6287   -45671.226   0.16205634 
   64300     300.1045   -997.31855    133353.98   -42014.617    3663.2007   -45677.818   0.15513934 
   64400    298.43298   -968.46472    133326.77   -42100.908    3642.7975   -45743.706     0.154173 
   64500    293.05389   -986.12898     133318.2   -42083.474     3577.138   -45660.613   0.16009943 
   64600    293.52799   -1029.0263     133317.4   -42154.875    3582.9251     -45737.8   0.15071966 
   64700    290.34546   -1053.6713    133302.43   -42178.318    3544.0778   -45722.396   0.15682082 
   64800    295.14718   -1023.7296    133316.76   -42102.639    3602.6896   -45705.329   0.15516272 
   64900    302.19261   -957.45385     133313.2   -42028.932    3688.6891   -45717.621   0.15038165 
   65000    300.01421   -988.78553    133334.56   -42002.022    3662.0986   -45664.121   0.16563481 
   65100    299.93182   -1002.2613    133320.15   -42058.093    3661.0929   -45719.186   0.14903542 
   65200    297.73941   -984.38464     133303.1   -42081.715    3634.3315   -45716.047    0.1626942 
   65300     300.1111   -970.18259    133314.52   -41986.517    3663.2812   -45649.799   0.15623565 
   65400    297.21063   -976.42039    133296.23   -42037.527    3627.8769   -45665.404   0.15733972 
   65500    296.40833   -983.21282    133295.66   -41970.133    3618.0837   -45588.217    0.1670466 
   65600    304.61761   -965.28123    133313.94   -41968.054    3718.2896   -45686.344   0.15155633 
   65700    298.46069   -1021.9573    133308.35     -41967.7    3643.1357   -45610.835   0.17005521 
   65800    301.51974   -999.82854    133306.91   -42019.382    3680.4757   -45699.858   0.15304098 
   65900    301.17345   -1006.2521    133291.75   -42038.703    3676.2487   -45714.951   0.15971347 
   66000    299.56503   -1003.6809    133298.66    -42034.82    3656.6158   -45691.436   0.15931541 
   66100    293.30848   -995.16193    133284.69   -42068.004    3580.2457    -45648.25   0.15501013 
   66200    295.65125    -989.0396    133268.64   -42138.097    3608.8425   -45746.939   0.15661947 
   66300    298.21988   -1003.8646    133271.11   -42128.435    3640.1962   -45768.631   0.15299534 
   66400    293.54801   -990.35205    133272.97   -42102.467    3583.1695   -45685.636   0.15446869 
   66500    297.78831   -975.45104    133292.73   -42078.248    3634.9283   -45713.176   0.16029458 
   66600    296.78723   -979.86299    133297.76   -42119.317    3622.7087   -45742.026   0.14849046 
   66700    300.14828   -967.98969    133284.64   -42114.131    3663.7351   -45777.866   0.15995641 
   66800    294.81265   -975.78182    133283.61   -42149.675    3598.6062   -45748.281   0.15508011 
   66900    290.29687   -1019.1883    133287.54   -42128.125    3543.4847    -45671.61   0.16593904 
   67000    287.97047   -1026.0867    133264.15   -42237.306    3515.0877   -45752.394     0.162025 
   67100    297.94358   -970.98727    133316.75   -42065.978    3636.8236   -45702.801   0.15152319 
   67200    290.50249   -999.57752     133291.3   -42121.063    3545.9945   -45667.057   0.16107455 
   67300    293.59645   -1000.6146    133305.82   -42118.434    3583.7607   -45702.195    0.1516879 
   67400    296.10237   -999.25146    133311.72   -42080.572    3614.3491   -45694.921   0.16107858 
   67500    303.32681   -981.71927    133292.98   -42059.673    3702.5335   -45762.207   0.15373659 
   67600    300.64037   -1009.9292     133293.4   -41943.642    3669.7418   -45613.384   0.16530509 
   67700    301.36709   -985.42189    133317.55   -41994.126    3678.6124   -45672.739   0.15984724 
   67800    302.32262   -986.43788    133313.64    -42033.14     3690.276   -45723.416   0.16040554 
   67900    296.19536   -981.46841    133302.89    -42051.51    3615.4842   -45666.994   0.15983946 
   68000    294.05211   -996.39618    133284.53   -42095.326    3589.3227   -45684.649   0.16058036 
   68100     297.9416   -993.58467    133279.28   -42106.427    3636.7994   -45743.227   0.15653047 
   68200    291.36326   -986.97451    133291.25   -42117.647    3556.5015   -45674.148   0.16314675 
   68300    293.42788   -995.58166    133324.47   -42037.638    3581.7031   -45619.342   0.16196099 
   68400    304.20412   -1002.3552    133329.61   -41968.711    3713.2423   -45681.954    0.1657778 
   68500     298.2329    -998.2491    133316.59   -41996.704    3640.3551   -45637.059   0.15808739 
   68600    301.44315     -991.862    133310.65   -42026.982    3679.5408   -45706.523   0.15894973 
   68700      292.726   -990.63504    133294.87   -42056.777    3573.1357   -45629.913   0.15737047 
   68800    298.76937   -1028.9259    133312.41   -42056.762    3646.9036   -45703.665   0.15917784 
   68900    300.19198   -991.90195    133284.96   -42041.889    3664.2686   -45706.157   0.16421583 
   69000     296.9701   -988.59204    133267.63    -42027.98    3624.9409   -45652.921   0.15901722 
   69100    291.97677   -1010.5653    133260.58   -42145.947    3563.9902   -45709.937   0.16258038 
   69200    290.46106   -1019.5309    133256.09   -42113.623    3545.4889   -45659.112   0.15931022 
   69300    291.49801   -993.60266    133256.51   -42136.686    3558.1463   -45694.833   0.16385165 
   69400    295.24973   -976.78232    133260.18   -42203.428    3603.9414   -45807.369   0.15564808 
   69500    290.56789   -998.10156    133260.06   -42135.648    3546.7929   -45682.441   0.16195855 
   69600    303.29174   -992.36475    133320.83   -41940.196    3702.1055   -45642.302   0.16321234 
   69700     293.4191   -1029.6353    133299.76   -42020.846     3581.596   -45602.442   0.16849926 
   69800    296.98314    -987.8874     133280.5   -42074.734    3625.1001   -45699.834   0.15588442 
   69900    294.00196   -967.90917    133264.73   -42142.193    3588.7105   -45730.903   0.15805658 
   70000    299.33385   -974.24596    133276.47   -42053.572    3653.7938   -45707.366   0.15329947 
   70100    295.64149   -985.27542    133273.04   -42165.128    3608.7233   -45773.851   0.16165006 
   70200    303.72037   -1019.5909    133280.26   -42044.109    3707.3375   -45751.446   0.15537744 
   70300    298.47015   -987.70179    133278.03   -42092.035    3643.2512   -45735.286    0.1612415 
   70400    301.56909   -1009.2309    133304.81   -41961.287    3681.0781   -45642.366   0.16234641 
   70500    295.75139   -1002.8057    133313.99   -42064.309    3610.0648   -45674.374   0.16078629 
   70600    294.89025   -991.96413     133307.4   -42065.551    3599.5534   -45665.104   0.16122783 
   70700    296.51704   -1002.8287    133282.28   -42071.916    3619.4107   -45691.327   0.16079372 
   70800    299.87633   -998.69625    133273.68   -42100.325    3660.4156    -45760.74   0.15737382 
   70900    295.20712   -995.39572    133263.73   -42131.602    3603.4212   -45735.023   0.15778733 
   71000    298.29644   -992.00635    133256.88   -42094.746    3641.1308   -45735.877   0.16011309 
   71100    295.66228   -972.33195    133267.75   -42152.641    3608.9771   -45761.618   0.15764069 
   71200    298.61513   -1000.5175    133278.99   -42079.862    3645.0208   -45724.883   0.15834894 
   71300    295.58576   -1030.6103    133294.28   -42189.654    3608.0431   -45797.697   0.15192587 
   71400    294.30737   -1025.0711    133266.69   -42118.684    3592.4385   -45711.122    0.1627006 
   71500    295.96913   -998.04837    133300.54    -42076.25    3612.7227   -45688.973    0.1538113 
   71600    299.12291     -998.258    133311.15   -42064.056     3651.219   -45715.275   0.16181707 
   71700    299.58612   -987.88808    133310.32    -42098.78    3656.8731   -45755.653   0.15157923 
   71800    294.49914   -1003.6918    133267.23   -42192.291    3594.7794   -45787.071   0.15800611 
   71900     293.3248   -1017.3388    133233.15   -42198.198    3580.4448   -45778.643    0.1560904 
   72000     290.2872   -1030.2592    133265.09   -42189.568    3543.3666   -45732.934   0.16053001 
   72100    295.85771   -996.71092    133283.76   -42045.659    3611.3626   -45657.022   0.15941966 
   72200    298.75361   -1005.4274    133316.73   -41921.615    3646.7112   -45568.326   0.16424356 
   72300    308.19942   -1006.7953    133372.56   -41855.294    3762.0106   -45617.304   0.15694339 
   72400    301.79263   -994.10131    133327.24   -42013.156    3683.8067   -45696.963   0.16164653 
   72500     300.8156   -1010.0517    133347.79   -42024.316    3671.8807   -45696.197   0.15519538 
   72600    302.85047   -976.41339     133358.3   -41959.725    3696.7191   -45656.444   0.16089464 
   72700    299.55825    -997.6359    133336.67   -42067.312     3656.533   -45723.845   0.15527886 
   72800    296.14613   -999.96905    133322.67   -42048.991    3614.8832   -45663.874   0.15824281 
   72900    296.04907   -989.83253    133324.98   -42035.244    3613.6985   -45648.942   0.16214663 
   73000    295.04537   -1002.3397    133319.45   -42079.893    3601.4468    -45681.34   0.14902993 
   73100    296.75989   -1012.7607    133300.64   -42053.348     3622.375   -45675.723   0.16411169 
   73200    302.47117   -1002.2148    133346.43   -41971.388    3692.0893   -45663.477   0.15374392 
   73300    301.81794   -995.67865    133338.07   -41915.743    3684.1156   -45599.859   0.16320866 
   73400    302.67495   -1003.7701     133343.1   -41927.951    3694.5767   -45622.527   0.16027404 
   73500    304.61868   -1000.8568    133367.42   -41910.342    3718.3027   -45628.645   0.15673135 
   73600    305.37892   -1006.9383    133341.59   -41944.899    3727.5825   -45672.482   0.15991399 
   73700    294.73341   -992.27949     133332.8   -42051.729     3597.639   -45649.368   0.16214154 
   73800    295.21302   -1031.7824    133324.42   -42139.922    3603.4933   -45743.416   0.15365162 
   73900    290.95023   -998.08699    133310.13   -42092.237    3551.4599   -45643.697   0.16298938 
   74000    305.35247   -938.72963    133321.87   -42080.584    3727.2596   -45807.843   0.14383323 
   74100    307.03939    -978.3152    133334.86   -41924.542    3747.8509   -45672.393   0.16629342 
   74200     296.0833   -1025.2254    133340.34   -42028.053    3614.1163   -45642.169   0.15640296 
   74300    296.60133   -989.42687    133302.62   -42089.296    3620.4395   -45709.735    0.1556367 
   74400    293.18944   -1013.3422    133282.49   -42052.722    3578.7926   -45631.514   0.15764539 
   74500    295.98059   -973.15313    133276.03   -42123.357    3612.8625   -45736.219   0.14682472 
   74600    296.08495   -961.90772    133283.78   -42068.691    3614.1364   -45682.828   0.16254223 
   74700    297.44827   -1006.1778    133302.84    -42013.93    3630.7777   -45644.708   0.15645886 
   74800    297.90383   -1002.6768    133284.45   -42078.195    3636.3384   -45714.533   0.16276803 
   74900    296.52071   -1009.1797    133295.05   -42046.152    3619.4555   -45665.608   0.15832456 
   75000    297.94705   -997.37024     133276.4   -42095.784     3636.866    -45732.65   0.15517108 
   75100     302.2571    -950.6133    133336.46     -41999.5    3689.4762   -45688.976   0.15856759 
   75200    300.26593   -989.91896    133334.44   -42009.053    3665.1712   -45674.224   0.15838456 
   75300    290.36517   -1041.7757    133316.14   -42079.383    3544.3184   -45623.701   0.15950445 
   75400    297.82881   -1013.9523    133302.12     -42107.1    3635.4227   -45742.523   0.15667447 
   75500    297.11071   -967.05572    133305.85   -42127.391    3626.6573   -45754.048   0.14885106 
   75600    303.68404   -959.65606    133318.58   -42049.614     3706.894   -45756.508   0.15754606 
   75700    302.97149   -993.57873    133314.77   -41961.345    3698.1963   -45659.541   0.15245678 
   75800    300.34538   -982.26072    133332.51   -41953.216     3666.141   -45619.357   0.16556162 
   75900    299.41368   -1003.6929    133316.67    -42007.95    3654.7682   -45662.718   0.15505537 
   76000    294.90397   -1017.6704       133312   -42003.044    3599.7209   -45602.765   0.16735576 
   76100    289.84634   -960.06747    133274.88   -42090.377    3537.9853   -45628.363   0.15623238 
   76200    296.19193   -1002.9272     133281.9   -42149.305    3615.4423   -45764.747   0.15384269 
   76300    297.95594   -998.73011    133273.41   -42105.821    3636.9746   -45742.795   0.16255524 
   76400    298.62653   -1009.8726    133298.64   -42122.671      3645.16   -45767.831   0.14994745 
   76500    296.26008   -990.49425    133296.63   -42073.241    3616.2741   -45689.515   0.16533393 
   76600    296.05969   -978.01616    133290.77   -42057.937     3613.828   -45671.765   0.15328846 
   76700    297.47911   -983.43417    133301.94   -42017.351    3631.1541   -45648.505   0.15748413 
[...]
   81900    298.91584   -988.17161     133333.3   -42130.908    3648.6915     -45779.6   0.15876081 
   82000     301.0633   -984.61362     133338.2   -42062.565    3674.9042   -45737.469    0.1537136 
   82100    297.51038   -1026.5845    133397.56   -42021.587    3631.5358   -45653.123   0.16151428 
   82200    301.60056   -1004.0148    133373.57   -41969.081    3681.4622   -45650.543   0.15968076 
   82300    294.97281   -1038.2092    133354.82   -42076.832    3600.5612   -45677.393   0.15558791 
   82400    299.28031   -991.08653    133366.57   -41996.357    3653.1403   -45649.497   0.16755748 
   82500    302.92861   -991.28288    133397.54   -41883.636    3697.6729   -45581.309    0.1537587 
   82600    303.74289   -950.74956    133388.22   -41936.242    3707.6124   -45643.854   0.16016724 
   82700    299.77088   -1012.3802    133369.55   -42060.764    3659.1284   -45719.893   0.15339092 
   82800    297.67064   -1014.6134    133356.03    -42056.92     3633.492   -45690.412    0.1542723 
   82900    299.12048   -1020.8457    133357.77   -42016.686    3651.1893   -45667.876    0.1643973 
   83000    296.40301   -1011.1448    133372.86   -41982.548    3618.0188   -45600.567   0.15961829 
   83100    301.40676   -1013.3772    133378.84   -41962.152    3679.0967   -45641.249   0.15894209 
   83200    297.77117   -966.58384    133365.03   -42021.023    3634.7191   -45655.742   0.16281187 
   83300    301.94421   -974.46123    133333.74   -42038.273     3685.657    -45723.93   0.14948125 
   83400    297.04933    -1039.733    133340.46   -42053.444     3625.908   -45679.352   0.16569618 
   83500    293.98507   -1000.2976    133318.33   -42186.866    3588.5044    -45775.37    0.1483864 
   83600    293.65191   -1000.9807    133334.08   -42154.245    3584.4377   -45738.683    0.1580248 
   83700    295.02663   -997.37142    133320.92    -42150.68    3601.2181   -45751.898   0.15707352 
   83800     296.0653   -1027.4777    133311.93   -42133.606    3613.8966   -45747.503   0.15204907 
   83900    290.86969   -1014.7499    133296.78   -42100.916    3550.4767   -45651.392   0.16615756 
   84000    294.17178   -966.52738    133328.73   -42107.636    3590.7835    -45698.42   0.14980356 
   84100    299.44023   -1010.9654    133323.85   -42072.358    3655.0924   -45727.451   0.15915262 
   84200    296.84924   -989.12741    133336.42   -42047.285    3623.4657   -45670.751   0.16043327 
   84300    299.06163   -1004.4239    133329.72   -42114.421     3650.471   -45764.892   0.15404179 
   84400    301.35198   -979.10522    133330.03   -42102.283     3678.428   -45780.711   0.15732004 
   84500    291.70397   -1012.8167    133325.39   -42114.874    3560.6604   -45675.535   0.15634396 
   84600    298.25342   -985.11621    133343.21   -42047.719    3640.6056   -45688.324   0.15707248 
   84700    296.71983   -1010.4025    133326.65   -42062.156    3621.8861   -45684.042    0.1660213 
   84800    295.34332   -994.55255     133327.9   -42057.553    3605.0837   -45662.637   0.15208581 
   84900     298.9803   -971.58355    133326.25   -41973.491    3649.4783   -45622.969   0.16641192 
   85000    298.26843   -1002.9301     133327.6   -42055.836    3640.7889   -45696.625   0.15242614 
   85100    295.34442   -977.73718    133314.18   -42090.929    3605.0972   -45696.026   0.15891418 
   85200    294.73697   -1016.0022    133307.21   -42064.736    3597.6824   -45662.418   0.16029078 
   85300    297.12631    -975.1162    133310.32   -42070.918    3626.8477   -45697.766    0.1558081 
   85400    295.67956   -1012.2906    133311.93   -42126.345     3609.188   -45735.533   0.15803995 
   85500    294.65293   -998.45101    133331.89   -42078.503    3596.6565    -45675.16   0.15414165 
   85600    294.18267    -1019.248     133301.3   -42112.222    3590.9164   -45703.139    0.1602516 
   85700    295.01478   -958.14539    133309.87   -42107.723    3601.0734   -45708.796    0.1553031 
   85800    296.98609   -1005.6845    133318.13   -42066.179    3625.1361   -45691.315   0.15683496 
   85900    299.73723   -976.56569    133330.51   -42020.226    3658.7176   -45678.944   0.16119494 
   86000    297.95083   -968.40493    133289.86   -42072.394    3636.9121   -45709.306   0.16085218 
   86100    292.58562   -1018.4456    133304.51   -42037.935    3571.4221   -45609.357   0.16420022 
   86200    296.21294   -1009.5873    133311.33   -42047.231    3615.6987    -45662.93   0.16340606 
   86300    298.58158   -1039.4563    133315.06   -42080.568    3644.6113   -45725.179   0.15831383 
   86400    292.34312   -1024.3882    133289.69   -42114.158    3568.4621    -45682.62   0.16033912 
   86500    292.83329    -1054.565    133286.52   -42161.912    3574.4453   -45736.357   0.15510184 
   86600    301.39607   -999.83854    133295.09    -42033.64    3678.9661   -45712.606   0.16222784 
   86700    300.67894   -961.82399    133290.44   -42037.403    3670.2126   -45707.616   0.15381732 
   86800     294.3143   -1000.0901    133295.26     -42104.5    3592.5231   -45697.023   0.16077361 
   86900    296.27922   -988.92918    133307.78   -42061.883    3616.5077   -45678.391   0.15345092 
   87000     299.2489   -986.26548    133322.39   -42034.222    3652.7569   -45686.979   0.16052819 
   87100    300.84046   -1022.3183    133324.64   -42070.461    3672.1841   -45742.646   0.15758147 
   87200    294.26027    -1018.083    133330.28   -42032.755    3591.8636   -45624.619     0.161795 
   87300    296.34482   -1031.8356    133330.01   -41998.349    3617.3085   -45615.657   0.16777638 
   87400    298.90274   -977.04554    133319.73   -42049.435    3648.5315   -45697.967   0.15513857 
   87500      299.421   -944.34264    133319.61   -42012.282    3654.8576    -45667.14   0.15958514 
   87600    302.96616   -1008.9019    133321.58   -42044.015    3698.1313   -45742.146   0.15568857 
   87700    302.18361   -1005.1184    133328.74   -42032.913    3688.5791   -45721.492   0.15981983 
   87800    295.06992   -1008.5942    133288.28   -42067.325    3601.7466   -45669.072   0.16194532 
   87900    292.95325   -1012.3346     133296.5   -42124.013    3575.9096   -45699.923     0.154533 
   88000    296.11174   -993.76882    133325.91   -42084.854    3614.4634   -45699.317    0.1574058 
   88100    299.49541   -1011.9328    133327.74   -42049.991    3655.7659   -45705.757   0.16115073 
   88200    296.11963   -1007.6374    133312.23   -42140.115    3614.5597   -45754.675   0.15147782 
   88300    295.78965   -956.25365    133297.01   -42104.567    3610.5319   -45715.099   0.15775862 
   88400    297.25153   -1047.1996    133306.39   -42048.156    3628.3762   -45676.532   0.15342676 
   88500     296.9904   -993.50202    133299.17   -42097.212    3625.1887   -45722.401   0.16222757 
   88600    300.66398   -991.92005    133289.49   -42076.559    3670.0299   -45746.589   0.15575861 
   88700    298.62187   -1004.2205     133306.3   -42050.994    3645.1031   -45696.097   0.16176061 
   88800    294.09078   -1027.5769    133286.11   -42083.885    3589.7947   -45673.679   0.16525227 
   88900    293.00315   -982.48738    133265.32   -42084.272    3576.5187   -45660.791   0.15913071 
   89000    298.83626   -1027.5006    133281.63   -42021.659      3647.72   -45669.379   0.16489674 
   89100    293.87028   -1011.4999    133275.68   -42072.705    3587.1032   -45659.809   0.16001554 
   89200    296.07144   -999.56683    133272.65   -42019.651    3613.9715   -45633.623    0.1584331 
   89300    295.30829   -1037.6231    133251.26   -42139.059    3604.6562   -45743.715   0.16454545 
   89400     299.9645   -1013.6644    133261.51    -42020.86    3661.4918   -45682.352   0.15654532 
   89500    297.38882   -1026.4247    133264.07   -42110.925     3630.052   -45740.977   0.15955743 
   89600    291.83813    -1001.992    133231.53   -42198.629     3562.298   -45760.927   0.15791951 
   89700     296.1045   -1008.3133    133265.62   -42099.812    3614.3751   -45714.187   0.15547684 
   89800    301.33145   -1032.3303    133261.36    -42045.16    3678.1774   -45723.338   0.16866425 
   89900    304.13999   -1011.3515    133284.29    -42028.91    3712.4596   -45741.369   0.15151667 
   90000    300.42449   -1007.6178    133276.85   -42068.957    3667.1066   -45736.064   0.16027935 
   90100    304.67686   -976.67401    133266.25   -42012.985    3719.0128   -45731.998   0.15871598 
   90200    297.61024   -1003.9567    133269.63   -42073.382    3632.7547   -45706.136   0.15968537 
   90300    297.04167   -1013.3064    133252.75   -42091.033    3625.8145   -45716.848   0.16267298 
   90400    301.16862    -1001.275    133297.36   -42058.673    3676.1898   -45734.862   0.15647793 
   90500     299.7905   -994.57279    133301.61    -42061.17     3659.368   -45720.538   0.15643037 
   90600     297.5231   -1010.0106    133280.15   -42029.351     3631.691   -45661.042    0.1632997 
   90700    299.14611   -1010.9618    133275.08   -42078.994    3651.5022   -45730.496   0.15499065 
   90800    296.61881   -1036.9893    133254.69   -42119.489    3620.6529   -45740.142    0.1634164 
   90900    296.41428   -975.17485    133254.27   -42043.349    3618.1563   -45661.505   0.15489708 
   91000    292.45495   -988.68122    133263.57   -42142.168    3569.8272   -45711.996   0.15992687 
   91100    290.44797   -1033.2903    133248.56   -42205.433    3545.3291   -45750.762   0.15657462 
   91200     294.8817   -1033.8895    133249.86   -42203.016    3599.4491   -45802.465   0.15472163 
   91300    290.06513   -1027.5396    133259.86   -42144.655    3540.6559   -45685.311   0.16322367 
   91400    293.91264   -986.19141    133281.84   -42080.884    3587.6203   -45668.505   0.15427264 
   91500    302.16041   -1016.7105    133315.39   -41926.455     3688.296   -45614.751   0.16897529 
   91600    303.15014   -1011.1429    133329.78   -41973.628    3700.3771   -45674.005   0.16074132 
   91700    297.48952   -1020.1244    133269.94   -42069.067    3631.2812   -45700.348   0.16362104 
   91800      297.937    -976.5664    133289.18   -41955.133    3636.7433   -45591.876   0.15917167 
   91900    299.01073    -991.1765    133306.09   -42015.136    3649.8497   -45664.985   0.15679796 
   92000    304.01366   -996.15249    133316.16   -42025.142    3710.9176    -45736.06   0.15695522 
   92100    298.59505   -1000.5422    133289.88   -42073.599    3644.7758   -45718.375   0.16072291 
   92200    296.02235   -995.01173    133279.51    -42097.57    3613.3723   -45710.942   0.15617092 
   92300    298.48599   -995.13492    133299.64   -41978.598    3643.4444   -45622.043   0.16242187 
   92400    296.21912   -1042.3107    133309.53    -42030.68    3615.7742   -45646.455    0.1602137 
   92500    298.18389   -1003.0354    133298.16   -42004.977     3639.757   -45644.734   0.16192598 
   92600    298.21095   -976.77497    133319.56   -41948.766    3640.0873   -45588.853   0.16090596 
   92700    299.32068   -984.97579    133314.83   -42039.524    3653.6331   -45693.157    0.1593589 
   92800    298.60306   -1012.2515    133306.23   -42031.208    3644.8735   -45676.081    0.1568506 
   92900    298.48098   -1035.2189    133308.71    -42064.14    3643.3833   -45707.523   0.15953735 
   93000     295.9989   -1021.0389    133300.44   -42076.987     3613.086   -45690.073   0.16009155 
   93100    297.62968   -980.91082    133315.63   -42067.593     3632.992   -45700.585   0.15557503 
   93200    300.01253   -1024.8596    133334.51   -42060.142     3662.078    -45722.22    0.1593479 
   93300    300.32642   -982.70526    133327.37   -42119.659    3665.9096   -45785.569   0.14627398 
   93400    295.48528   -1010.2032    133311.78   -42169.101    3606.8166   -45775.918   0.15662022 
   93500    292.59209    -988.9603    133314.15   -42128.698    3571.5011   -45700.199   0.15545999 
   93600    292.25143   -968.75903    133306.46   -42098.246    3567.3429   -45665.589   0.15795529 
   93700    296.21274   -1016.8559    133324.13   -42082.631    3615.6962   -45698.327   0.16167627 
   93800     291.9884   -1024.6023    133323.03   -42128.719    3564.1323   -45692.852   0.15608345 
   93900    290.87959   -1004.3448    133311.45   -42161.579    3550.5976   -45712.177   0.15784129 
   94000    298.18175   -985.71766    133293.62    -42175.47    3639.7308   -45815.201   0.15340979 
   94100    295.37873   -1008.8773    133330.37   -42060.967     3605.516   -45666.483   0.15566224 
   94200    298.08877    -1007.864    133309.17   -42013.848    3638.5958   -45652.444   0.16388145 
   94300    294.95895   -1030.8868    133324.36   -42044.395     3600.392   -45644.787   0.15368559 
   94400    299.73534   -997.79498    133323.72   -42079.424    3658.6946   -45738.119   0.15981871 
   94500    303.60717   -1016.0965    133326.67   -41980.073    3705.9557   -45686.029   0.15518445 
   94600    295.55798   -993.09177    133310.21   -42097.371     3607.704   -45705.075   0.15683061 
   94700    302.70816   -1012.6417    133285.78   -42102.545    3694.9821   -45797.527   0.15672191 
   94800    296.63937   -1035.0974    133262.89   -42093.503    3620.9038   -45714.407   0.15542163 
   94900    291.72162   -1002.7959    133269.29   -42145.489    3560.8758   -45706.364   0.16287775 
   95000    293.79194   -1004.0814    133284.31   -42109.844     3586.147   -45695.991   0.15441547 
   95100    295.77303   -993.30251    133290.05   -42091.146     3610.329   -45701.475   0.16145494 
   95200    296.55566   -1027.9368    133302.41   -42061.347    3619.8821   -45681.229   0.15834969 
   95300    288.11359   -1021.6752    133307.39   -42083.491    3516.8347   -45600.326   0.15674527 
   95400    296.35607   -1003.5402    133320.46   -42049.846    3617.4458   -45667.292   0.15900177 
   95500    306.02491   -977.53729    133357.63   -42011.139    3735.4677   -45746.607   0.14688271 
   95600    296.03321   -1043.9182     133354.1   -42067.371    3613.5049   -45680.876   0.15771984 
   95700    295.07258   -991.71636    133345.17   -42040.881     3601.779    -45642.66    0.1582819 
   95800    295.68104    -1007.026    133319.91   -42051.986    3609.2061   -45661.192   0.15464579 
   95900    297.30892   -997.68534    133316.35   -42063.838    3629.0767   -45692.915   0.16273565 
   96000    296.94601   -991.68333    133375.02   -42025.394    3624.6469   -45650.041   0.14870457 
   96100    302.13594    -1004.957     133363.1    -41943.99    3687.9973   -45631.988    0.1636057 
   96200    300.30368   -994.74584     133349.6   -41977.545     3665.632   -45643.177   0.15942663 
   96300    304.81635   -932.66315    133339.97   -42009.253    3720.7156   -45729.968   0.15433651 
   96400    299.47426   -1046.9543    133352.47   -42055.659    3655.5078   -45711.166   0.16548211 
   96500    303.76005   -991.56781    133334.17    -42029.59    3707.8219   -45737.412   0.15281898 
   96600    296.87692   -1000.8603    133346.65   -42077.587    3623.8035    -45701.39   0.15967242 
   96700    299.26753    -999.7424    133332.93   -42058.277    3652.9843   -45711.261   0.15624655 
   96800    295.26728   -1034.6988    133303.67   -42071.896    3604.1556   -45676.051   0.15750411 
   96900    295.01645   -1043.0479    133297.15   -42118.998    3601.0938   -45720.092   0.16387396 
   97000    296.92835   -998.13726    133292.73   -42128.907    3624.4313   -45753.338   0.15059086 
   97100    298.64778   -980.15657     133299.3   -42122.049    3645.4193   -45767.468   0.15405436 
   97200    295.86012   -1022.3931     133297.9   -42109.357    3611.3921   -45720.749   0.15917878 
   97300    303.41418   -987.46035    133325.57   -41970.466       3703.6   -45674.066   0.15693212 
   97400    302.34177   -1032.8467    133316.96   -42020.537    3690.5098   -45711.047   0.16820089 
   97500    304.20406   -993.69373    133315.34   -41990.786    3713.2417   -45704.028    0.1558132 
   97600    298.24604   -1015.1043    133309.54   -41978.592    3640.5156   -45619.107   0.16776436 
   97700       296.93   -1009.7372    133330.97   -41962.815    3624.4514   -45587.267   0.16193857 
   97800     300.6533   -1011.9947     133324.5   -42012.616    3669.8995   -45682.515   0.15889389 
   97900    299.14163   -975.12712    133318.81   -42005.263    3651.4476    -45656.71   0.16210318 
   98000    300.32099   -978.36151    133331.98   -42055.659    3665.8433   -45721.502   0.15585065 
   98100    299.57523   -1011.2762    133341.87    -42051.16    3656.7403     -45707.9   0.16037765 
   98200    301.99279   -999.26584     133333.9    -42074.28      3686.25    -45760.53   0.15649971 
   98300    299.46196   -999.94542    133323.48   -41968.336    3655.3576   -45623.694   0.16044157 
   98400    298.69624   -989.68524    133330.61   -42017.899    3646.0109    -45663.91   0.16636344 
   98500    294.60082   -987.86143    133313.91   -42032.056    3596.0205   -45628.077   0.15898653 
   98600    295.24426   -980.78174    133307.44   -42038.325    3603.8746   -45642.199   0.16230415 
   98700    303.21004   -943.03808    133308.56   -41992.391    3701.1082   -45693.499   0.15818358 
   98800    302.29971   -1046.4677    133298.99   -41976.756    3689.9963   -45666.752   0.16431183 
   98900    294.10567   -1029.7229    133248.03   -42054.986    3589.9765   -45644.963   0.16764811 
   99000    294.45911   -1032.6065    133260.22   -42046.728    3594.2907   -45641.018   0.16348405 
   99100    299.25626   -1004.1649     133256.8   -42119.094    3652.8467   -45771.941   0.15803758 
   99200    296.76956   -982.03637    133257.84   -42082.191     3622.493   -45704.684   0.15846496 
   99300    299.43738   -929.41125    133310.46   -42066.513    3655.0576    -45721.57   0.15706254 
   99400    296.84368   -989.39909    133275.73   -42095.547    3623.3978   -45718.945   0.15909766 
   99500    297.06503   -981.99333    133308.38   -42058.548    3626.0997   -45684.647   0.16102469 
   99600    300.15349   -1015.1382    133308.42   -42033.509    3663.7987   -45697.307   0.15928443 
   99700    295.70591   -1021.0442    133298.21   -42089.656    3609.5097   -45699.166   0.15721808 
   99800     296.8436   -953.39411    133301.64   -42066.533    3623.3968   -45689.929   0.16082551 
   99900    290.53224   -1021.3269    133275.09   -42106.636    3546.3577   -45652.994   0.16312234 
  100000    293.93427    -1014.995    133289.18   -42070.037    3587.8843   -45657.922   0.16349792 
Loop time of 50.397 on 6 procs for 100000 steps with 4096 atoms

Performance: 857.194 ns/day, 0.028 hours/ns, 1984.246 timesteps/s
97.7% CPU use with 6 MPI tasks x no OpenMP threads

MPI task timing breakdown:
Section |  min time  |  avg time  |  max time  |%varavg| %total
---------------------------------------------------------------
Pair    | 32.825     | 34.08      | 35.534     |  15.3 | 67.62
Neigh   | 4.7525     | 4.9932     | 5.2551     |   9.5 |  9.91
Comm    | 6.9347     | 8.5541     | 9.4907     |  32.3 | 16.97
Output  | 0.16069    | 0.16185    | 0.16657    |   0.5 |  0.32
Modify  | 1.893      | 1.9193     | 1.9393     |   1.2 |  3.81
Other   |            | 0.6889     |            |       |  1.37

Nlocal:        682.667 ave         708 max         661 min
Histogram: 1 1 0 1 1 0 0 0 1 1
Nghost:        1370.17 ave        1382 max        1354 min
Histogram: 1 1 0 0 0 1 0 0 2 1
Neighs:        0.00000 ave           0 max           0 min
Histogram: 6 0 0 0 0 0 0 0 0 0
FullNghs:      19428.7 ave       20162 max       18809 min
Histogram: 1 1 0 1 1 0 0 1 0 1

Total # of neighbors = 116572
Ave neighs/atom = 28.459961
Neighbor list builds = 6341
Dangerous builds = 0

undump              1
unfix               2
unfix               3
unfix               4




################################################
#######         Run Simulation         #########
################################################

reset_timestep      0
log                 log.run_${NAME}
log                 log.run_ice_298K_1000atm_ML
