
# Set production fixes - Nose/Hoover
#
fix                 2 all nph iso ${PRES} ${PRES} ${PCOUPL}
fix                 2 all nph iso -1000 ${PRES} ${PCOUPL}
fix                 2 all nph iso -1000 -1000 ${PCOUPL}
fix                 2 all nph iso -1000 -1000 10000.0
fix                 3 all temp/csvr ${TEMP} ${TEMP} ${TCOUPL} 837492
fix                 3 all temp/csvr 298 ${TEMP} ${TCOUPL} 837492
fix                 3 all temp/csvr 298 298 ${TCOUPL} 837492
fix                 3 all temp/csvr 298 298 5000.0 837492

# Define Order parameter
#
compute             2 all orientorder/atom nnn NULL cutoff 3.5
thermo              200
thermo_style        custom step temp press vol etotal ke pe c_1[4]

# Run 1ns simulation
dump		    1 all custom 400 prod.${NAME}.dump id type x y z vx vy vz c_2[*]
dump		    1 all custom 400 prod.ice_298K_1000atm_ML.dump id type x y z vx vy vz c_2[*]
run                 200000
Neighbor list info ...
  update every 1 steps, delay 0 steps, check yes
  max neighbors/atom: 2000, page size: 100000
  master list distance cutoff = 6.0032907
  ghost atom cutoff = 6.0032907
  binsize = 3.0016454, bins = 18 18 18
  2 neighbor lists, perpetual/occasional/extra = 1 1 0
  (1) pair sw, perpetual
      attributes: full, newton on
      pair build: full/bin/atomonly
      stencil: full/bin/3d
      bin: standard
  (2) compute orientorder/atom, occasional, copy from (1)
      attributes: full, newton on
      pair build: copy
      stencil: none
      bin: none
Per MPI rank memory allocation (min/avg/max) = 5.838 | 5.839 | 5.840 Mbytes
Step Temp Press Volume TotEng KinEng PotEng c_1[4] 
       0    293.93427   -1014.5746    133289.18   -42070.054    3587.8843   -45657.938   0.16349792 
     200    293.30596   -973.57728    133270.61   -42059.469    3580.2149   -45639.684   0.15597258 
     400    298.85064   -934.83803     133281.5   -42052.475    3647.8956    -45700.37   0.15344598 
     600    296.46485   -1024.0552    133308.36    -42088.28    3618.7737   -45707.053   0.16135675 
     800    297.39978   -1027.0077     133268.3   -42103.692    3630.1857   -45733.878   0.16956612 
    1000    293.99715   -997.92871    133223.81   -42116.298    3588.6518    -45704.95   0.16591046 
    1200    294.52743   -1007.8317    133282.54   -42139.628    3595.1247   -45734.753    0.1522213 
    1400       293.49   -1019.6354    133331.32   -42129.556    3582.4614   -45712.017   0.15314889 
    1600    294.35547   -1023.1762    133250.94   -42133.489    3593.0256   -45726.515   0.16292577 
    1800     294.5488   -938.83773    133174.93    -42139.64    3595.3855   -45735.025   0.16808004 
    2000    301.97032   -963.75103    133248.99   -42095.521    3685.9757   -45781.496   0.16164386 
    2200     301.0965    -1035.741    133341.01   -42063.507    3675.3095   -45738.817   0.15519668 
    2400    294.55731   -1053.2003     133269.4    -42082.11    3595.4894     -45677.6   0.16018899 
    2600      298.687   -958.40778    133179.83   -42126.537    3645.8981   -45772.435    0.1613681 
    2800    303.95259   -970.84148    133260.26   -42141.534    3710.1721   -45851.706   0.15951673 
    3000    296.63911   -1079.3916    133374.92   -42150.341    3620.9008   -45771.242   0.16024181 
    3200    298.08085   -1009.2718    133269.49   -42099.185    3638.4992   -45737.685   0.15903836 
    3400    296.15446   -907.72636    133159.39   -42138.429    3614.9849   -45753.414   0.15212948 
    3600    298.88142   -1045.7704    133309.39   -42164.737    3648.2713   -45813.008   0.15503418 
    3800    295.32808   -1111.0896    133417.34   -42091.547    3604.8978   -45696.445   0.16052811 
    4000    294.77274   -997.19962    133282.92   -42087.787     3598.119   -45685.906   0.16098099 
    4200    298.12339   -914.91554    133164.68   -42106.606    3639.0184   -45745.624   0.16121663 
    4400    299.83623   -1010.6984    133320.37   -42082.635    3659.9262   -45742.561    0.1558135 
    4600    298.30523   -1096.1247     133419.3   -42067.131     3641.238   -45708.369   0.15829413 
    4800    299.70123   -915.24438    133228.22   -42063.196    3658.2782   -45721.474   0.15570317 
    5000    297.31533   -896.74334    133183.37   -42055.399     3629.155   -45684.554   0.16257484 
    5200    292.77758   -1128.0054    133414.03   -42050.067    3573.7653   -45623.833   0.17343224 
    5400    302.64839   -1092.2864    133414.35    -42011.15    3694.2525   -45705.403   0.16559841 
    5600    301.62358    -892.4148     133156.4   -41997.119    3681.7432   -45678.862     0.161017 
    5800    302.02859    -877.9178    133174.15   -41985.598    3686.6869   -45672.285   0.16138727 
    6000    300.65199   -1109.2532    133476.37   -41965.011    3669.8836   -45634.894   0.17070401 
    6200    297.32982   -1102.3238    133400.34   -41957.335    3629.3319   -45586.667   0.18045628 
    6400    302.20409   -801.72689    133125.88    -41928.97    3688.8292   -45617.799    0.1646902 
    6600    301.92312   -942.33959    133310.95   -41964.572    3685.3995   -45649.971   0.16057164 
    6800     299.8643    -1209.117    133558.32   -41995.226    3660.2687   -45655.495   0.16554359 
    7000    300.20454   -976.82965    133268.86    -42010.35    3664.4218   -45674.772   0.16257473 
    7200     301.2576   -768.43489    133024.16   -41958.874     3677.276    -45636.15   0.16697854 
    7400    302.85317   -1063.5195    133392.96   -41936.951    3696.7521   -45633.703   0.16668631 
    7600    297.86417   -1298.1031    133616.62   -41969.982    3635.8544   -45605.836   0.17027263 
    7800    301.41204   -859.86184    133156.59   -42004.556    3679.1611   -45683.717   0.15653469 
    8000    298.46774   -796.40629    133021.16   -41969.036    3643.2218   -45612.258   0.15810582 
    8200    302.47764   -1229.4733    133557.29   -41998.251    3692.1682   -45690.419   0.16854711 
    8400    298.25506   -1218.9511    133603.58   -42026.874    3640.6257     -45667.5   0.16904137 
    8600    300.07365    -760.9317    133041.21    -41990.47    3662.8242   -45653.294   0.16520804 
    8800    295.29269   -834.63335    133068.53   -41930.629    3604.4658   -45535.095   0.15926272 
    9000    302.35826   -1261.5389    133671.62   -41900.982     3690.711   -45591.693   0.16702624 
    9200    297.00957    -1211.326    133571.28   -41886.869    3625.4227   -45512.292   0.17726485 
    9400     305.5878   -669.84773    132952.41   -41944.814    3730.1321   -45674.946   0.16533418 
    9600     300.1197   -817.98749     133130.8   -41932.085    3663.3862   -45595.472    0.1645166 
    9800    304.02957   -1358.5599    133761.47   -41939.393    3711.1118   -45650.505   0.16571218 
   10000    299.07827   -1135.0896    133499.35   -41938.848    3650.6742   -45589.522    0.1654264 
   10200    303.34214   -659.54099    132935.82   -41946.541    3702.7207   -45649.262   0.16065801 
   10400    301.22653   -932.24937    133297.99   -41928.422    3676.8967   -45605.319   0.16523807 
   10600    299.44691   -1370.3613    133806.72   -41902.492    3655.1739   -45557.666   0.16968424 
   10800    302.02306   -992.23266    133397.07   -41938.833    3686.6195   -45625.453   0.15643554 
   11000    302.52758   -692.33302    132989.44   -41984.624    3692.7779   -45677.402    0.1507268 
   11200    301.05539   -1019.6262    133380.45   -41996.007    3674.8076   -45670.814   0.15954735 
   11400    301.31571   -1219.1824    133647.81   -42015.925    3677.9853   -45693.911   0.16407738 
   11600    299.12648   -909.71114    133235.12   -41993.953    3651.2626   -45645.216   0.16295653 
   11800    301.61367   -768.16062    133024.65   -42068.982    3681.6223   -45750.605   0.15547031 
   12000       296.78   -1069.8212    133379.13   -42063.524    3622.6204   -45686.145   0.16038947 
   12200    302.13036    -1198.389    133513.98   -42039.553    3687.9292   -45727.482    0.1640261 
   12400    300.59416   -922.33337    133189.22   -42013.226    3669.1777   -45682.404   0.16223339 
   12600    299.37879   -861.80711    133133.68   -42024.872    3654.3424   -45679.214   0.16693806 
   12800    293.22608   -1097.3475    133414.16   -42030.539    3579.2398   -45609.779   0.17086675 
   13000    300.06796   -1078.5033    133430.69   -42010.528    3662.7547   -45673.282   0.16164337 
   13200    301.83544   -903.12836    133200.66   -41986.346    3684.3293   -45670.676    0.1584718 
   13400    300.08645   -892.26743    133234.62   -42004.242    3662.9804   -45667.223   0.15520689 
   13600    301.48877   -1147.4823    133443.38   -41998.449    3680.0977   -45678.546   0.16646448 
   13800    307.79336   -1055.4846    133382.51    -41994.21    3757.0541   -45751.264   0.15828303 
   14000    303.90798   -860.65967    133206.22   -42010.473    3709.6276     -45720.1   0.15170781 
   14200    299.80381   -947.82047    133295.27   -42028.903    3659.5304   -45688.433   0.15329821 
   14400    298.10496   -1065.1851    133450.28   -42056.913    3638.7935   -45695.706   0.15272585 
   14600    302.23398   -998.03311    133345.35   -42053.203     3689.194   -45742.397   0.15675941 
   14800    300.08707    -893.9647    133236.39   -42032.794    3662.9879   -45695.782   0.15497835 
   15000    300.41849   -1016.7457    133363.89   -42083.264    3667.0335   -45750.297   0.14961924 
   15200    293.64883   -1119.0847     133441.1   -42138.339    3584.4002   -45722.739   0.15318038 
   15400    292.69685   -991.56461    133272.46   -42146.284    3572.7799   -45719.064   0.15845966 
   15600    292.14555    -908.6519    133180.38   -42191.654    3566.0505   -45757.705   0.15837698 
   15800    293.88246   -994.67517    133349.62   -42133.238    3587.2519    -45720.49   0.15361402 
   16000    296.61572   -1104.9139    133437.53   -42120.005    3620.6153    -45740.62   0.15369736 
   16200    299.05315   -938.28817     133262.7   -42072.969    3650.3676   -45723.337   0.15213796 
   16400    297.96711    -911.2141    133193.14   -42071.452    3637.1108   -45708.562   0.16011736 
   16600    296.31485   -1071.8856    133373.44   -42085.533    3616.9427   -45702.475   0.16322358 
   16800    302.37715   -1079.5133    133377.29    -42041.95    3690.9417   -45732.891   0.16128065 
   17000    296.96969   -899.99285    133182.28   -42067.464    3624.9359     -45692.4   0.15726305 
   17200    301.35878   -921.69345    133225.03   -42051.097     3678.511   -45729.608   0.15663331 
   17400    296.78943   -1128.7107    133435.32   -42092.387    3622.7356   -45715.123   0.16021505 
   17600    298.77918   -999.07245    133347.03   -42130.266    3647.0233   -45777.289   0.15047245 
   17800     295.0545   -835.83468    133155.72   -42150.825    3601.5583   -45752.384   0.14899544 
   18000    289.27647   -1014.2953    133288.27   -42179.177    3531.0293   -45710.206   0.15929735 
   18200    287.82872   -1176.8057    133436.82   -42209.095    3513.3574   -45722.452   0.15917902 
   18400    296.38528   -918.65348    133230.78   -42227.728    3617.8023    -45845.53    0.1439427 
   18600      291.054   -844.29843    133097.68   -42189.491    3552.7265   -45742.217   0.14617386 
   18800    290.98369   -1066.8257    133364.84   -42127.218    3551.8684   -45679.086    0.1516398 
   19000    292.23337   -1221.7417    133529.31   -42141.653    3567.1224   -45708.776   0.16488654 
   19200    292.37647   -868.64953    133191.47   -42125.683    3568.8692   -45694.552   0.15455396 
   19400    296.58085    -751.4153    133032.26   -42126.286    3620.1896   -45746.476   0.14970322 
   19600    293.12402   -1116.9331    133482.05   -42141.546    3577.9941    -45719.54    0.1562888 
   19800    293.63953   -1289.6471    133633.62   -42131.478    3584.2866   -45715.764   0.15918346 
   20000    289.89934   -815.37812    133016.04   -42136.572    3538.6322   -45675.204   0.16159139 
   20200    294.11218   -648.45055     132901.3   -42166.179    3590.0559   -45756.235   0.15281669 
   20400    298.53885   -1251.5513    133659.34    -42131.73    3644.0897   -45775.819   0.15820578 
   20600    298.22099    -1358.308     133714.5   -42132.481    3640.2098   -45772.691   0.16027743 
   20800    297.15218   -582.10996    132846.27   -42131.437    3627.1635     -45758.6   0.14888359 
   21000    295.46795   -684.62731     132922.9   -42134.851     3606.605   -45741.456   0.15600023 
   21200    291.19001   -1427.0312    133818.74   -42107.387    3554.3867   -45661.773   0.16300148 
   21400     296.5403   -1260.9803    133616.65   -42107.364    3619.6946   -45727.059   0.15599324 
   21600    298.36944   -570.52799    132767.76   -42074.296    3642.0218   -45716.317   0.15303356 
   21800    299.36265   -796.08453    133082.31   -42028.242    3654.1454   -45682.387   0.15185449 
   22000    298.52114   -1438.8218    133811.98   -42024.034    3643.8735   -45667.908   0.16952126 
   22200    297.12887   -1074.4166    133392.66    -41987.86     3626.879   -45614.739   0.16520483 
   22400    298.79462   -577.38628    132813.85   -41974.645    3647.2118   -45621.857   0.15634696 
   22600    301.31777   -1005.6101    133298.66   -41974.277    3678.0104   -45652.287   0.16305108 
   22800    302.05181   -1337.3237    133744.92   -42011.654    3686.9704   -45698.625   0.15964366 
   23000    298.04487   -957.42586    133242.37   -42032.073      3638.06   -45670.133   0.16403385 
   23200    299.53081   -702.54816    132911.59   -42023.173     3656.198   -45679.371   0.16434621 
   23400    301.05168   -1062.3126    133402.98   -42029.061    3674.7624   -45703.823   0.16047594 
   23600    297.64486   -1266.8279    133591.64   -42035.222    3633.1773     -45668.4   0.16503406 
   23800    298.94006   -868.25571    133130.03   -41989.214    3648.9871   -45638.201   0.16189496 
   24000    300.68217   -767.94585    133066.53   -42019.309     3670.252   -45689.561   0.15753701 
   24200    295.63642   -1130.1257    133494.22   -42002.435    3608.6614   -45611.096   0.16458472 
   24400    301.21501   -1194.5331    133487.05   -42006.598    3676.7561   -45683.354    0.1631335 
   24600    305.98748   -797.19626    133088.72   -42016.149    3735.0108    -45751.16   0.16028193 
   24800    304.97562   -871.42846    133158.22   -41939.057    3722.6597   -45661.717   0.16256044 
   25000    290.25661   -1265.9861    133525.96   -41944.118    3542.9932   -45487.112   0.16919946 
   25200    301.40197   -1070.2757    133391.33   -41973.227    3679.0381   -45652.265   0.15842349 
   25400    301.60378   -804.56219    133074.95   -42031.288    3681.5016    -45712.79   0.15315041 
   25600    297.40749   -978.49209    133215.72   -42053.734    3630.2798   -45684.014   0.16376144 
   25800    296.83154   -1183.4197    133459.11   -42020.718    3623.2496   -45643.968   0.16740308 
   26000    298.20815   -1014.2562    133295.33   -42004.895     3640.053   -45644.948   0.15942491 
   26200    304.98669   -812.15659    133074.65   -42039.845    3722.7948    -45762.64   0.15249859 
   26400    295.50108   -958.00635    133242.69   -42059.988    3607.0094   -45666.997   0.15882795 
   26600    301.43287    -1182.225    133462.41    -42064.57    3679.4154   -45743.986   0.16669569 
   26800     299.4224   -978.91766    133274.35   -42069.892    3654.8747   -45724.767   0.15749933 
   27000      295.524   -883.45461     133102.3    -42074.15    3607.2892   -45681.439   0.16369715 
   27200    294.78145   -1053.4864    133350.24   -42065.953    3598.2254   -45664.178   0.16295149 
   27400    294.82768   -1181.6651    133504.32   -42033.092    3598.7897   -45631.882   0.17479585 
   27600    299.69353    -945.8044    133224.89   -42047.523    3658.1843   -45705.708   0.16315378 
   27800    300.52001    -842.8654    133119.94   -42034.678    3668.2726   -45702.951   0.15851395 
   28000    295.77736   -1066.0186    133433.83   -42023.628    3610.3819    -45634.01   0.15674268 
   28200    296.21936   -1181.9356    133514.87   -42035.603    3615.7771    -45651.38   0.16791909 
   28400    301.22309   -865.20813     133171.1   -42040.549    3676.8546   -45717.404   0.16127864 
   28600    296.86727   -834.07334    133132.47   -42058.571    3623.6858   -45682.256   0.15510765 
   28800    296.79053   -1148.7377     133513.4   -42067.299     3622.749   -45690.048   0.15660704 
   29000    297.71374   -1108.3927    133471.11   -42109.466    3634.0181   -45743.485   0.15500302 
   29200    296.74355   -804.47737    133030.66   -42150.559    3622.1755   -45772.735   0.15880991 
   29400    291.23008   -863.96811    133088.44   -42150.328    3554.8759   -45705.204   0.15604787 
   29600    293.78474   -1240.8576    133585.49   -42104.234    3586.0591   -45690.293   0.15787168 
   29800    295.97995   -1178.3263     133476.5   -42030.128    3612.8547   -45642.983   0.16404584 
   30000    301.36815   -693.12206    132892.49    -42027.27    3678.6253   -45705.895   0.15981661 
   30200    299.09688   -849.74891    133136.46   -42037.025    3650.9013   -45687.926   0.16305028 
   30400    297.17395   -1464.8057    133870.07   -42077.276    3627.4292   -45704.705   0.16598455 
   30600     299.7151   -1072.3274    133424.62   -42029.023    3658.4476   -45687.471   0.16026763 
   30800    299.71968   -398.81542    132602.27    -42002.93    3658.5034   -45661.433   0.15939856 
   31000    298.26281   -962.18545    133279.35   -41987.966    3640.7202   -45628.686   0.17034338 
   31200    299.28499    -1667.591    134142.42   -41972.239    3653.1975   -45625.437   0.17358704 
   31400    301.49968   -950.34361    133254.91   -41984.182    3680.2308   -45664.413   0.16506421 
   31600    296.65961   -336.83603     132483.2   -42052.752    3621.1509   -45673.903   0.15786263 
   31800    302.47506   -1084.7503    133444.49   -42011.332    3692.1368   -45703.468   0.16276308 
   32000    298.46223   -1555.7483    134042.91   -41972.452    3643.1545   -45615.606   0.17537307 
   32200    301.03004   -859.81252    133153.57   -42017.786    3674.4982   -45692.284   0.15513608 
   32400    300.13084   -524.12867    132738.21   -42024.199    3663.5222   -45687.721   0.15789121 
   32600    298.01189    -1210.347    133487.97   -42004.952    3637.6575   -45642.609    0.1645119 
   32800    300.62681   -1324.6446    133717.42   -41989.856    3669.5763   -45659.432   0.16664102 
   33000    303.95777   -756.50201    133099.29   -41990.497    3710.2353   -45700.733   0.15494829 
   33200    300.25108   -770.69994    133023.79   -41990.951      3664.99   -45655.941   0.15566451 
   33400    300.47674   -1191.1365    133568.88   -41943.534    3667.7444   -45611.278   0.16235264 
   33600    306.86962   -1185.6815    133576.96   -41877.182    3745.7785   -45622.961   0.16484198 
   33800    303.84661   -793.54188    133096.65   -41913.918    3708.8785   -45622.796   0.16212562 
   34000    295.47963   -852.54955    133130.08   -41951.964    3606.7476   -45558.712   0.17124333 
   34200    292.68229   -1242.3432    133546.61   -41984.396    3572.6022   -45556.998   0.17413164 
   34400     299.1432   -1100.9016    133432.01   -42042.053    3651.4666    -45693.52   0.16201082 
   34600     301.8527   -781.81552    133045.28   -42011.296      3684.54   -45695.836   0.16022958 
   34800    297.44343   -958.44098    133236.43   -42048.788    3630.7186   -45679.507   0.16197918 
   35000    287.40608   -1263.5787    133570.56   -42076.123    3508.1985   -45584.322   0.17107656 
   35200    293.86604   -1043.7675    133322.59    -42073.55    3587.0514   -45660.602   0.16417003 
   35400    296.78271   -792.60782    133036.39   -42047.306    3622.6536   -45669.959   0.16240058 
   35600    300.89563   -981.93296    133307.31   -42036.915    3672.8576   -45709.772   0.15797511 
   35800    295.12103   -1213.7701    133563.01    -42030.65    3602.3703    -45633.02   0.16026488 
   36000    298.76411   -922.18681    133290.21   -42035.167    3646.8394   -45682.007   0.15570831 
   36200    299.91856   -809.21766    133101.07   -42051.455     3660.931   -45712.386   0.15110634 
   36400     302.4343   -1029.8098    133368.52   -42073.235    3691.6392   -45764.874   0.15477711 
   36600    294.17319   -1180.0946    133508.03   -42045.414    3590.8007   -45636.214   0.16458806 
   36800    297.28872   -930.54333    133241.44   -42091.121    3628.8302   -45719.951   0.15520762 
   37000       299.88   -865.32246    133140.79   -42081.385    3660.4604   -45741.845   0.14957985 
   37200    301.14532   -1054.8605    133396.99   -42039.589    3675.9053   -45715.494   0.15147263 
   37400     300.9978   -1107.5909    133478.66   -42029.401    3674.1047   -45703.505   0.15444905 
   37600    291.05712   -949.98081    133235.02    -42058.27    3552.7647   -45611.035   0.16475129 
   37800    296.55286   -890.76583    133171.86   -42025.619    3619.8479   -45645.467    0.1637949 
   38000    298.21075   -1010.2728    133408.02   -42073.815    3640.0848     -45713.9   0.15407553 
   38200    297.56614   -1111.7718    133466.76   -42065.808    3632.2165   -45698.024   0.15363927 
   38400    304.03354   -871.70608    133187.52   -42036.698    3711.1602   -45747.858   0.15118607 
   38600     298.5658   -901.93364    133187.37   -42036.091    3644.4188    -45680.51   0.16311553 
   38800    297.36026   -1147.8757    133521.13   -42080.024    3629.7034   -45709.728   0.16493968 
   39000     293.0125   -1130.6524    133477.08   -42105.589    3576.6328   -45682.222   0.15847278 
   39200    294.30817   -831.60843    133075.84   -42130.638    3592.4483   -45723.086    0.1517052 
   39400    295.88761   -889.43659    133143.93   -42121.522    3611.7276   -45733.249   0.15095604 
   39600    288.37335   -1259.4079    133603.23   -42181.469    3520.0054   -45701.475   0.16102024 
   39800      294.735   -1158.6689    133478.97   -42172.221    3597.6583    -45769.88    0.1543068 
   40000     290.5555   -681.56656    132954.77    -42195.89    3546.6416   -45742.532   0.14880203 
   40200    291.18513   -894.09759    133167.89   -42172.633    3554.3272    -45726.96   0.15443609 
   40400    294.33927   -1370.2995    133722.47   -42151.674    3592.8279   -45744.502   0.16136215 
   40600    292.58108   -1058.6083    133351.45   -42185.659    3571.3667   -45757.026   0.15340455 
   40800    296.33058   -532.94494    132735.37   -42207.241    3617.1347   -45824.375   0.14480051 
   41000     297.0689   -1016.1288     133255.2   -42164.339    3626.1469   -45790.486   0.15448594 
   41200    291.84582   -1448.1323     133859.8   -42176.376    3562.3918   -45738.767   0.16354379 
   41400    296.83552   -977.27549    133264.55   -42158.835    3623.2982   -45782.133   0.15723331 
   41600    293.44709   -526.97163    132743.92   -42157.579    3581.9377   -45739.517   0.14986909 
   41800     293.9677    -1096.913    133425.31   -42146.382    3588.2923   -45734.674   0.15623587 
   42000    290.75982     -1453.43    133835.72   -42116.675    3549.1357   -45665.811   0.16514247 
   42200    301.87431   -836.77391    133088.29   -42151.009    3684.8038   -45835.813   0.15553213 
   42400    295.29304   -572.09476    132787.58   -42203.109      3604.47   -45807.579   0.15110257 
   42600    290.60289   -1226.2202    133516.73   -42222.711    3547.2202   -45769.931   0.15862921 
   42800    289.43366   -1370.7508    133656.42    -42217.61     3532.948   -45750.558   0.16512631 
   43000    291.41237   -749.16595    132992.88   -42185.806     3557.101   -45742.906   0.15570289 
   43200    290.79729   -756.66299    132973.26   -42192.499     3549.593   -45742.092   0.15643743 
   43400    297.34823   -1215.2773    133528.59   -42171.581    3629.5565   -45801.137   0.15902668 
   43600    290.63319   -1186.7857    133485.77   -42170.532      3547.59   -45718.122   0.15741996 
   43800    296.99778   -778.67588    133032.18   -42144.334    3625.2787   -45769.613   0.15129666 
   44000    292.79781   -927.34693    133149.12   -42162.811    3574.0123   -45736.823      0.15475 
   44200    293.32585   -1175.3587    133486.77   -42213.532    3580.4577    -45793.99   0.15380895 
   44400    294.39665   -1046.9928     133333.1   -42194.847    3593.5283   -45788.375   0.15581168 
   44600    294.73872   -825.62062     133077.1   -42128.624    3597.7038   -45726.328   0.15176827 
   44800    300.97304   -952.13599    133263.67   -42090.777    3673.8025    -45764.58   0.15263996 
   45000    294.25934   -1139.6695    133479.34    -42114.26    3591.8523   -45706.113   0.15553069 
   45200    298.17924   -1004.8861    133257.55   -42135.382    3639.7002   -45775.083   0.15421101 
   45400    297.15827   -806.63679    133062.09   -42190.165    3627.2378   -45817.403   0.15504804 
   45600    289.04563   -1039.8892     133285.8   -42172.132    3528.2115   -45700.344   0.16044594 
   45800    293.49736   -1116.2495    133467.46   -42138.962    3582.5512   -45721.514   0.15933187 
   46000    298.71163   -960.04352    133263.67    -42139.58    3646.1988   -45785.779    0.1579763 
   46200    295.85464   -848.96965    133122.73   -42167.376    3611.3251   -45778.702   0.15651885 
   46400    290.15444   -1044.2648    133340.77   -42149.913    3541.7461   -45691.659   0.16194731 
   46600    292.33967   -1169.0245    133426.44   -42153.932      3568.42   -45722.352   0.16106292 
   46800     291.9747   -951.30423     133184.1   -42119.526    3563.9649   -45683.491   0.16427861 
   47000    297.80851   -885.30531    133120.24   -42103.048    3635.1749   -45738.222   0.16146751 
   47200    297.19144   -1052.0159    133385.13   -42072.058    3627.6426   -45699.701   0.15891903 
   47400    301.35046   -1124.7297    133448.24   -41999.786    3678.4094   -45678.195   0.16137335 
   47600       298.83   -867.58167    133173.55   -41976.862    3647.6436   -45624.506   0.15835073 
   47800    301.83721   -858.64841     133160.4   -41948.122    3684.3509   -45632.473   0.16205535 
   48000    304.01766   -1143.1714    133494.33   -41949.364    3710.9664   -45660.331   0.16375726 
   48200    303.90955   -1146.3007    133471.49   -41950.076    3709.6468   -45659.723    0.1657843 
   48400    304.87704   -803.84782    133103.65   -41936.388    3721.4563   -45657.844   0.15900185 
   48600    306.58792   -864.80909    133154.86   -41995.334      3742.34   -45737.674   0.15552579 
   48800    303.74376   -1158.9745    133519.63   -41933.908     3707.623   -45641.531   0.16717746 
   49000    304.51302   -1097.2226    133429.75   -41910.052     3717.013   -45627.065   0.16620198 
   49200     301.9937   -862.53438    133068.49   -41951.898    3686.2611   -45638.159    0.1636539 
   49400    294.53145   -922.65792    133199.37   -41961.405    3595.1737   -45556.579   0.16787125 
   49600    302.10667   -1248.4829    133578.49   -41977.833      3687.64   -45665.473   0.17100882 
   49800    299.71736   -1047.2327    133359.86   -41959.531    3658.4751   -45618.006   0.16890976 
   50000    308.96002   -709.40492    132994.66   -41965.428    3771.2949   -45736.723   0.16039039 
   50200    303.92757   -984.53394     133291.9   -41998.657    3709.8667   -45708.523   0.15893624 
   50400    301.34098   -1288.9509    133668.49   -41991.455    3678.2938   -45669.749   0.16679637 
   50600    297.62259   -1002.3687    133309.39   -42017.521    3632.9055   -45650.426   0.16505396 
   50800    295.24676   -671.96428    132945.33   -42031.745    3603.9051    -45635.65   0.15765348 
   51000    302.21087   -1032.1399    133405.51   -41973.788     3688.912     -45662.7   0.15704071 
   51200    302.16685   -1326.7674    133744.16   -41992.688    3688.3746   -45681.063   0.16051452 
   51400    303.05263   -869.92981    133192.97   -41964.537    3699.1868   -45663.724   0.15781857 
   51600    303.82602   -655.84737    132935.52   -41970.477    3708.6271   -45679.104   0.15424619 
   51800    298.00902   -1162.1114       133572   -41959.722    3637.6224   -45597.345   0.16174824 
   52000    306.56539   -1321.0812    133753.98   -41908.253    3742.0651   -45650.318   0.16670657 
   52200     303.9941   -736.68994    133043.09   -41887.774    3710.6788   -45598.453   0.15980667 
   52400    301.58464   -655.95682    132949.55   -41876.803     3681.268   -45558.071   0.16194015 
   52600    304.20846   -1263.0593    133713.96   -41905.245    3713.2954   -45618.541    0.1653788 
   52800    304.25377   -1328.1171    133723.29   -41923.923    3713.8485   -45637.771   0.16501578 
   53000     305.2597   -658.25175    132940.05   -41942.618    3726.1272   -45668.746   0.15702411 
   53200    308.49982   -755.96476    133045.71   -41953.395    3765.6775   -45719.073     0.163359 
   53400    300.79682   -1387.5266    133773.49   -41963.207    3671.6515   -45634.858   0.17442519 
   53600    300.06474   -1159.6879    133570.39   -41999.956    3662.7154   -45662.671   0.16090355 
   53800    300.12124   -605.41061     132891.4   -41995.425     3663.405    -45658.83   0.15922836 
   54000    298.51802   -866.66658    133176.66   -41983.539    3643.8355   -45627.374   0.16103332 
   54200    299.60169   -1362.8108     133766.4   -41980.906    3657.0632   -45637.969   0.17086615 
   54400    300.69305   -1084.9604    133430.15   -42011.835    3670.3848    -45682.22   0.16350804 
   54600     308.2311   -711.09356    132996.66    -42012.73    3762.3974   -45775.128   0.15211069 
   54800    302.08639   -1021.1521    133337.15   -41954.016    3687.3925   -45641.408   0.16341921 
   55000    305.57181   -1240.9904    133628.57   -41950.762    3729.9369   -45680.699   0.16501973 
   55200    301.92723   -976.23793    133315.92   -41988.089    3685.4498   -45673.538   0.15828221 
   55400    300.52454    -826.2236    133114.13   -42012.084    3668.3279   -45680.411    0.1528201 
   55600    303.49935   -1042.3445     133380.4   -42042.591    3704.6396    -45747.23   0.15427873 
   55800    299.55113   -1134.1549    133511.88   -42011.697     3656.446   -45668.143   0.16089607 
   56000     304.7932   -933.50204    133283.75   -42000.331     3720.433   -45720.764   0.15820076 
   56200    298.23692   -890.37796    133192.46   -42027.423    3640.4042   -45667.827    0.1632502 
   56400    293.23398   -1052.7148    133374.39   -42030.255    3579.3363   -45609.591   0.16422833 
   56600    302.10036   -1101.4658    133449.91   -42033.898     3687.563   -45721.461   0.16033115 
   56800    301.23678   -936.67846    133275.86   -41994.064    3677.0218   -45671.086   0.16252526 
   57000    302.56427   -960.70779    133256.95   -41989.672    3693.2257   -45682.898   0.16020046 
   57200    294.66963   -1111.1951     133426.4   -42022.524    3596.8605   -45619.384   0.16369612 
   57400    302.50691   -1074.9289    133400.28   -42045.344    3692.5255   -45737.869   0.16173421 
   57600    300.31035   -930.66603    133224.73   -42012.149    3665.7134   -45677.862   0.16009883 
   57800    298.93501   -954.10156    133279.85   -42025.357    3648.9254   -45674.282   0.16161761 
   58000    301.21456    -1041.204    133449.22   -42037.405    3676.7505   -45714.156   0.15199922 
   58200    291.69056   -1001.6421    133377.45   -42077.095    3560.4966   -45637.591   0.15525693 
   58400    296.33657   -939.13798    133187.79   -42074.284    3617.2078   -45691.492   0.15837057 
   58600     299.8717   -953.48377    133253.43   -42054.499    3660.3591   -45714.858     0.158279 
   58800    294.81221   -1138.8644    133449.17   -42083.952    3598.6009   -45682.552   0.16400931 
   59000    294.04178   -1019.0637    133336.14   -42109.204    3589.1967     -45698.4    0.1535673 
   59200    299.27005   -841.87608    133137.82    -42113.04     3653.015   -45766.055   0.14867858 
   59400    297.86769   -1006.8285    133334.19    -42055.97    3635.8972   -45691.867   0.15404495 
   59600    293.65404   -1189.2177    133561.96   -42049.417    3584.4637   -45633.881   0.16057094 
   59800    295.89053   -1002.6125    133352.37   -42039.346    3611.7632   -45651.109   0.16354931 
   60000    299.20262    -825.0799    133141.16   -42030.706     3652.192   -45682.898     0.158591 
   60200    298.10232   -1055.3592    133368.38    -42002.43    3638.7613   -45641.191    0.1643664 
   60400    298.02881   -1173.6395    133564.57   -41968.839     3637.864   -45606.703   0.16412079 
   60600    300.47008   -962.32699    133324.24   -42011.361    3667.6632   -45679.024   0.15941203 
   60800    300.71182    -807.0501    133091.37   -41955.536    3670.6139    -45626.15   0.16351128 
   61000    299.55395   -1052.9588    133389.48   -41991.426    3656.4805   -45647.906   0.16469379 
   61200     295.6827   -1245.7587    133645.05    -41990.44    3609.2264   -45599.666   0.16601978 
   61400    294.69617   -966.03337       133259   -41994.734    3597.1843   -45591.919   0.16106697 
   61600    302.44679   -720.54659    132999.22   -41990.721    3691.7916   -45682.513   0.15306505 
   61800    300.97557   -1131.3082    133460.15   -41984.827    3673.8334   -45658.661   0.16512819 
   62000    303.20515   -1260.9345    133678.88   -41997.344    3701.0485   -45698.393    0.1606225 
   62200    295.14161   -852.23923     133115.2   -42009.812    3602.6216   -45612.434   0.15967701 
   62400    303.10357   -651.99524     132930.4    -41980.74    3699.8087   -45680.548   0.15084082 
   62600    302.17065   -1226.5847    133600.24   -41994.957     3688.421   -45683.378   0.16190056 
   62800    303.92712   -1312.8817    133716.13   -41961.376    3709.8613   -45671.237   0.16251406 
   63000    300.73698   -685.49432     132971.5   -41945.614    3670.9211   -45616.535   0.15505253 
   63200    298.79419    -725.4628    132999.41   -41950.521    3647.2066   -45597.727   0.15786964 
   63400    304.40113   -1366.0779    133777.31   -41898.024    3715.6472   -45613.671   0.16784196 
   63600    301.34228   -1178.8143    133648.75   -41878.277    3678.3096   -45556.586   0.16602042 
   63800    302.62411   -640.15164    132916.66   -41916.263    3693.9561    -45610.22   0.16209487 
   64000     302.1252   -810.94458    133129.51   -41920.787    3687.8662   -45608.653   0.16051655 
   64200    301.14679   -1408.6451     133823.9   -41914.567    3675.9234    -45590.49   0.17577936 
   64400    301.01365   -1212.9639    133519.65   -41902.054    3674.2982   -45576.353   0.17301387 
   64600    303.82898   -615.04248    132897.69   -41962.996    3708.6633   -45671.659   0.15542971 
   64800    297.11245   -921.44212     133246.7   -41971.102    3626.6784    -45597.78   0.15925951 
   65000    303.68437   -1360.8744    133747.83   -41960.772    3706.8981    -45667.67   0.17105705 
   65200    297.43529     -1022.05    133348.09   -41988.586    3630.6193   -45619.205   0.16912661 
   65400    305.97172   -649.02734    132939.36   -42015.065    3734.8184   -45749.884   0.15543894 
   65600    302.39999     -1028.56    133366.48   -42037.094    3691.2204   -45728.315   0.15385928 
   65800     303.5024   -1259.2469    133675.51   -42003.701    3704.6769   -45708.377   0.15749551 
   66000    301.74196   -888.13142    133246.27   -42007.466    3683.1883   -45690.655   0.15736024 
   66200    299.54164   -710.70061    133037.66   -42043.334    3656.3302   -45699.665   0.15844645 
   66400    297.93948   -1098.1216    133491.74   -42031.832    3636.7735   -45668.606   0.15720976 
   66600    299.85943   -1233.2683    133644.78   -42044.893    3660.2093   -45705.102   0.15799357 
   66800      301.056    -827.4139    133174.62   -42027.889    3674.8151   -45702.705   0.15302893 
   67000    302.07908   -752.44389    133074.17   -42049.559    3687.3033   -45736.862   0.15374824 
   67200    300.55104    -1175.013    133535.34   -42064.114    3668.6514   -45732.766   0.16320777 
   67400    301.23137   -1193.1386    133517.16   -42097.137    3676.9558   -45774.092   0.15915888 
   67600    295.96296    -780.1335     133017.7   -42060.995    3612.6474   -45673.643   0.15838568 
   67800    298.96821   -832.81265    133115.15   -42010.275    3649.3306   -45659.606   0.16141519 
   68000    301.71504   -1236.0113     133592.9   -41999.312    3682.8597   -45682.172   0.16397738 
   68200    299.33878   -1118.4631    133440.09   -42070.565     3653.854   -45724.419   0.16168135 
   68400    298.10948   -752.66749    132990.78   -42022.017    3638.8486   -45660.865   0.15930293 
   68600    297.61861   -947.85739    133200.62   -42005.745    3632.8569   -45638.602    0.1664205 
   68800    304.46756   -1208.1509    133607.36   -41968.121     3716.458    -45684.58   0.16638571 
   69000    302.81981   -1015.3458    133378.08   -42015.052    3696.3449   -45711.397   0.15414153 
   69200    296.87413   -776.87871    133046.66   -42025.813    3623.7695   -45649.583   0.15266246 
   69400    296.81996   -1015.2708    133316.22   -42060.741    3623.1082   -45683.849   0.15865962 
   69600    296.42975    -1220.749    133582.42   -42069.059    3618.3452   -45687.404   0.16530579 
   69800    298.01199   -987.49441    133316.84   -42040.777    3637.6586   -45678.436   0.15735773 
   70000    299.51085   -792.09563    133120.61   -42003.216    3655.9543    -45659.17   0.14925691 
   70200    301.52133   -1055.8556    133397.69   -41997.699    3680.4952   -45678.195   0.15495961 
   70400    302.68287   -1185.0194    133537.75   -42001.997    3694.6734    -45696.67   0.16224579 
   70600    301.95197    -923.1462    133230.95   -41978.401    3685.7517   -45664.153   0.15994244 
   70800     299.4513   -865.36009    133113.91   -42002.234    3655.2275   -45657.462    0.1593018 
   71000    298.87563   -1139.8819    133411.12   -42041.255    3648.2007   -45689.455   0.16165836 
   71200    300.65576   -1142.2101    133472.21   -42045.545    3669.9296   -45715.474    0.1592504 
   71400    298.40094   -887.89715    133173.16    -42020.26    3642.4063   -45662.666   0.16009198 
   71600    294.56725   -898.39232    133166.86   -41999.647    3595.6107   -45595.258   0.16203341 
   71800    299.06819   -1110.6634    133450.63   -42007.604    3650.5511   -45658.155   0.16554602 
   72000    296.98008   -1081.6674    133404.25   -42040.065    3625.0627   -45665.127   0.16158449 
   72200    296.10153   -904.27999    133167.73   -42076.133    3614.3388   -45690.472   0.15885731 
   72400    295.07448   -942.89016    133244.57   -42052.232    3601.8022   -45654.034   0.15407549 
   72600     299.7441   -1077.0489    133500.93   -42024.876    3658.8015   -45683.677   0.15665468 
   72800      293.166   -1079.0515    133411.75   -42094.493    3578.5065       -45673   0.15864519 
   73000    294.36497   -877.73512    133149.09   -42102.858    3593.1416   -45695.999   0.15960356 
   73200    294.75672   -968.21471     133254.9   -42122.635    3597.9235   -45720.559   0.15366857 
   73400    295.09569   -1087.1303    133465.11   -42098.324    3602.0611   -45700.385   0.15267069 
   73600    295.87287   -1050.9442    133362.34    -42085.13    3611.5477   -45696.678    0.1563941 
   73800    300.26762   -917.97387    133169.49   -42089.455    3665.1918   -45754.647   0.15630864 
   74000    294.95184   -985.38464    133265.34   -42123.066    3600.3052   -45723.371   0.15742376 
   74200    297.83648   -1091.2621     133416.9   -42126.874    3635.5163   -45762.391   0.15196714 
   74400    300.47531   -972.62154    133280.55   -42097.771    3667.7269   -45765.498   0.15319481 
   74600    293.18477   -893.43832    133135.03   -42109.737    3578.7356   -45688.472   0.15745079 
   74800    292.49026    -1023.458    133300.52   -42121.271    3570.2581   -45691.529   0.15784324 
   75000    288.44991   -1120.0365    133408.75   -42085.868      3520.94   -45606.808   0.16413826 
   75200    297.32192   -938.42295    133207.17   -42067.768    3629.2353   -45697.004   0.15716897 
   75400    299.42571   -915.69056    133170.79   -42063.863    3654.9151   -45718.779   0.15987549 
   75600    296.55012   -1180.3634    133466.23   -42033.258    3619.8145   -45653.072   0.16456516 
   75800    297.01976   -1106.1846    133504.13   -42003.963    3625.5471    -45629.51   0.15564154 
   76000    296.01086   -846.93209    133214.52   -42003.916     3613.232   -45617.148   0.15332879 
   76200    296.18167   -865.59521    133223.16   -42028.116     3615.317   -45643.433   0.15417526 
   76400    296.33987   -1139.8911    133542.05   -41996.489     3617.248   -45613.737   0.16925696 
   76600    298.43524    -1079.707    133478.51   -41984.546    3642.8251   -45627.371   0.15909134 
   76800    299.42539   -820.13897    133149.48   -41984.298    3654.9113   -45639.209   0.14937816 
   77000    300.62269   -940.56403    133256.34   -41993.661    3669.5259   -45663.187   0.15541818 
   77200    302.59573   -1163.3714    133600.04   -42034.522    3693.6097   -45728.132   0.16093822 
   77400    297.91209   -1096.2434    133456.31   -42013.068    3636.4393   -45649.508   0.16428005 
   77600    300.24692   -776.20608    133066.38   -42046.767    3664.9392   -45711.706   0.15035086 
   77800    299.69305   -929.00274    133265.05   -42054.783    3658.1784   -45712.961   0.14941373 
   78000    293.79916   -1325.7512    133706.84   -42050.254    3586.2351   -45636.489   0.16317406 
   78200    295.10735   -1057.6542    133409.33   -42043.691    3602.2034   -45645.895   0.16221906 
   78400    295.20022   -629.07109    132930.41   -42078.734     3603.337   -45682.071   0.15252651 
   78600    298.44171   -959.68085    133313.37   -42082.314     3642.904   -45725.218   0.15189154 
   78800    296.20136   -1394.2097    133811.45   -42052.066    3615.5573   -45667.623   0.15496013 
   79000     294.3269    -1001.618    133301.34   -42054.389    3592.6769   -45647.065   0.16193813 
   79200    300.85381   -572.76134    132841.57   -42064.312    3672.3471   -45736.659   0.15389475 
   79400    297.96771   -1092.2951    133431.47   -42011.407    3637.1181   -45648.525   0.16037628 
   79600    304.73139   -1364.1973    133837.59   -42001.375    3719.6785   -45721.054   0.15389109 
   79800    304.32878   -887.47383    133223.89   -42031.001     3714.764   -45745.765   0.15081757 
   80000    298.35646   -628.86729       132915   -42012.767    3641.8634   -45654.631    0.1543932 
   80200    300.11068   -1131.3599    133568.84   -41960.016    3663.2762   -45623.292   0.15987625 
   80400    301.14647   -1376.0121    133825.23    -41939.81    3675.9195   -45615.729   0.16556165 
   80600    305.89413   -777.11678    133142.98   -41968.809    3733.8713   -45702.681   0.15260869 
   80800    305.17721   -677.84375    132995.18   -41920.419    3725.1203   -45645.539    0.1522381 
   81000    294.19469   -1259.8647    133656.75   -41964.855    3591.0631   -45555.918   0.16433868 
   81200    302.78122   -1235.8582    133698.48   -41943.438    3695.8738   -45639.312   0.15436223 
   81400    304.12511   -733.18973    133082.39   -41923.805     3712.278   -45636.083   0.15570893 
   81600     300.7281   -850.74735    133149.81   -41941.325    3670.8126   -45612.138   0.15960565 
   81800    302.85853   -1209.1763    133659.34   -41940.814    3696.8176   -45637.632   0.16106402 
   82000    302.13427   -1159.5376    133504.22   -41914.472    3687.9769   -45602.449   0.16043965 
   82200    300.26414   -763.36338    133075.32   -41965.667    3665.1494   -45630.817   0.15256966 
   82400    294.84144   -978.11643    133248.49   -41973.472    3598.9576   -45572.429   0.16433238 
   82600    299.77646      -1190.9     133592.3   -41994.435    3659.1966   -45653.632   0.16279763 
   82800    296.71285   -1084.5413    133423.62   -42037.118    3621.8009   -45658.919   0.16180189 
   83000    302.40032    -852.2015    133165.13   -42028.933    3691.2244   -45720.157   0.14740096 
   83200    298.63664   -964.10578    133322.31   -42042.416    3645.2834   -45687.699    0.1478074 
   83400    295.19312   -1130.6049    133503.27   -42064.881    3603.2504   -45668.131   0.16108822 
   83600     297.8358   -1019.7765    133344.54   -42079.591     3635.508   -45715.099   0.16065409 
   83800    299.90479   -895.86873    133187.44   -42029.744     3660.763   -45690.507    0.1602888 
   84000    299.41464   -1013.0212    133342.33   -42054.645    3654.7801   -45709.425   0.15338958 
   84200    298.55828   -1105.9944    133470.94   -42035.215    3644.3269   -45679.542   0.15325103 
   84400    297.64453   -1019.9109     133319.5   -42054.718    3633.1733   -45687.891   0.15912617 
   84600     291.8035    -898.4002    133183.36   -42045.998    3561.8752   -45607.873   0.16131934 
   84800     292.6841   -1019.6953    133325.21   -42061.683    3572.6243   -45634.308   0.16512092 
   85000    296.73134   -1134.1218    133449.76   -42019.389    3622.0266   -45641.415   0.16400572 
   85200    303.03448   -995.00835    133334.06   -41990.361    3698.9653   -45689.326    0.1529688 
   85400    304.07785   -908.46034    133277.11   -41973.142    3711.7011   -45684.844   0.15226842 
   85600    303.40492   -1042.4741    133414.31   -41978.914    3703.4871   -45682.401   0.15769253 
   85800    303.73775   -1031.9417    133425.81   -41983.447    3707.5497   -45690.997   0.16254813 
   86000    304.13096   -945.89968    133275.53   -41947.788    3712.3493   -45660.137   0.16147683 
   86200    302.43127   -981.67878    133302.72   -41958.449    3691.6022   -45650.051   0.15720547 
   86400    300.95023    -1072.395    133447.32   -41952.966    3673.5241    -45626.49    0.1571324 
   86600    300.98291   -1018.5539    133370.98   -41937.694    3673.9229   -45611.617   0.15708537 
   86800    300.23178   -916.41789     133218.6   -41978.877    3664.7543   -45643.632    0.1624053 
   87000    299.11925   -991.82113    133283.61   -41996.171    3651.1743   -45647.345    0.1617981 
   87200    301.85718   -1068.0923    133413.74   -41969.372    3684.5946   -45653.967   0.15690134 
   87400    300.18697   -1018.3223    133304.81   -41940.748    3664.2073   -45604.956   0.16499636 
   87600    299.19816    -894.1287    133160.56   -41991.889    3652.1376   -45644.027   0.15884224 
   87800    302.78099   -965.81061    133271.76   -42005.613    3695.8711   -45701.484   0.15820814 
   88000    305.73119   -1053.7955     133434.3     -41961.4    3731.8825   -45693.282   0.15701267 
   88200     297.3943   -992.20353    133342.63   -41986.906    3630.1189   -45617.024    0.1603946 
   88400    305.50125   -879.68244    133172.28   -41979.404    3729.0757   -45708.479   0.16395483 
   88600     299.3779   -982.87502    133310.63   -41996.612    3654.3315   -45650.944   0.15871805 
   88800    300.32891    -1139.271    133478.57   -41990.714      3665.94   -45656.654   0.15926531 
   89000    299.58453   -978.63673    133282.78   -42007.105    3656.8537   -45663.959   0.15736824 
   89200    302.18778    -806.4349    133111.28   -41982.815      3688.63   -45671.445   0.15883289 
   89400    296.23553   -1088.0039    133367.98   -41947.305    3615.9745    -45563.28   0.17507965 
   89600    300.39593   -1149.2633    133533.68   -41973.026    3666.7581   -45639.784   0.16112974 
   89800    303.00513   -908.09252    133226.07   -41997.077     3698.607   -45695.684   0.15451819 
   90000    297.27516   -809.00244    133077.52   -42012.095    3628.6647   -45640.759   0.15556899 
   90200    295.28053   -1120.5872    133430.52   -42050.068    3604.3173   -45654.385    0.1682172 
   90400      291.016   -1205.9272     133537.6   -42074.039    3552.2627   -45626.302   0.16867723 
   90600    301.62603   -848.75756    133114.64   -42067.088    3681.7731   -45748.861   0.15286465 
   90800    297.42046   -826.75295     133065.6   -42083.302    3630.4382    -45713.74   0.15452866 
   91000    298.87675   -1193.5235    133529.43   -42076.636    3648.2143    -45724.85   0.15959243 
   91200    302.59521    -1154.748    133519.89   -42089.488    3693.6034   -45783.091   0.16588214 
   91400    296.96829   -773.17727    133031.37   -42088.415    3624.9189   -45713.334   0.15932822 
   91600    297.27562   -837.75893    133085.68   -42095.942    3628.6702   -45724.613   0.15015947 
   91800    300.99276   -1209.6208    133568.26    -42061.16    3674.0432   -45735.203   0.15824199 
   92000    299.28622   -1140.2836    133466.38   -42077.172    3653.2125   -45730.384   0.16388315 
   92200    296.91259   -745.87542    132974.37    -42104.12     3624.239   -45728.359   0.16226146 
   92400    300.32632   -867.62727    133141.38   -42058.585    3665.9084   -45724.494   0.15748817 
   92600    299.63113   -1331.8722    133655.11   -42105.901    3657.4225   -45763.324   0.16018186 
   92800     294.5584   -1095.9597    133409.12   -42084.132    3595.5028   -45679.635   0.16260425 
   93000    296.55039   -718.74264    132959.79   -42022.083    3619.8178   -45641.901   0.15966022 
   93200    297.62191   -1006.2345    133281.83   -42019.988    3632.8972   -45652.885   0.16144093 
   93400    294.56135   -1334.1539    133677.04   -42013.162    3595.5388     -45608.7   0.16692269 
   93600    302.52916   -944.50558    133292.23   -42001.514    3692.7971   -45694.311   0.16086179 
   93800     300.0314    -738.2831    132980.77   -42005.735    3662.3085   -45668.043   0.16095259 
   94000    298.55813   -1039.5332    133404.58    -42004.14    3644.3251   -45648.465   0.16225181 
   94200    295.20273   -1291.6543    133648.19   -42075.397    3603.3677   -45678.765   0.15816117 
   94400    297.24559   -862.31018    133176.14   -42067.435    3628.3036   -45695.738   0.15622108 
   94600     297.8157   -734.19216    132997.08   -42065.751    3635.2626   -45701.014   0.16448758 
   94800    294.01074    -1220.223     133491.2   -42114.039    3588.8177   -45702.856   0.16903463 
   95000    298.81138   -1209.0247    133555.01   -42120.282    3647.4164   -45767.698   0.15821375 
   95200    293.07747   -833.51555    133030.23   -42127.789    3577.4259   -45705.215   0.15415617 
   95400    291.76066   -801.63459    133027.51   -42145.653    3561.3523   -45707.006   0.15590592 
   95600    293.28671   -1203.4421    133530.88   -42096.113    3579.9799   -45676.093   0.16782559 
   95800    302.88378   -1175.2509    133490.61   -42063.433    3697.1258   -45760.558   0.16598999 
   96000    295.03641   -728.72677    133047.31   -42064.836    3601.3375   -45666.174   0.14831728 
   96200    293.60323   -920.05486    133210.15   -42092.974    3583.8436   -45676.818   0.15209297 
   96400    292.34284   -1263.5781    133605.43   -42081.455    3568.4586   -45649.913   0.16178696 
   96600    289.84448   -1037.5643    133378.37   -42097.929    3537.9627   -45635.892   0.16425403 
   96800    293.46323   -781.67834    133021.09   -42156.008    3582.1346   -45738.143   0.15667402 
   97000    297.10724   -959.90686    133261.25    -42139.45    3626.6149   -45766.065   0.15031936 
   97200    295.84652   -1244.2816    133593.53   -42123.344     3611.226    -45734.57   0.15390998 
   97400    300.14717   -997.58527    133338.61   -42084.522    3663.7216   -45748.244   0.15299212 
   97600    297.49528   -767.29904    133058.36   -42062.181    3631.3515   -45693.532   0.16025759 
   97800    298.53922   -1019.6637     133357.1   -42054.565    3644.0943   -45698.659   0.16226786 
   98000    299.32195   -1225.8088    133584.74   -42023.271    3653.6486    -45676.92   0.16169262 
   98200    302.86675   -951.27286    133250.49   -42040.196    3696.9179   -45737.114   0.15340989 
   98400    302.74039    -813.7914    133104.26   -41973.357    3695.3755   -45668.733   0.15602242 
   98600    299.94115   -1119.4759     133466.7   -42014.728    3661.2069   -45675.935   0.16663589 
   98800    300.13263   -1177.4401    133521.11   -41976.579    3663.5441   -45640.123   0.17098699 
   99000    300.40526   -874.38276    133143.31   -41985.749    3666.8719   -45652.621   0.16322774 
   99200    298.64687    -848.0908    133127.82   -42054.635    3645.4083   -45700.043   0.15584097 
   99400    294.22652   -1198.7054    133516.97   -42135.183    3591.4516   -45726.634   0.15696423 
   99600    297.78806   -1097.1311    133433.88    -42156.93    3634.9253   -45791.855   0.15537767 
   99800    293.09606   -815.89483    133049.46   -42129.353    3577.6528   -45707.006   0.15924294 
  100000     296.7182   -870.42087    133188.14    -42134.77    3621.8661   -45756.636   0.15355468 
  100200    299.69335    -1212.781    133571.31   -42090.728    3658.1821    -45748.91    0.1572742 
  100400    296.34142   -1080.1543    133362.85   -42073.002     3617.267   -45690.269   0.15887706 
  100600    299.80249   -760.96642    132968.21   -42035.864    3659.5142   -45695.378   0.15485309 
  100800    297.60557   -964.43511    133262.48   -42062.428    3632.6978   -45695.126   0.15810485 
  101000    299.82524   -1298.0856    133647.01   -42047.247    3659.7919   -45707.039   0.16724779 
  101200    298.87142   -956.27872    133260.55   -42019.167    3648.1493   -45667.316   0.16284296 
  101400    296.79335   -686.43002    132923.56   -42045.447    3622.7834   -45668.231   0.15615957 
  101600    297.00519   -1028.1355    133389.89   -42047.511    3625.3693    -45672.88   0.15450517 
  101800    297.54801   -1367.0964    133697.11   -42012.219    3631.9951   -45644.214   0.16462695 
  102000    299.43442   -905.57203    133171.92   -42030.527    3655.0214   -45685.549   0.16291062 
  102200    297.05739   -677.30815    132916.96   -42016.882    3626.0064   -45642.888   0.16594643 
  102400     302.1989   -1102.1076    133497.75   -41958.103    3688.7658   -45646.869   0.16454944 
  102600    301.64984   -1355.0507    133698.56   -41956.027    3682.0638   -45638.091   0.16185176 
  102800    296.75367   -808.39959    133041.43   -41983.097    3622.2991   -45605.396   0.16189083 
  103000    299.47779   -696.89351    132936.09   -41979.212    3655.5509   -45634.763   0.16455061 
  103200    302.05495   -1313.0163    133665.25    -41950.26    3687.0087   -45637.268   0.17435238 
  103400    295.26813   -1297.6104    133628.69   -41978.998    3604.1659   -45583.164   0.16884452 
  103600    299.15015   -671.88073    132891.84   -41995.373    3651.5515   -45646.924    0.1527276 
  103800    304.94333   -763.26851    133064.13   -41991.781    3722.2655   -45714.047   0.15066233 
  104000    297.24071   -1341.7035    133745.63   -41992.234    3628.2441   -45620.478   0.16854146 
  104200    297.51309   -1109.2567    133499.98   -42005.213    3631.5689   -45636.782   0.16690694 
  104400    296.08442   -715.44802    132924.88   -42033.983    3614.1299   -45648.113   0.16195686 
  104600     304.9251   -908.23724    133207.99   -42022.881     3722.043   -45744.924   0.15093251 
  104800     299.4344    -1265.336    133677.97   -42009.156    3655.0211   -45664.177   0.15341366 
  105000    293.27004   -1048.5432     133353.6   -42044.556    3579.7765   -45624.333   0.16102207 
  105200    296.76317    -728.3182     132973.7   -42048.154     3622.415   -45670.569   0.16234332 
  105400        295.8   -1012.9859    133314.63    -42037.62    3610.6582   -45648.278   0.16335925 
  105600    300.81557   -1246.0624    133609.37   -42028.288    3671.8804   -45700.169   0.16190246 
  105800    299.50604   -969.62817    133275.82   -42054.206    3655.8957   -45710.101   0.15624856 
  106000    299.82618   -769.81488    133072.01   -42016.248    3659.8034   -45676.051   0.15524027 
  106200    300.14897   -1050.2893    133414.91   -41994.135    3663.7435   -45657.879    0.1611986 
  106400    291.11751   -1190.8969     133533.7   -42022.652    3553.5018   -45576.154   0.16904214 
  106600    302.96802   -899.45201    133194.08   -42029.882     3698.154   -45728.036    0.1587535 
  106800     295.5282   -808.22997    133118.58   -42024.082    3607.3405   -45631.422   0.15459441 
  107000     300.4567   -1077.2943    133426.54   -41977.915    3667.4998   -45645.415     0.159562 
  107200    298.96737   -1187.2906    133480.15   -41965.427    3649.3204   -45614.748   0.16675326 
  107400    300.18264   -896.05389    133189.19   -41976.687    3664.1545   -45640.841   0.16264537 
  107600    302.61288   -861.63488    133153.07   -41955.628    3693.8191   -45649.447   0.16057381 
  107800    302.30676   -1078.1317    133410.19    -41972.64    3690.0824   -45662.723   0.15814618 
  108000    301.49858   -1088.3509    133409.55   -41947.965    3680.2175   -45628.182   0.15711726 
  108200    298.62182   -918.09135    133192.03   -41984.746    3645.1026   -45629.849    0.1566113 
  108400    298.03891   -938.12925    133221.05   -41981.925    3637.9873   -45619.912   0.16324632 
  108600     299.3234   -1073.4845    133432.17   -41956.531    3653.6663   -45610.197   0.16671877 
  108800    298.69579   -1115.2748    133430.62   -41972.962    3646.0054   -45618.967   0.16063052 
  109000    305.56234   -876.11482    133236.69   -42009.867    3729.8214   -45739.689   0.14549597 
  109200    297.05134   -968.77937       133245   -42018.951    3625.9326   -45644.883   0.16140932 
  109400    299.51631    -1100.604    133434.41   -41995.337     3656.021   -45651.358   0.16813139 
  109600      300.626   -1069.3511     133432.4   -41961.214    3669.5664    -45630.78   0.17147189 
  109800    302.03943   -925.87901    133257.97   -42017.631    3686.8193   -45704.451   0.15991638 
  110000    305.06947   -961.91792    133267.14   -41951.907    3723.8052   -45675.713   0.15492092 
  110200    298.55553   -1054.3062       133444   -41937.246    3644.2934    -45581.54   0.15951655 
  110400    304.07014   -1046.3523     133419.9   -41989.286    3711.6069   -45700.893   0.16332011 
  110600    301.01009   -933.01013    133214.69   -42065.625    3674.2547    -45739.88   0.16801259 
  110800    295.62069   -992.02332    133218.46   -42061.122    3608.4695   -45669.592    0.1620421 
  111000    298.31224   -1094.4964    133395.72   -42059.708    3641.3237   -45701.031   0.15522904 
  111200    299.30659   -1080.3633    133359.21    -42042.06     3653.461   -45695.521   0.15729498 
  111400    296.76077   -894.35329    133200.83   -42094.635    3622.3858   -45717.021   0.15430596 
  111600    296.15558   -1008.5712    133256.81    -42140.28    3614.9985   -45755.278   0.16500901 
  111800    294.80326   -1087.6438    133381.65   -42169.242    3598.4916   -45767.734   0.15497412 
  112000    294.38918   -1035.1586    133300.33   -42170.616    3593.4371   -45764.054   0.15242128 
  112200    298.60596   -879.38115    133143.12   -42125.113    3644.9089   -45770.022   0.15247458 
  112400     295.4929   -983.66328    133290.34   -42101.658    3606.9097   -45708.568   0.15612132 
  112600    292.55627   -1182.5368    133494.79   -42071.955    3571.0639   -45643.019   0.16802354 
  112800    297.50864    -1018.023    133282.41   -42092.601    3631.5146   -45724.116   0.16413525 
  113000    295.49458   -792.43322    133050.24   -42074.005    3606.9301   -45680.935   0.15899827 
  113200    298.23777   -1065.4131    133354.41   -42104.335    3640.4146    -45744.75   0.15398926 
  113400    296.66193   -1258.8077    133596.14   -42080.226    3621.1793   -45701.405   0.15547587 
  113600    297.41329   -941.81573    133161.08   -42091.317    3630.3507   -45721.668   0.15920974 
  113800    303.92603   -692.13484    132947.34   -42077.949    3709.8479   -45787.797   0.15641672 
  114000    299.44115   -1170.4919    133496.86   -42057.588    3655.1036   -45712.692   0.16559544 
  114200    294.86788   -1298.0014    133691.22   -42065.684    3599.2804   -45664.964   0.16525519 
  114400    302.46089   -770.76749    133069.62   -42018.712    3691.9638   -45710.676   0.14752847 
  114600    299.45254   -675.06865    132963.52   -41995.365    3655.2426   -45650.608   0.15000016 
  114800     297.1284   -1307.7189    133696.19   -41956.286    3626.8732   -45583.159   0.16995362 
  115000    303.45421   -1299.8481    133726.45     -41979.7    3704.0887   -45683.789   0.17199952 
  115200    301.53797   -697.76314     132955.4   -42018.534    3680.6982   -45699.232   0.15910322 
  115400    301.56033   -738.02453    132997.06   -42036.965    3680.9712   -45717.937   0.14844138 
  115600    300.40176   -1320.4085    133726.05    -42002.14    3666.8292   -45668.969   0.15617586 
  115800    298.32227   -1196.7585    133616.35   -42020.769    3641.4461   -45662.215   0.16181534 
  116000    302.57969   -678.24375    132951.15   -42021.136    3693.4139    -45714.55   0.15932862 
  116200    299.55245   -813.59783    133131.91   -42036.141    3656.4622   -45692.603   0.15712772 
  116400    299.40414   -1300.2427    133738.97   -42075.867    3654.6519   -45730.519   0.15704491 
  116600    293.69162   -1150.5633    133486.39   -42096.131    3584.9225   -45681.054   0.15245211 
  116800    297.15568   -645.75356    132937.31   -42051.278    3627.2062   -45678.485   0.15185623 
  117000     296.1073   -912.81728    133215.49   -42070.489    3614.4093   -45684.898     0.162716 
  117200    292.42114   -1308.0711    133656.25   -42060.296    3569.4145    -45629.71   0.17006617 
  117400     294.9467   -983.46114    133332.49   -42077.882    3600.2425   -45678.125    0.1590033 
  117600    298.12892   -714.32004     132987.9   -42055.424     3639.086    -45694.51   0.15069883 
  117800     297.0778   -1034.8025    133342.99    -42014.35    3626.2555   -45640.606   0.15997621 
  118000    301.11391   -1224.0718    133632.98   -41997.981     3675.522   -45673.503   0.16194991 
  118200    301.17547   -951.13947    133303.08   -42044.185    3676.2735   -45720.459    0.1580477 
  118400    295.45944   -833.92695    133078.97   -42082.476    3606.5012   -45688.977   0.15829847 
  118600    295.46601   -1035.8065    133367.46   -42106.433    3606.5813   -45713.014   0.15373802 
  118800    296.58614     -1159.83     133503.1   -42142.798    3620.2542   -45763.052   0.15547853 
  119000     294.8695   -915.65118    133190.36   -42157.085    3599.3001   -45756.385   0.15729757 
  119200    297.64763   -849.38068    133105.62   -42160.436    3633.2112   -45793.648   0.15486278 
  119400    301.39419    -1091.984    133384.63   -42189.744    3678.9432   -45868.687   0.15397604 
  119600    295.95483   -1086.4966    133391.79   -42127.084    3612.5481   -45739.632   0.15517974 
  119800    291.06901   -894.91925    133164.26    -42122.61    3552.9097   -45675.519   0.15667067 
  120000    293.83228    -910.7215    133222.65   -42149.833    3586.6394   -45736.472   0.15535368 
  120200    295.30826   -1144.2826    133460.33   -42118.725    3604.6558   -45723.381   0.15820038 
  120400    294.86859   -1061.2781    133366.75   -42157.094     3599.289   -45756.383   0.15993781 
  120600    294.93806   -897.12839    133147.21   -42145.842     3600.137   -45745.979   0.15874231 
  120800    298.72724   -952.31181    133274.65   -42144.286    3646.3893   -45790.676   0.15150807 
  121000    295.83229   -1139.4032    133458.46   -42127.822    3611.0523   -45738.875   0.15795003 
  121200    290.32065   -1026.8555    133308.54   -42137.108    3543.7749   -45680.883   0.15859075 
  121400     299.4342   -853.88739     133148.1   -42131.075    3655.0187   -45786.094   0.15516155 
  121600    295.28807   -1023.7107     133290.9   -42120.654    3604.4093   -45725.064   0.15591688 
  121800    296.64159   -1120.3732    133422.76   -42114.901     3620.931   -45735.832   0.15622455 
  122000    299.36129   -947.96515    133241.97   -42097.545    3654.1288   -45751.674   0.15389943 
  122200    298.78741   -857.18969    133147.26   -42071.637    3647.1238   -45718.761   0.15092974 
  122400    300.25869   -1083.0378    133372.97   -42027.513    3665.0829   -45692.596   0.16225034 
  122600    299.23446   -1153.3469    133476.09   -41943.194    3652.5806   -45595.775   0.16509535 
  122800    301.37967   -950.69779     133295.7   -41943.011     3678.766   -45621.777   0.15683831 
  123000    300.15408   -966.41055    133223.85   -41980.881    3663.8059   -45644.687   0.15700293 
  123200    298.94828   -1058.2848    133362.11   -42002.914    3649.0874   -45652.002   0.15846596 
  123400    298.14198   -1048.1344    133362.91   -42084.883    3639.2454   -45724.129   0.16004306 
  123600    298.69248   -940.19969    133191.15   -42044.617    3645.9651   -45690.582   0.16294531 
  123800    294.65586   -964.56701    133209.31   -42056.106    3596.6923   -45652.798   0.15892855 
  124000    294.48083   -1101.4785    133421.02   -42032.119    3594.5558   -45626.675   0.15919561 
  124200    294.54289   -1074.6485    133393.68   -42021.409    3595.3133   -45616.723   0.15703607 
  124400    301.30758   -857.21599    133149.34   -42046.897     3677.886   -45724.783   0.15659009 
  124600    295.41708   -946.26752    133239.16   -42059.461    3605.9841   -45665.445   0.16070284 
  124800    293.65669   -1155.0963    133511.74   -42062.241     3584.496   -45646.737    0.1635007 
  125000    299.49798   -1064.3678    133363.79   -42077.849    3655.7973   -45733.647   0.15709022 
  125200    294.59547   -804.05792    133059.04   -42070.322    3595.9552   -45666.277   0.14729849 
  125400    296.31301   -1001.4595    133289.73   -42121.561    3616.9202   -45738.481   0.15148699 
  125600    295.22341   -1268.9969    133598.63   -42126.803      3603.62   -45730.423     0.163104 
  125800    292.33633   -982.58602    133267.27    -42105.26    3568.3792    -45673.64   0.16158041 
  126000    301.77833   -705.83868    132962.34   -42097.462    3683.6321   -45781.094   0.15024155 
  126200    298.45652   -1072.0738    133391.22   -42064.281    3643.0848   -45707.366   0.15306608 
  126400    299.31384   -1243.0776    133646.15   -42090.706    3653.5496   -45744.256   0.15137136 
  126600    301.45626   -841.18931    133149.75   -42106.935    3679.7009   -45786.636   0.14759288 
  126800    299.18383   -665.34304    132940.77   -42091.111    3651.9626   -45743.073   0.15251928 
  127000    295.32813   -1167.9269    133532.23   -42103.944    3604.8983   -45708.843   0.15993577 
  127200      298.637   -1286.4106    133682.09   -42133.508    3645.2878   -45778.795    0.1547506 
  127400    297.00675   -751.37792    133045.04   -42133.864    3625.3883   -45759.253   0.15215048 
  127600    295.89847   -763.39178    133019.44   -42130.717    3611.8601   -45742.577   0.14926594 
  127800    295.26199   -1221.2394    133654.53   -42122.347     3604.091   -45726.438   0.15815047 
  128000    297.33509   -1226.5089    133610.14   -42099.404    3629.3962     -45728.8   0.16086225 
  128200    297.03674   -693.00016     132951.6   -42075.661    3625.7544   -45701.416   0.15458164 
  128400    294.36004   -801.09531    133105.28   -42107.842    3593.0814   -45700.924   0.15163425 
  128600    298.87643   -1346.5244    133746.39   -42115.566    3648.2104   -45763.776   0.15234703 
  128800    294.07939   -1102.9835       133490   -42177.132    3589.6558   -45766.788   0.14761416 
  129000    289.36112    -667.6381    132870.36   -42204.335    3532.0625   -45736.397   0.15177885 
  129200    293.46703   -884.93007    133178.23   -42181.295     3582.181   -45763.476    0.1532837 
  129400    295.29328    -1346.753    133726.94   -42162.333     3604.473   -45766.806    0.1551861 
  129600    294.00566   -1029.7671    133343.21   -42151.958    3588.7557   -45740.713    0.1439151 
  129800    294.91899    -680.0831    132870.38   -42169.674    3599.9043   -45769.579   0.14327225 
  130000    293.35969   -1000.4874    133287.64   -42188.243    3580.8708   -45769.114    0.1502139 
  130200    293.71252   -1339.3585    133677.43   -42183.956    3585.1776   -45769.133   0.15757234 
  130400    291.61035   -980.98645    133238.18   -42186.115    3559.5175   -45745.633   0.15244702 
  130600    294.01429   -707.04766    132932.27   -42146.005    3588.8611   -45734.866   0.14464225 
  130800    293.86485   -1094.8871    133368.51   -42161.972     3587.037   -45749.009   0.15444759 
  131000    290.77285   -1286.0002    133586.86   -42181.716    3549.2947   -45731.011   0.15800108 
  131200    293.03711   -882.64959    133154.57   -42155.576    3576.9332   -45732.509   0.15408249 
  131400    296.48537   -816.34816    133055.76   -42167.341    3619.0242   -45786.365   0.15285246 
  131600    296.64186   -1114.7067    133432.93    -42148.36    3620.9342   -45769.295   0.15521294 
  131800     295.6928   -1154.7428    133478.01   -42123.307    3609.3497   -45732.657   0.15672703 
  132000    293.63919   -875.94106    133170.72     -42079.3    3584.2825   -45663.583   0.15468271 
  132200    292.87987   -929.06546    133183.89   -42098.545    3575.0139   -45673.559   0.15794023 
  132400    293.51043   -1103.3271       133425   -42102.216    3582.7107   -45684.927   0.15654104 
  132600    296.91783    -1060.165    133393.04   -42063.279    3624.3029   -45687.582   0.15450645 
  132800    293.78274    -943.5265    133224.74   -42043.465    3586.0346     -45629.5    0.1508501 
  133000    298.88823   -956.24454    133281.94   -42030.196    3648.3544   -45678.551   0.15024139 
  133200    298.13909   -1091.5817    133443.74   -41999.568    3639.2102   -45638.778   0.15437801 
  133400    303.42144   -1035.2441    133386.85   -41977.093    3703.6887   -45680.782   0.15143311 
  133600    302.14075   -938.81331    133259.39   -41984.506     3688.056   -45672.562   0.15152234 
  133800     296.0079   -995.68725    133322.83   -42009.999    3613.1959   -45623.195    0.1517017 
  134000    300.01645   -1093.3458    133398.15   -41963.251     3662.126   -45625.377   0.15677781 
  134200    301.26683   -1006.7971    133335.11    -41974.96    3677.3886   -45652.348   0.15510581 
  134400    301.72464   -939.03185    133265.82     -41966.1    3682.9768   -45649.077   0.15514933 
  134600    300.28451   -1006.9584    133339.66   -41988.095     3665.398   -45653.493   0.15403151 
  134800    298.51754   -1056.8725    133360.61   -42019.968    3643.8297   -45663.798   0.15725919 
  135000    298.15569   -938.99913    133256.26   -42093.164    3639.4127   -45732.577    0.1540188 
  135200    295.03055   -943.97205    133220.88   -42077.155     3601.266   -45678.421   0.15575515 
  135400    298.06035    -1019.952    133321.66   -42092.326    3638.2489   -45730.575   0.15453197 
  135600    294.78033   -1040.6417    133333.52   -42064.686    3598.2116   -45662.897   0.15680769 
  135800    298.52082   -945.92615     133227.7   -42142.453    3643.8696   -45786.323   0.15173518 
  136000    295.08216   -989.17113    133250.47   -42165.604    3601.8959   -45767.499   0.14754476 
  136200     290.8058   -1059.9584    133345.62   -42159.758    3549.6969   -45709.455   0.15098495 
  136400    292.47746   -1010.5343    133296.97     -42128.7    3570.1019   -45698.801   0.15187641 
  136600    299.00897   -935.71555    133231.53   -42072.932    3649.8283    -45722.76   0.14851937 
  136800    297.73736   -1051.8636    133345.54   -42085.168    3634.3065   -45719.474   0.15225423 
  137000     300.8962   -1088.0492    133387.24   -42090.993    3672.8645   -45763.858   0.14426805 
  137200    300.36288   -914.40261    133212.76   -42119.291    3666.3546   -45785.646   0.14078457 
  137400    303.32416   -905.36965       133184   -42083.939    3702.5013    -45786.44   0.14491666 
  137600    299.29431   -1097.7936     133429.6   -42070.835    3653.3112   -45724.146   0.15476354 
  137800    301.76208   -1098.9305    133439.05   -42034.507    3683.4339   -45717.941   0.15215858 
  138000    295.38292   -848.18018       133128   -42060.562    3605.5671    -45666.13   0.14761752 
  138200    296.24632   -879.09074     133164.3    -42103.02    3616.1061   -45719.127   0.14532132 
  138400    295.37598   -1185.9883    133544.32   -42073.678    3605.4824    -45679.16   0.15610724 
  138600    301.53281   -1080.2603    133470.83   -42092.538    3680.6353   -45773.173   0.15587706 
  138800    301.04031   -789.10625    133064.37   -42029.508    3674.6236   -45704.132   0.15557094 
  139000    298.21417    -896.3664    133199.15   -42038.578    3640.1266   -45678.705   0.15080011 
  139200    297.57793   -1220.0614    133613.58   -42029.659    3632.3603    -45662.02   0.15504833 
  139400    301.79931   -1055.5655    133421.06   -42060.884    3683.8883   -45744.772   0.15041176 
  139600    299.14785    -768.4497     133034.4   -42050.554    3651.5234   -45702.077   0.15252432 
  139800    300.27323   -974.15386    133312.01   -42001.957    3665.2602   -45667.217   0.15356005 
  140000    301.16183   -1302.9755    133708.87   -41976.203    3676.1069    -45652.31   0.15366716 
  140200    299.22059    -1029.599    133384.63   -42015.452    3652.4113   -45667.864   0.15065811 
  140400     298.8664   -668.56372    132995.43   -42047.342     3648.088    -45695.43   0.14331569 
  140600    305.55557   -1010.6474    133365.04   -42046.021    3729.7387    -45775.76   0.14871694 
  140800    297.88071   -1287.0373    133682.17   -42031.693    3636.0562   -45667.749   0.15421639 
  141000    295.43602   -935.14241    133279.43   -42078.483    3606.2153   -45684.699   0.14843967 
  141200    297.68104   -724.17656    133025.32   -42037.923    3633.6189   -45671.542   0.14749694 
  141400     300.9774   -1093.6973    133471.96   -42025.258    3673.8557   -45699.114   0.15177196 
  141600     305.6814   -1216.9572    133669.01   -42002.391    3731.2747   -45733.665   0.15139186 
  141800    292.62059   -915.30921    133210.41   -42072.119     3571.849   -45643.968   0.15388521 
  142000    298.39812   -762.34896    133063.25   -42075.465    3642.3719   -45717.836   0.14893166 
  142200    294.64033   -1168.2185     133512.7   -42085.417    3596.5028    -45681.92   0.15981832 
  142400     295.9526    -1210.229    133562.44   -42080.286    3612.5209   -45692.807   0.15696892 
  142600     300.6411   -838.47349     133107.4   -42057.405    3669.7507   -45727.156   0.14878056 
  142800    297.48951   -808.53662    133096.28   -42082.688    3631.2811   -45713.969   0.15341114 
  143000    297.73843   -1203.2555    133551.67    -42106.77    3634.3194    -45741.09   0.15919982 
  143200    300.82408   -1143.6992    133495.85   -42096.191    3671.9842   -45768.175   0.15751164 
  143400     299.8578   -814.96742     133045.9   -42080.003    3660.1894   -45740.193   0.15113693 
  143600     297.4193   -846.49246    133163.99   -42057.092    3630.4241   -45687.516   0.14698669 
  143800    295.28598   -1236.5883    133610.49    -42055.29    3604.3838   -45659.673   0.15652414 
  144000     296.0375     -1069.67    133414.97   -42040.449    3613.5572   -45654.006   0.15974666 
  144200    302.44702   -753.36487    132995.64   -42024.879    3691.7945   -45716.674   0.14959272 
  144400    299.37545    -942.8096    133249.84    -42017.73    3654.3017   -45672.031    0.1505234 
  144600    301.23563   -1232.3765    133639.59   -41989.376    3677.0077   -45666.384   0.15349801 
  144800    302.87565   -1052.8679    133378.65   -41976.866    3697.0266   -45673.893   0.15864516 
  145000    301.51351   -766.17153    133003.15   -42024.932    3680.3997   -45705.332   0.15766613 
  145200    292.93325   -966.20244    133252.74   -42050.725    3575.6655    -45626.39   0.15813745 
  145400    299.36298   -1258.3497    133584.72   -42042.326    3654.1495   -45696.475   0.15279248 
  145600    299.28784   -1000.6908    133310.17   -42069.321    3653.2322   -45722.553   0.15150649 
  145800    299.19445   -814.25677    133036.72   -42094.555    3652.0923   -45746.647   0.15168606 
  146000    296.06961   -1035.3815    133328.69   -42070.817    3613.9492   -45684.766   0.15990757 
  146200    296.79499   -1193.6955    133574.07    -42098.47    3622.8035   -45721.274   0.15897633 
  146400    298.36313   -955.34807    133240.07   -42056.137    3641.9448   -45698.081    0.1527335 
  146600    298.46801   -797.93562    133050.52   -42009.934     3643.225   -45653.159    0.1505066 
  146800    301.44304   -1096.9613    133457.74   -41968.876    3679.5395   -45648.415   0.15695093 
  147000     296.9579   -1208.0298     133594.4   -41964.651     3624.792   -45589.443   0.16438584 
  147200    303.57056   -858.98272    133167.42   -41948.255    3705.5089   -45653.763   0.15665167 
  147400     294.9249   -827.38738    133144.58   -42001.599    3599.9764   -45601.576   0.15218374 
  147600    299.71363   -1183.3717    133554.67   -42025.651    3658.4296    -45684.08   0.15568921 
  147800    294.71664   -1096.0419    133489.87   -42067.881    3597.4342   -45665.315   0.15007677 
  148000     302.5461   -787.18203    133097.77   -42040.539    3693.0039   -45733.543   0.14591727 
  148200    297.45275    -888.2162    133218.52   -42092.288    3630.8324   -45723.121   0.14725742 
  148400    292.69809    -1195.375    133568.62   -42108.914    3572.7949   -45681.709   0.15590722 
  148600    294.58644   -1070.0586    133380.57   -42082.791    3595.8449   -45678.636   0.15760222 
  148800    294.24574   -776.32399    133068.82   -42101.102    3591.6862   -45692.788    0.1472547 
  149000    297.10066   -930.46101    133280.79   -42105.758    3626.5345   -45732.293   0.14597221 
  149200     296.3594   -1175.1436    133544.77   -42121.517    3617.4864   -45739.004   0.15374931 
  149400    290.76128   -993.29576     133326.8   -42143.839    3549.1535   -45692.992   0.15628129 
  149600    293.25955   -863.81435    133133.49   -42127.384    3579.6485   -45707.033   0.15737128 
  149800    295.82413   -985.33755    133355.51   -42138.282    3610.9528   -45749.235   0.14848024 
  150000    292.27246   -1145.7358    133505.23   -42076.834    3567.5996   -45644.434   0.15555976 
  150200    305.80599   -922.83482    133311.46    -42025.07    3732.7955   -45757.866   0.15169201 
  150400    305.13641   -864.54327    133254.31   -42029.054    3724.6223   -45753.676   0.15482006 
  150600    302.86421   -1046.3552    133443.43   -42038.265    3696.8869   -45735.152   0.15818906 
  150800     294.8551    -1097.467    133437.19   -42028.485    3599.1244   -45627.609   0.15733656 
  151000    298.77053    -944.9299    133223.25   -42059.437    3646.9178   -45706.355   0.15189773 
  151200    297.84776   -935.77394     133215.2   -42045.287    3635.6541   -45680.941   0.15578363 
  151400    305.01093   -1040.0819     133422.7   -41967.476    3723.0906   -45690.567   0.15547864 
  151600    305.07027   -1071.0765    133448.41   -41951.088     3723.815   -45674.903   0.15806578 
  151800    304.53797   -943.17816    133271.02   -41920.323    3717.3175   -45637.641   0.15084792 
  152000     303.4797   -902.38517    133247.04   -41946.166    3704.3999   -45650.566   0.15110693 
  152200    298.10088   -1049.9308     133419.3   -41963.506    3638.7437    -45602.25   0.15974825 
  152400    294.38683    -1084.526    133406.75   -42002.694    3593.4085   -45596.102   0.16118668 
  152600    295.46254   -922.94833    133245.94   -41993.387     3606.539   -45599.926   0.16207185 
  152800    302.51678   -979.77876    133310.51   -41931.811     3692.646   -45624.457   0.15388517 
  153000    301.10166   -1077.3144    133471.68   -41980.173    3675.3725   -45655.545    0.1580294 
  153200    302.83311   -1017.1158     133366.3   -41924.455    3696.5073   -45620.963   0.16041702 
  153400    298.85062   -903.83797    133207.11   -41974.072    3647.8954   -45621.968   0.15777323 
  153600    300.36846   -984.11582    133333.48   -42014.983    3666.4227   -45681.406   0.15712945 
  153800    298.23364   -1149.4509    133490.79   -42018.639    3640.3642   -45659.003    0.1605119 
  154000    302.12127   -960.35715    133311.27   -42054.594    3687.8183   -45742.412   0.15403518 
  154200    297.22686   -856.92898    133135.21   -42009.491    3628.0751   -45637.566    0.1536481 
  154400    300.06218   -993.52138     133406.4   -41987.125    3662.6842   -45649.809   0.15047556 
  154600    296.95777   -1222.0022    133604.27    -42002.45    3624.7904    -45627.24   0.15736017 
  154800    298.42479   -894.35598    133250.73   -42041.444    3642.6974   -45684.141   0.15516172 
  155000    298.77957    -810.2456    133104.96   -42016.685     3647.028   -45663.713   0.15532665 
[...]
  163000    294.92663   -1178.5483    133528.65   -42088.023    3599.9975    -45688.02   0.15083525 
  163200    295.07448   -1024.1855    133329.96   -42081.934    3601.8022   -45683.736   0.15575346 
  163400    296.13699   -855.59119     133126.8   -42112.731    3614.7717   -45727.503   0.15607976 
  163600    294.56975    -964.8301    133300.54   -42075.973    3595.6412   -45671.614   0.15064329 
  163800    294.98052   -1137.2077    133461.23   -42136.887    3600.6553   -45737.542   0.14992493 
  164000    295.03269   -974.10447       133238   -42133.189    3601.2921   -45734.482   0.14916718 
  164200    290.80443   -880.86379    133067.51   -42147.391    3549.6802   -45697.071    0.1591335 
  164400    295.81545   -1044.9502    133331.47   -42098.273    3610.8467   -45709.119   0.15775399 
  164600    293.89164   -1191.6241    133483.07   -42059.488     3587.364   -45646.852   0.16172125 
  164800    292.28198   -913.04839    133171.38   -42110.786    3567.7158   -45678.502   0.15539651 
  165000    296.25119   -809.81656    133044.16   -42100.287    3616.1656   -45716.452   0.15682213 
  165200    292.34785   -1133.7703     133421.2   -42080.904    3568.5198   -45649.424   0.16640917 
  165400    297.61829   -1198.0404     133512.2   -42093.745     3632.853   -45726.598   0.15816101 
  165600    301.44693    -872.4825    133121.51   -42053.779     3679.587   -45733.366   0.15376375 
  165800    295.82353   -834.71593    133117.37   -42057.718    3610.9454   -45668.663   0.15536835 
  166000    300.72439   -1177.3188    133516.38   -42016.121    3670.7674   -45686.889    0.1648074 
  166200     297.0041   -1097.5011     133465.2   -42060.976    3625.3559   -45686.331   0.15893348 
  166400     297.5163   -820.11799    133091.55   -42059.192     3631.608     -45690.8   0.15161407 
  166600    294.45938   -959.32764    133188.71   -42057.248     3594.294   -45651.542   0.15413826 
  166800    297.37379   -1197.7365    133519.13   -42118.201    3629.8685    -45748.07   0.15430449 
  167000    299.33557   -1066.9104     133349.2    -42109.59    3653.8148   -45763.405   0.15511376 
  167200    299.50889   -799.37224    133058.98   -42077.421    3655.9304   -45733.352   0.14908392 
  167400    291.26837   -1061.8392    133322.33   -42100.821    3555.3432   -45656.164    0.1493126 
  167600    297.55651   -1249.2369    133620.97   -42092.518    3632.0989   -45724.617   0.14931558 
  167800    295.27062   -990.74508    133310.92   -42142.308    3604.1963   -45746.504   0.15294839 
  168000    294.94098    -717.5307    132994.25   -42162.246    3600.1727   -45762.418   0.14540465 
  168200    299.33557   -972.86125    133332.95   -42145.596    3653.8148   -45799.411   0.14299272 
  168400    294.89246   -1237.3375    133625.42   -42117.468    3599.5804   -45717.049   0.14776865 
  168600    292.02153   -950.81595     133259.9   -42080.018    3564.5366   -45644.555   0.15357798 
  168800     292.7766   -773.00324    133009.98    -42151.95    3573.7533   -45725.703   0.15463876 
  169000    296.52893   -1114.2122    133423.56   -42137.157    3619.5559   -45756.713   0.15352454 
  169200    292.36522   -1231.1271    133630.57   -42113.476    3568.7318   -45682.208   0.15113689 
  169400     291.2149   -901.33868    133141.14   -42136.717    3554.6905   -45691.407   0.15089858 
  169600    294.24484   -740.16361    132959.54   -42153.656    3591.6752   -45745.331   0.15330514 
  169800    292.88956   -1188.7423    133525.09   -42142.897    3575.1322   -45718.029   0.16097582 
  170000    291.72179   -1274.9006    133637.61   -42178.985    3560.8778   -45739.863   0.15418598 
  170200    297.78517    -717.0072    132949.86   -42194.587      3634.89   -45829.477   0.14152409 
  170400    299.68954     -723.515    132907.57   -42184.696    3658.1356   -45842.832   0.14430138 
  170600    291.59363    -1345.582    133684.96   -42144.131    3559.3135   -45703.445   0.15579249 
  170800     293.1136    -1301.782    133645.01   -42177.159    3577.8669   -45755.026   0.15431137 
  171000    296.99065   -590.91798    132823.35   -42170.841    3625.1917   -45796.033   0.13968288 
  171200    290.20842   -717.74368    132973.77   -42190.281     3542.405   -45732.686   0.14173122 
  171400    293.48256   -1366.9085    133818.98   -42180.767    3582.3705   -45763.138   0.15115621 
  171600    296.53781   -1197.4628    133556.23   -42156.663    3619.6642   -45776.327   0.15527164 
  171800    294.55311   -548.36825    132746.86   -42136.569    3595.4381   -45732.007   0.14697372 
  172000    292.96294   -864.13623    133119.45   -42137.204    3576.0278   -45713.232   0.14933635 
  172200    291.27046   -1417.7836    133813.86   -42156.251    3555.3687    -45711.62   0.15429776 
  172400    294.07915   -1073.7293    133373.11   -42136.465    3589.6528   -45726.118   0.15286227 
  172600    294.24048   -628.84741    132836.61   -42108.932     3591.622   -45700.554   0.15397326 
  172800     296.8056   -991.02558    133289.52   -42111.811     3622.933   -45734.744   0.15306747 
  173000    300.03536   -1296.1539    133650.83   -42116.406    3662.3567   -45778.763   0.15539166 
  173200    291.81534   -1028.2311    133241.02    -42156.72    3562.0197    -45718.74   0.15890202 
  173400    288.19579   -766.18449    133019.97   -42160.146    3517.8381   -45677.984   0.15302147 
  173600    296.65535   -1036.2819    133349.53   -42110.189    3621.0989   -45731.288   0.15546223 
  173800     293.5093    -1218.222    133512.05   -42097.527     3582.697   -45680.224   0.15429905 
  174000    293.85108    -916.8504    133240.67   -42067.953    3586.8688   -45654.822   0.15167648 
  174200    302.42237   -853.75099    133146.79   -42057.846    3691.4937   -45749.339   0.15345515 
  174400    298.84018   -1050.4673    133399.28    -42043.45    3647.7679   -45691.218    0.1579048 
  174600    297.19157   -1080.1579    133453.65   -42046.974    3627.6443   -45674.618   0.15401446 
  174800    300.92941   -906.73777    133219.74   -42033.282    3673.2699   -45706.552   0.14624665 
  175000    296.62605   -938.64241    133226.91   -42064.636    3620.7413   -45685.378   0.14873085 
  175200    295.58978   -1102.4214    133440.01    -42064.68    3608.0921   -45672.772   0.15806777 
  175400    300.20453   -1047.5311    133423.24   -42081.463    3664.4217   -45745.885    0.1548833 
  175600    293.93807   -908.82393    133219.71   -42092.116    3587.9308   -45680.047   0.14890939 
  175800    295.32398   -966.74757    133265.18   -42064.203    3604.8478   -45669.051   0.14791912 
  176000    294.39844     -1079.25    133477.37   -42068.999    3593.5501   -45662.549   0.15181869 
  176200    295.80042   -1053.4439    133436.71   -42016.422    3610.6633   -45627.085   0.16038658 
  176400    301.17835   -913.20544    133249.35   -42035.517    3676.3086   -45711.825   0.15187319 
  176600    296.36268   -997.83057    133311.84   -42022.965    3617.5265   -45640.491    0.1523944 
  176800    301.09475    -1107.666    133480.86    -42042.22    3675.2881   -45717.508   0.15026705 
  177000    306.20424   -1049.0898    133354.87   -42034.766    3737.6567   -45772.423   0.15230933 
  177200    295.12394   -871.02405    133156.36    -42071.81    3602.4059   -45674.216   0.15600612 
  177400    300.27824   -942.05172    133295.79   -42132.814    3665.3214   -45798.135   0.14537672 
  177600    293.94431   -1131.9893    133481.35   -42121.347    3588.0068   -45709.354   0.15116852 
  177800    295.57255   -945.46375    133314.02   -42086.194    3607.8819   -45694.076   0.14663884 
  178000    294.49811   -852.52391    133180.37    -42064.25    3594.7668   -45659.016   0.15364767 
  178200    294.48726   -1056.5863    133404.73   -42068.217    3594.6344   -45662.851   0.15336465 
  178400    292.05643    -1131.781    133513.73   -42077.333    3564.9626   -45642.296   0.15068888 
  178600     291.2954   -953.99723    133255.91   -42065.868    3555.6732   -45621.542   0.15304333 
  178800    300.93766    -847.6061    133147.55   -42056.404    3673.3706   -45729.775   0.15075778 
  179000    300.69673   -1080.0748     133450.6   -42015.904    3670.4297   -45686.334   0.15582062 
  179200     294.7248   -1194.6533    133566.24   -42043.903    3597.5338   -45641.437   0.15641349 
  179400    295.28881   -879.92208    133232.29   -42035.586    3604.4185   -45640.005   0.14790952 
  179600    300.20986   -803.28262    133177.53   -42042.191    3664.4868   -45706.677   0.14822541 
  179800     299.6128   -1156.7532    133596.04   -42051.323    3657.1989   -45708.522   0.15295688 
  180000    298.65632   -1162.7013    133614.77   -42036.624    3645.5237   -45682.148   0.15195366 
  180200    298.99928   -765.72199    133106.02   -41992.111    3649.7099   -45641.821   0.14953392 
  180400    304.18554   -810.32393     133140.8   -41970.268    3713.0156   -45683.284   0.15040023 
  180600    296.69663   -1352.5052    133770.89   -42006.433    3621.6029   -45628.035   0.16167391 
  180800    294.95452   -1223.5152     133630.8   -42001.989    3600.3379   -45602.327   0.16001712 
  181000    297.58408   -573.66049    132927.61   -42048.051    3632.4354   -45680.486   0.14536483 
  181200    298.80401      -843.55    133187.71     -42029.4    3647.3264   -45676.727   0.15186356 
  181400    293.28877   -1439.0918    133850.12   -42056.395    3580.0051   -45636.401   0.15727705 
  181600    295.96647   -1047.5551    133452.77   -42079.742    3612.6901   -45692.432   0.15340548 
  181800    301.08602   -504.87918    132826.82   -42083.398    3675.1816   -45758.579    0.1455301 
  182000    290.99887   -1002.5239     133304.3   -42054.311    3552.0536   -45606.365     0.155349 
  182200    290.52196   -1427.1481    133851.42   -42055.641    3546.2322   -45601.873   0.15601468 
  182400     295.1821   -980.10076    133295.62   -42072.923    3603.1158   -45676.039   0.15241114 
  182600    294.07383   -608.37039    132850.29   -42055.887    3589.5878   -45645.475   0.15102688 
  182800    301.94574   -1074.2391    133425.77   -42021.966    3685.6756   -45707.642   0.15447782 
  183000    304.17303   -1343.6629    133768.68   -41987.517    3712.8629    -45700.38   0.15693127 
  183200    304.88937    -863.8931    133237.52   -41986.137    3721.6068   -45707.744    0.1447458 
  183400    301.07811   -681.07968    132982.97   -41998.038     3675.085   -45673.123   0.14710928 
  183600    299.06887   -1141.1783    133532.66    -42029.03    3650.5594   -45679.589   0.15410912 
  183800     295.1315   -1290.8064    133708.51   -42034.692    3602.4982    -45637.19   0.15843161 
  184000     295.4963   -821.82094     133122.8    -42074.09    3606.9511   -45681.041   0.14836443 
  184200    295.21035   -723.32819    133032.02   -42118.464    3603.4607   -45721.925   0.14348084 
  184400    296.89224   -1201.4743    133578.48   -42095.789    3623.9905   -45719.779   0.15509801 
  184600    295.21567   -1207.7609    133560.93   -42123.687    3603.5257   -45727.213   0.15548543 
  184800    296.80808    -721.7272    133043.98   -42111.805    3622.9632   -45734.768   0.14846185 
  185000    297.84692   -870.51352    133163.19   -42110.667    3635.6438    -45746.31   0.14928658 
  185200    294.02823   -1282.8611    133618.03   -42146.495    3589.0313   -45735.527   0.15402735 
  185400    299.98585   -1055.5336    133423.69   -42128.444    3661.7524   -45790.196   0.15273876 
  185600       290.82   -769.40254       133042   -42141.281    3549.8702   -45691.151   0.15275718 
  185800    299.61629   -929.43535    133286.59     -42093.6    3657.2414   -45750.842   0.14628694 
  186000    293.55872   -1223.0757    133623.28   -42082.381    3583.3001   -45665.681   0.15469747 
  186200    298.13154   -988.34401    133359.44   -42067.649    3639.1179   -45706.767   0.15636977 
  186400     297.5744   -776.66518    133111.68   -42035.889    3632.3172   -45668.207   0.15278172 
  186600    294.38776   -1043.2554    133421.96    -42044.82    3593.4198   -45638.239   0.15310985 
  186800    298.10222   -1220.4826    133628.67   -42067.847    3638.7601   -45706.607   0.14592896 
  187000    295.73293   -903.72529     133295.6   -42033.854    3609.8395   -45643.693   0.15032592 
  187200    292.90847   -798.99982    133136.75    -42070.12     3575.363   -45645.483   0.15325042 
  187400    298.91847   -1088.6465    133471.41   -42048.475    3648.7235   -45697.198   0.15392277 
  187600    295.05629   -1182.7009    133562.04   -42088.923    3601.5802   -45690.504   0.14845004 
  187800    295.91596   -911.12337    133194.55   -42095.133    3612.0737   -45707.207   0.14964259 
  188000    296.22217   -838.57129    133141.74   -42066.122    3615.8113   -45681.934    0.1529504 
  188200    298.66441   -1138.9304    133513.31   -42033.166    3645.6224   -45678.788   0.15506272 
  188400    302.94632   -1167.2715     133543.8   -42021.127    3697.8891   -45719.016    0.1572433 
  188600     297.7872   -837.82461    133177.22   -42034.185    3634.9148     -45669.1   0.15016034 
  188800    298.00081   -874.64868    133181.31   -42044.262    3637.5223   -45681.785   0.15566339 
  189000    298.63414    -1181.571    133507.91   -42039.182    3645.2529   -45684.435   0.16247691 
  189200    296.85634    -1112.644    133459.14   -42039.993    3623.5523   -45663.546   0.16299219 
  189400    302.22288   -864.28208     133103.4   -42036.091    3689.0586    -45725.15   0.15694633 
  189600    302.89728   -843.35507    133188.19   -42027.964    3697.2906   -45725.255   0.15129658 
  189800    290.58206   -1204.5144    133578.58   -42064.041    3546.9659   -45611.007   0.16099542 
  190000    300.68749   -1094.7992     133433.7   -42089.713     3670.317    -45760.03   0.15731025 
  190200    300.88779   -792.05023     133026.2   -42075.119    3672.7619   -45747.881   0.15243769 
  190400    292.50451   -898.78485     133224.1   -42075.418    3570.4321   -45645.851    0.1541692 
  190600    299.66093   -1246.3798    133637.64   -42021.088    3657.7863   -45678.875   0.16168848 
  190800    301.07454   -1024.8936    133384.69   -42018.403    3675.0414   -45693.444   0.15736025 
  191000    304.41652   -689.55146    132927.45   -42068.102     3715.835   -45783.937   0.14775023 
  191200    301.08391   -941.16226     133265.1   -42072.624    3675.1559    -45747.78   0.14700804 
  191400    298.74143   -1388.6115    133787.62   -42072.962    3646.5626   -45719.525   0.16064906 
  191600    302.78636   -957.37256    133318.78   -42025.196    3695.9367   -45721.133   0.15825651 
  191800     292.1394    -592.4873    132798.46   -42066.736    3565.9754   -45632.711   0.16130369 
  192000    296.29559   -1091.7083    133433.34   -42074.554    3616.7075   -45691.261   0.15454485 
  192200    303.45207   -1489.9413     133916.6   -42028.864    3704.0625   -45732.926   0.15578488 
  192400    296.11841   -840.79761    133081.49   -42044.406    3614.5448   -45658.951   0.15701869 
  192600    298.24885   -454.42872     132688.8   -42090.777    3640.5498   -45731.326   0.15062592 
  192800    295.00288   -1288.2642    133678.46   -42053.924    3600.9282   -45654.852   0.17018453 
  193000    294.67246   -1503.9562    133930.39   -42037.538     3596.895   -45634.433   0.16810609 
  193200     302.2509   -622.19328    132919.83   -42023.395    3689.4006   -45712.795   0.15189382 
  193400    301.52127   -604.86722    132864.02   -42010.056    3680.4944   -45690.551   0.15533418 
  193600    303.32489   -1301.8661    133815.15   -42020.543    3702.5101   -45723.053   0.15462068 
  193800    297.62502   -1325.7512    133752.06   -42045.282    3632.9352   -45678.217   0.16190149 
  194000    296.79906   -650.85126    132919.58   -42096.589    3622.8532   -45719.442   0.14848391 
  194200    294.60664   -735.11333    133075.81   -42068.912    3596.0916   -45665.004   0.14877011 
  194400    297.68543   -1340.2903    133773.33   -42052.548    3633.6726   -45686.221   0.15787545 
  194600    297.41804   -1118.0504    133545.43    -42057.35    3630.4086   -45687.759   0.15036399 
  194800    294.48898   -708.92612    132981.77   -42071.473    3594.6553   -45666.128   0.15085381 
  195000    297.72192   -899.46485    133220.97   -42049.146    3634.1179   -45683.264   0.15531277 
  195200    302.91745   -1271.7614    133699.53    -42011.07    3697.5368   -45708.607    0.1594448 
  195400    297.82789   -1068.6835    133425.96   -42037.585    3635.4114   -45672.996   0.15698225 
  195600    298.91816   -722.01676    133020.86    -42049.75    3648.7198    -45698.47    0.1496982 
  195800      297.691   -973.60274    133284.78   -42085.659    3633.7406   -45719.399   0.15253129 
  196000    297.79941    -1175.201    133602.03   -42063.293    3635.0638   -45698.357   0.15474533 
  196200    301.98444   -991.30706    133322.28   -42029.925     3686.148   -45716.073   0.15346762 
  196400    298.20638   -778.95747    133051.98   -42057.918    3640.0315   -45697.949   0.15687949 
  196600    296.77716   -1038.5338    133310.34   -42102.775    3622.5859   -45725.361   0.15841577 
  196800    296.98031   -1159.9303    133517.42   -42085.499    3625.0656   -45710.564   0.15560574 
  197000    300.51073    -988.4181    133260.78   -42097.544    3668.1593   -45765.703   0.15434835 
  197200    297.46853   -819.02006    133091.02   -42137.856     3631.025   -45768.881   0.14775966 
  197400     293.7858   -1097.1878    133343.92   -42129.134    3586.0721   -45715.206    0.1642162 
  197600     295.8271   -1126.9446    133472.76   -42056.501     3610.989    -45667.49   0.15891199 
  197800    297.45904   -989.50924    133248.56   -42026.258    3630.9091   -45657.168   0.15946146 
  198000    301.26575   -889.09465    133166.96   -42053.553    3677.3754   -45730.928   0.15145129 
  198200    295.32353   -1093.5763    133370.82   -42074.632    3604.8423   -45679.474   0.16026697 
  198400    300.53024   -1104.1978    133426.99   -42011.882    3668.3975   -45680.279   0.16295599 
  198600    304.22343   -938.34556    133240.72    -41990.74    3713.4781   -45704.218   0.15973818 
  198800    299.89253   -891.52217    133205.38   -42028.235    3660.6134   -45688.849   0.15745887 
  199000    299.17574   -1114.5533    133429.14   -42015.883    3651.8639   -45667.747   0.15584542 
  199200    302.70046   -1072.3783    133451.73    -42023.63    3694.8881   -45718.518   0.15690042 
  199400    295.11639     -906.854    133203.79   -42034.175    3602.3138   -45636.489   0.16201504 
  199600    298.53649   -895.36032    133211.95   -42060.871    3644.0609   -45704.932   0.15577165 
  199800    298.84531   -1122.1116    133478.27   -42035.857    3647.8305   -45683.688   0.15951577 
  200000    299.72258   -1100.9784    133445.58   -42039.415    3658.5388   -45697.954   0.15904831 
Loop time of 103.179 on 6 procs for 200000 steps with 4096 atoms

Performance: 837.380 ns/day, 0.029 hours/ns, 1938.380 timesteps/s
97.6% CPU use with 6 MPI tasks x no OpenMP threads

MPI task timing breakdown:
Section |  min time  |  avg time  |  max time  |%varavg| %total
---------------------------------------------------------------
Pair    | 65.586     | 67.941     | 70.37      |  21.3 | 65.85
Neigh   | 9.5747     | 10.023     | 10.554     |  13.9 |  9.71
Comm    | 12.457     | 15.221     | 16.922     |  48.4 | 14.75
Output  | 2.8086     | 2.8101     | 2.8162     |   0.2 |  2.72
Modify  | 5.6541     | 5.6812     | 5.697      |   0.8 |  5.51
Other   |            | 1.503      |            |       |  1.46

Nlocal:        682.667 ave         706 max         663 min
Histogram: 1 1 1 0 1 0 0 0 0 2
Nghost:        1378.50 ave        1411 max        1356 min
Histogram: 1 2 0 1 0 0 0 1 0 1
Neighs:        0.00000 ave           0 max           0 min
Histogram: 6 0 0 0 0 0 0 0 0 0
FullNghs:      19404.0 ave       20105 max       18777 min
Histogram: 1 1 0 1 1 0 0 0 0 2

Total # of neighbors = 116424
Ave neighs/atom = 28.423828
Neighbor list builds = 12712
Dangerous builds = 0

Total wall time: 0:02:33
