LAMMPS data file via write_data, version 29 Oct 2020, timestep = 800000

4175 atoms
1 atom types

-0.5718108275835547 50.57181082758163 xlo xhi
-0.5718108275835547 50.57181082758163 ylo yhi
-0.5718108275835547 50.57181082758163 zlo zhi

Masses

1 18.015

Atoms # atomic

2412 1 1.6096637057385683 0.08653304331741274 2.095214948181683 0 1 0
1582 1 7.535671192023878 7.857631823045152 -0.2797916942716658 0 0 1
2421 1 4.148725763101958 1.35313025898597 2.3973957877655176 1 1 0
468 1 9.589806280805563 0.5854114984996994 14.495349891977591 0 0 0
2089 1 2.4155690051191283 24.483137867548216 9.139609114777969 0 0 1
2162 1 9.337401251654248 1.6658171385918807 2.754005884338016 0 1 0
466 1 13.132834016201533 0.12476647981957556 1.4179355098923576 0 0 0
532 1 15.400913719094188 -0.493836699570691 -0.14910730862423766 0 0 0
412 1 17.062862055257494 1.6299635656313187 0.8856166439749487 0 0 0
2484 1 17.357887619458587 -0.4621218204961172 16.45838065378662 0 1 0
1667 1 24.674132898953445 0.43159573462904066 2.37318948035558 0 0 1
2687 1 23.920253523967467 1.2749118957685583 -0.09975097911176356 0 1 0
1670 1 28.90987995479547 1.4445656872511647 0.23540638458933472 0 0 1
604 1 34.12707836757164 1.1004984790607142 1.3724280166736063 0 0 0
10 1 38.1323732857274 0.00037329504969374483 0.035488798292151236 0 0 0
4003 1 40.76788611451803 0.43420403180316636 0.30610099984584793 0 1 1
451 1 49.78507376888593 -0.048627052596830755 1.284747581360342 0 0 0
1863 1 50.49792258576274 3.8632074289805924 2.7481452789394325 0 0 1
396 1 3.5510291165487056 3.456297151539304 0.14471001504012904 0 0 0
1512 1 3.323867444286556 5.584180648554443 1.9732578989409522 0 0 1
1718 1 7.701258260842135 3.8619770470782653 2.164384878484843 0 0 1
3650 1 11.43685315785588 2.0862620670301815 1.0824933111656079 0 1 1
2047 1 13.03551753382894 4.098400311753959 1.8537255123472622 0 0 1
3727 1 15.487179386888343 3.7102619245195516 0.8450713927710891 0 1 1
1695 1 20.674334814650926 3.5203234766751192 1.0619651581102048 0 0 1
2027 1 12.691930447413059 24.444214451615395 1.217988305834936 0 0 1
961 1 29.936874618768357 5.945027161462714 2.71046539914898 0 0 1
4099 1 32.82751252635931 3.1239948924396166 2.486524383461354 0 1 1
3861 1 30.473707023999804 3.6213191824941218 1.1112340443113577 0 1 1
2133 1 35.379488524104175 5.688893015093415 0.3811242825091711 0 1 0
1465 1 37.910344925207504 4.542462017107272 0.15166055911831045 0 0 1
567 1 41.7096868124505 2.4539710085524384 1.9228204477954223 0 0 0
372 1 39.56209534398832 3.9693340060308087 2.3538822430748065 0 0 0
582 1 43.590216906863645 3.9305666369696635 0.7798880797785439 0 0 0
1592 1 45.74714365414433 2.320773361743859 0.5227797510366776 0 0 1
3658 1 50.35400729429785 2.709555786108535 0.056072735090029746 -1 1 1
453 1 0.5092907352114269 6.383541153841622 1.9346531643609919 0 0 0
1829 1 4.635925108682475 8.048601321475582 0.9644360467708712 1 0 1
2441 1 9.250786736866988 6.0292987175543935 1.461097839677929 0 1 0
2450 1 21.74083063317426 24.447996380247734 5.985378515572284 0 0 0
548 1 12.115806655537002 6.869654758285342 1.3275367306853572 0 0 0
4097 1 16.800160347452056 5.489226485921992 2.5619193200768215 0 1 1
389 1 19.160531236742745 6.036419116002935 1.0295038854294938 0 0 0
708 1 20.931238522472604 7.778629303009065 2.356746509617349 0 0 0
2021 1 24.671048119828903 5.916485855635142 0.9797471913228815 0 0 1
105 1 23.145330211230117 8.270582979509594 1.0105396212342328 0 0 0
281 1 28.92963918952096 7.60909983455708 0.4383600090123734 0 0 0
4092 1 35.6517658012783 8.463527392672676 0.5271831271932539 0 1 1
108 1 39.8429470876269 8.620133560987295 1.5465504779895731 0 0 0
4020 1 2.8421420578961887 10.307795693734485 0.6687151610816251 1 1 1
2007 1 44.22465463003845 6.561278677487965 1.8531292860614226 0 0 1
1951 1 43.67868577953275 8.474005715766426 0.13791528046049784 0 0 1
525 1 46.98893740098515 6.63475494706682 2.5124513686552628 0 0 0
312 1 3.118072581064875 12.965720869965361 -0.12105487663644687 1 0 0
1598 1 1.6594051031718742 1.3869203214717933 -0.07086629549431811 1 0 1
1754 1 1.4875011166206544 10.944481818749763 3.4376695254401834 1 0 1
230 1 13.89016659970399 10.024339825320814 0.39805622714365385 0 0 0
423 1 11.270408257230445 9.676121052514457 0.9972377509102375 0 0 0
1734 1 25.679671524862275 14.755311860074737 -0.1378451775359874 0 0 1
516 1 15.947374759955164 10.349455979938053 2.5091346820950187 0 0 0
650 1 17.830220831144786 10.488321301472574 0.898695842150653 0 0 0
44 1 20.362517376893333 10.457479693239334 2.0759405933375317 0 0 0
15 1 25.10426859207867 10.277973142356505 1.7467162714744564 0 0 0
1077 1 27.76882078214193 10.271757756781074 0.5057487179743119 0 0 0
872 1 33.21397455930536 9.80914716036716 0.8123458344906938 0 0 1
1968 1 37.414570385248126 9.624055966873586 2.5554788337389116 0 0 1
2099 1 41.669369955944155 10.253045560897554 0.4394650302847347 0 0 1
1487 1 45.80949910154697 10.766710758543237 0.35639096778644075 0 0 1
1773 1 -0.33335390601216014 9.58714441084158 1.9032731037141195 0 0 1
4130 1 48.34480782295076 11.40470558895673 2.105347797106905 0 0 1
3921 1 0.8357419186385471 14.004031237235504 1.373515741954866 1 0 1
473 1 5.680198888120743 13.542589180538007 1.3613373152198738 0 0 0
1317 1 42.406145882556814 24.55335477945809 11.281305518262732 0 0 0
2547 1 8.204360834853567 14.179780827291417 0.2658058169514782 1 1 0
2086 1 11.352102217130364 12.56332236591903 1.3352637704940369 0 0 1
477 1 14.80937362232637 14.739376684855392 2.558984477028843 0 0 0
437 1 48.10197357406291 14.711949047750641 -0.5204841690590818 -1 0 0
286 1 45.408818640389725 13.506258250099043 -0.3999675350357009 -1 0 0
440 1 21.570566252119846 12.562379518525814 0.23267695654656506 0 0 0
1637 1 23.97907194894806 12.64642994394431 1.3077929993222552 0 0 1
4040 1 42.71761930534038 14.174890407114468 -0.10071493226105499 0 1 1
2103 1 29.942893261522123 13.16967609817197 2.3663570949388473 0 0 1
1459 1 31.29500457495176 13.385525728064481 -0.05246182338123362 0 0 1
555 1 33.87654554163119 12.613606896121734 0.26182016273284925 0 0 0
58 1 35.31229159616224 13.83668495387818 2.32518611767915 0 0 0
299 1 37.72174554701165 12.38847155644623 2.3177135422280655 0 0 0
1966 1 41.98481721372373 12.328432891836846 2.020333237781236 0 0 1
362 1 11.343414042308014 24.579535945963155 9.991227533307962 1 0 0
1094 1 49.88365121862533 12.751834906252808 0.2691988927302369 0 0 1
2342 1 1.3857613596997345 16.69653613955689 0.31874626013573126 0 0 0
2416 1 3.8214555880135688 17.350470446342065 1.1090143878214438 0 0 0
646 1 37.78301566747659 15.27004167064844 -0.4922703351722138 0 0 0
709 1 8.7427409738427 16.004626898595422 2.4995335235172202 0 0 0
31 1 11.137596292444595 17.807341302393404 1.6778261947152249 0 0 0
298 1 17.242043819806074 18.30254550125229 1.8206241901623552 0 0 0
829 1 21.324064373591643 -0.2597752240891285 12.240190606465545 0 0 0
51 1 27.727551660088782 14.771584722504313 1.7772631069172542 0 0 0
291 1 30.054718751252572 17.949292842172653 0.33383448412244665 0 0 0
382 1 36.31430124328771 16.59255593433342 1.7140659825926061 0 0 0
3575 1 38.68013569631266 24.83743306353114 4.561647814296454 0 0 1
519 1 40.36105763521116 17.72367079595002 2.571869470473976 0 0 0
2028 1 42.47032714480892 16.545694808628763 0.9063481304589491 0 0 1
536 1 44.967238104133976 15.868519984830332 2.552972448175409 0 0 0
1413 1 47.70002774880239 16.353115322323156 1.7319262907181074 -1 0 1
250 1 6.917756180765469 19.736141104891097 -0.060888586009950174 0 0 0
1864 1 5.4764571427772575 21.550596856264367 1.400610203691041 0 0 1
1567 1 8.804583647883131 19.541423939631656 1.7651702075428148 1 0 1
33 1 12.834384357961822 20.01792255451481 0.6373783732995117 0 0 0
155 1 16.97728507733662 21.823975007502938 0.5768423471644333 0 0 0
520 1 19.717265112954944 21.191076539715052 1.3489506015893578 0 0 0
892 1 24.156873559176315 18.50096647964276 4.7820421904208645 0 0 0
1879 1 26.735201697267165 19.653867158830266 3.2501503878362987 0 0 1
1501 1 31.99983410861025 18.863461386312093 2.3061201860550224 0 0 1
339 1 34.502733256675114 18.41678274059017 1.0557104946002631 0 0 0
2653 1 30.697476309383173 -0.5372965184858813 15.40120908234554 0 1 0
2102 1 36.57066252232118 20.350605748081357 0.9882781789719184 -1 0 1
511 1 39.15264238064745 19.24824979843952 0.6310068098684782 0 0 0
3920 1 42.778820845990005 21.75841134882626 2.014456973766533 -1 0 1
239 1 15.458437385485801 14.531891097796672 0.004163627887522003 0 0 0
2348 1 38.40834165075211 24.656978629356317 8.877263871469113 0 0 0
422 1 0.05890693002215319 19.168063822227644 0.6003405932110883 0 0 0
3253 1 48.446160405366214 18.94909964301006 1.2461772575404482 -1 0 1
3542 1 0.6453311866522906 22.05632572805219 0.952001194084692 0 0 1
311 1 1.0724351387625373 22.14284035331361 16.276599869713966 0 0 0
1554 1 7.042902676456848 23.588802369673715 2.397308008045517 0 0 1
1969 1 11.443863960851195 22.365114547343822 0.7167091068039064 0 0 1
3171 1 9.460223235053414 -0.031143959239333885 6.889037981761732 0 1 0
352 1 16.847389425025305 24.505586387419314 1.5975113349853367 0 0 0
2832 1 20.977925755467087 23.810786868166947 1.7016238763765075 0 0 0
2105 1 24.324368868293433 23.321314084138088 1.1778871499640327 0 0 1
1945 1 26.946989826417674 22.223464081842536 1.678177566552007 0 0 1
909 1 4.654630120939348 4.905447470099228 16.1710530008615 0 0 0
2000 1 30.850002688034852 22.80752538125572 0.007858234446818768 0 0 1
1534 1 35.71835790354179 22.648109942749297 -0.4955091245369843 0 0 1
700 1 46.05929105147691 24.910485703664246 8.33704474411253 0 0 0
2780 1 40.0429078205187 21.805909639165577 1.1588077286763616 0 0 0
988 1 4.87181848649171 10.768009313262917 15.702356423069922 1 0 0
904 1 45.01090775847766 23.846575728125842 1.1212371739788167 0 0 0
1425 1 47.36666656512974 23.14586145133577 -0.35409165198623527 0 0 1
1937 1 49.38398987431143 23.788900132903045 1.1944628217281403 0 0 1
150 1 0.872434166316364 2.0201007561709554 3.897067061324427 0 0 0
380 1 5.912106214329816 1.7244070477213862 4.672394483981307 0 0 0
394 1 10.636273273712655 1.6141908656297796 5.0286599360031605 1 0 0
1579 1 12.820290127708756 0.10923227462298157 4.262461380601214 0 0 1
2210 1 15.000880582511646 0.8063993667605489 5.791260467588485 0 1 0
106 1 16.88874307710577 1.264440031721926 3.7706102125789958 0 0 0
2781 1 19.304926497953353 0.1537908566852343 4.345365134564512 0 1 0
9 1 27.724459576287884 0.39149426233094753 2.470016940715354 0 0 0
556 1 28.497939470387646 2.0233281289206584 4.581391634685008 0 0 0
2379 1 31.143833241926103 2.136370535943961 4.585221398460195 0 1 0
849 1 44.9690914701828 23.587978303255753 15.671251058034184 0 0 0
3559 1 33.3904582824437 21.49666444357497 0.09217551816693126 0 0 1
2365 1 36.02352632301819 0.5237308182449973 3.2843744976778293 0 1 0
425 1 40.04016801230679 1.7870404572864884 5.649019579384259 0 0 0
285 1 42.581950164317526 1.738385598130208 4.261011816092766 0 0 0
597 1 46.58378271996558 1.9135760784192755 3.0328983661596736 0 0 0
2467 1 48.01943697907152 -0.22182560956881392 3.3821960068416383 -1 1 0
289 1 50.05451587020076 0.3745776144080839 5.093994204359383 -1 0 0
535 1 2.28751366395846 3.215411663675114 5.7173382175626974 1 0 0
860 1 3.750434511120204 5.3318791619502734 4.374552947841492 0 0 0
3753 1 6.245729522627809 4.443407756046516 4.234442677866038 0 1 1
670 1 18.057674480289183 3.5041719527834454 4.626401240133031 0 0 0
474 1 21.293172375226373 2.02207686011805 3.4680483939879467 0 0 0
354 1 20.542045110322356 4.21284658337527 5.041657515877922 0 0 0
21 1 24.13910477557973 2.3597127377342937 4.222086102807458 0 0 0
96 1 25.211938453621304 4.673718741766959 3.5666498810842615 0 0 0
94 1 27.868460241076303 4.629797178923833 4.037989003117223 0 0 0
654 1 34.23647026710962 5.285341663620813 2.727971250268648 0 0 0
1704 1 37.97776423929652 2.4907702798407576 4.040607775789057 0 0 1
624 1 36.023758980756725 4.244274021138885 4.779539108946234 0 0 0
35 1 44.92567213927902 2.993042176882711 4.793437177710965 0 0 0
4064 1 48.01157442239583 4.407247478550101 3.4509700605740337 0 1 1
3860 1 48.054370267813184 5.109647682106379 6.192855700774499 0 1 1
257 1 -0.3345222875430149 7.7952471699497305 4.348079775594508 0 0 0
1899 1 4.219119092713053 7.832397152082478 5.360063674731666 1 0 1
219 1 5.820294234013497 8.824028064737375 3.331400714072005 0 0 0
1830 1 8.362888332667277 7.467681118494857 3.8435559574225877 0 0 1
930 1 13.081361970455571 7.333654691505567 3.8958178811798083 0 0 0
459 1 15.816127428238389 7.72695995236727 3.822456764989722 0 0 0
3711 1 16.762017664814266 7.534679607249041 6.4297393483555565 0 1 1
576 1 21.32620840270437 6.903943961967713 4.822377456392013 0 0 0
705 1 24.322610009706562 6.970577861842938 5.010915361172285 0 0 0
2268 1 32.235764550333876 6.986427072964308 3.9247158575235277 0 1 0
1583 1 40.351702306500776 6.570640453264934 3.5310206743954726 0 0 1
222 1 39.490167951189285 7.280711453207665 5.987567030808969 0 0 0
583 1 42.96219157654857 7.030251950147738 3.9961209347547797 0 0 0
1677 1 1.948736462578574 9.085917449195948 5.593764124696583 1 0 1
111 1 6.28381942149806 11.481958345909744 3.3659141634851495 0 0 0
195 1 10.111743179600673 9.743724642479304 3.264803388876882 0 0 0
530 1 11.625825477314834 9.087752147765231 5.545621712547218 0 0 0
1885 1 12.953918251944923 11.445960768697526 5.850007904449847 0 0 1
2593 1 19.218815298388062 8.506157293675065 6.0611507474348105 0 1 0
998 1 19.745953017046578 10.88272592934786 4.848989009444632 0 0 0
367 1 25.110282043297566 9.672248237054943 4.361024131455464 0 0 0
1476 1 29.171940326540334 10.69045408182459 2.7068459207915123 0 0 1
514 1 27.695949978090674 9.967078844036644 4.761314316802825 0 0 0
2233 1 31.762324474721595 9.725036342503765 2.8787761998552175 0 1 0
1986 1 33.03169512241664 10.600426068474203 5.2740505038908925 0 0 1
391 1 37.62987075998434 9.239538961163396 5.49135758843381 0 0 0
1871 1 39.50191414454227 11.476928263960716 5.927293234585538 0 0 1
140 1 44.29101612732763 11.178977135885718 3.0047611525834585 0 0 0
707 1 43.36289725437014 9.626015330771404 4.960264674889541 0 0 0
267 1 46.15842263747861 9.340802431105644 5.887088500234772 0 0 0
280 1 48.169952990762596 8.916258688573858 4.022197644372196 -1 0 0
49 1 0.29921903539473005 13.640424335035664 4.1361393927012235 0 0 0
1788 1 2.3276833566245734 15.703736906414282 4.433362468150716 1 0 1
1714 1 3.8770849610496496 12.562742691874083 4.0140283397313326 1 0 1
401 1 8.840330142362635 12.144638679076966 4.170753383340852 1 0 0
2037 1 10.888927695239826 14.344492294338348 3.3518828709845696 1 0 1
615 1 11.503526221976896 13.708686646923141 5.976110673401707 0 0 0
1869 1 13.711071282273931 12.14614403301679 3.086469885316643 0 0 1
3659 1 17.171795274302156 11.954417291221237 4.649232670635211 0 1 1
178 1 17.16852060280918 15.970111907246736 3.153033287842246 0 0 0
365 1 19.0643571480163 13.943117939272433 3.751650020117335 0 0 0
476 1 21.44484464363535 12.691430579533737 6.1879824808747275 0 0 0
251 1 24.19736247877554 13.727754230273078 4.016197296088162 0 0 0
523 1 26.793423857811483 14.382676454280617 4.507984858443913 0 0 0
60 1 27.67798365824472 12.511214407372222 6.2056738197111905 0 0 0
557 1 31.117419379822664 14.44877255297407 4.220153426524313 0 0 0
67 1 33.57308579798003 13.384198169058088 4.403629922427523 0 0 0
303 1 34.88111750281981 15.13591971061631 6.1015656700417225 0 0 0
1851 1 39.81301288676974 13.238844611996123 3.4223606746068933 0 0 1
502 1 45.2142843538233 13.784218431691489 4.219089455838783 -1 0 0
1630 1 48.152277600255104 13.261829965826509 4.186458206472164 0 0 1
277 1 0.4381738451022992 17.31857801353612 3.34091961036512 1 0 0
3065 1 4.627414867198547 15.50776490706005 3.052937768778361 0 0 1
1803 1 6.73415419284901 16.48152077527048 4.5148987355643 0 0 1
87 1 7.729206031406141 19.05721720410983 4.25839977174273 0 0 0
79 1 12.742235903624946 16.428476384630518 3.468608632564038 0 0 0
1408 1 14.417735071752155 18.758465741224338 4.516421133267706 0 0 1
1124 1 16.62302035988228 17.357117947115704 5.270676463859047 0 0 0
3850 1 21.268369085575976 17.05112932989539 1.9090053338314723 0 0 1
1632 1 26.617978769447227 17.003526570615104 5.605049281525125 0 0 1
2464 1 28.578548614175578 17.565392658459004 2.5183149999614605 0 0 0
12 1 28.9490256563629 18.14389905069975 6.767791294257091 0 0 0
2654 1 30.764422942762387 17.031469657586577 4.460915598100984 0 0 0
348 1 36.5534817306737 16.862273877643815 4.657551750389871 0 0 0
1489 1 39.18422168075078 15.894628169810616 4.537986941132196 0 0 1
2567 1 44.460968020131034 17.97158413707223 4.282348566312856 0 0 0
1826 1 43.20703227515193 17.265526156320334 6.802817290227581 0 0 1
224 1 49.220075041732734 15.997402549466017 3.874860977405243 0 0 0
1585 1 48.093260324748236 16.692013885060366 6.062678100490279 0 0 1
1455 1 0.17922816015119059 19.908683343223142 4.161163658771899 0 0 1
3616 1 2.2592915986549573 21.715425653501658 3.0813348745688844 0 0 1
3631 1 4.263739617394263 19.704885518790203 2.9110226349036665 0 0 1
447 1 5.328446252282216 20.240180800030924 5.298147363551754 0 0 0
1553 1 15.053936833247713 20.18582968991176 2.217989887467011 1 0 1
6 1 20.019479332895667 19.097653023013617 2.7646335321404685 0 0 0
2581 1 18.922717314725798 19.15489505454242 5.358037876849747 0 0 0
2459 1 23.252143253598664 16.232789242059134 3.600687827000531 0 0 0
3495 1 21.884685155536527 20.559004980861204 4.3775702706820026 0 0 1
652 1 27.501538120056388 20.238079307454964 5.800079178553191 0 0 0
270 1 32.211043527709315 21.675486487178205 3.0464976626139344 0 0 0
314 1 36.52742427297947 21.243168178151272 3.6123469438043427 0 0 0
295 1 36.838882396892714 19.223371822166026 5.643624072125258 0 0 0
608 1 40.9711932938321 21.050745018127945 5.370397427445753 0 0 0
2455 1 42.47945565233958 19.573194250675368 3.4358126380181764 0 0 0
189 1 47.04072703494275 18.92371210016404 5.08163354337556 -1 0 0
636 1 48.67639943001871 20.540742757840874 3.444882891645814 0 0 0
1805 1 1.576047853304574 23.537705209897137 4.9831892222807515 1 0 1
215 1 6.111693645426605 24.327051277892664 4.825520559855012 0 0 0
2427 1 9.403998455154722 21.978193338042825 2.394759868007213 0 0 0
903 1 10.919673108615921 21.255390749082864 4.684093296121306 0 0 0
634 1 13.625173993690575 21.584268653639455 4.472869006952489 0 0 0
1819 1 14.54992651551835 24.091093849117392 3.011597388097627 0 0 1
1875 1 23.156151219938927 3.9918677952839996 -0.24811167325559852 0 0 1
2728 1 22.545228687055655 23.138724918739943 3.7979473908017782 0 0 0
489 1 25.3622777640794 23.956872219904128 4.220443237014654 0 0 0
3687 1 29.872935052076038 21.701120134259252 5.1643804830543365 0 0 1
50 1 29.591714264285468 23.323803835322504 2.683119534078828 0 0 0
1796 1 34.58869624158203 23.041675560931964 3.6560164938847457 0 0 1
518 1 39.061785131176514 22.424915752258684 3.750133340528796 0 0 0
2340 1 42.68882691956215 23.692334072379133 4.283494388444456 0 0 0
2139 1 45.532970847743414 24.543929852081124 3.8607216983284847 0 0 0
3641 1 48.03472917895429 23.25134347336847 3.559874030754104 0 0 1
661 1 50.03557288892534 23.424780979356484 5.4607846807068885 0 0 0
1743 1 4.3933461725604905 1.1872434559647869 6.77086579176035 1 0 1
48 1 5.31740555403841 1.7857246214340807 9.31904295402645 0 0 0
2601 1 35.07839204605151 24.56259200344515 1.3192684641574564 0 0 0
211 1 9.916528144335496 0.7528676888002213 9.485114945728224 0 0 0
2031 1 16.32567222090959 0.4951969662975333 10.228626874714125 0 0 1
2927 1 36.73423761336533 -0.13218087020820884 15.101661325918256 0 1 0
82 1 18.972412361094523 -0.1895927575133608 7.165604941391331 0 0 0
2793 1 20.41851579680618 1.4944917905622068 8.700400680988041 0 1 0
247 1 24.78312622394153 1.3546395109039011 6.764861164346685 0 0 0
424 1 27.761965119975226 0.8831650615517717 6.7798166236192765 0 0 0
220 1 34.78440766885655 2.454007178682164 6.487262197064943 0 0 0
621 1 46.23505673779574 1.915463152860863 7.1238296392815394 0 0 0
193 1 50.106386922700054 1.669829696369166 8.952118352494168 -1 0 0
45 1 48.815218986011814 2.4164615491633796 6.650343964242821 -1 0 0
256 1 1.3391431793546291 4.927550693362336 7.740158845750722 1 0 0
1892 1 8.31639687037754 5.297505928310885 5.798868275592376 0 0 1
301 1 10.604859529333975 3.8900944541931066 6.504977092252365 0 0 0
686 1 10.680736505511748 3.2049469347124417 9.326251683289653 0 0 0
328 1 12.74553074548197 5.466408055718536 6.13220475412493 0 0 0
427 1 14.321422976394292 3.2718690612984735 7.180479344357246 0 0 0
2059 1 16.639804830086995 4.944655043696498 6.9598392030138125 0 0 1
465 1 18.055928602632097 5.069787370391798 9.353015793312077 0 0 0
430 1 21.299761187571153 3.8398884622472824 7.648343241330879 0 0 0
95 1 24.135380861114154 3.763863854148159 7.829496086579841 0 0 0
445 1 28.429158587673793 3.157530293119401 8.423821359031175 0 0 0
241 1 28.12738655418773 5.299357531322297 6.797053655296308 0 0 0
644 1 31.025588507078126 2.9460184883898104 9.027130452334921 0 0 0
1 1 32.30360446687629 3.5649073298709073 6.64527348816342 0 0 0
71 1 35.610767548255644 2.855421000424483 9.151319087670656 0 0 0
2904 1 37.735974314516284 4.561792728644627 9.035169849480702 0 1 0
3785 1 39.73893499842574 3.0841356253005796 7.884935597032445 0 1 1
539 1 44.15309321606763 5.3722587028266835 5.893181560416344 0 0 0
446 1 42.02838354181732 4.891624143233186 8.059998020459183 -1 0 0
373 1 5.043134784056473 8.077937986487694 7.9083131097165005 0 0 0
486 1 2.687862172556111 7.1607843820501 9.076255739140851 0 0 0
1132 1 6.923940881099573 5.8756190760805485 8.263317405427884 0 0 0
1262 1 9.171560229402496 8.485025381913916 6.772286982676746 0 0 0
1881 1 10.70827861093999 8.585499757042301 8.89052927542853 0 0 1
1115 1 13.05168776900453 7.32147870123931 8.541429792255073 0 0 0
1699 1 15.414649110937246 8.792053328086688 8.385095593474302 0 0 1
1358 1 20.84587639286177 5.966654395420982 9.34975390584485 0 0 0
2436 1 25.508524477652596 6.330948266215768 7.457880558851546 0 1 0
253 1 25.148329914533882 8.356738968413467 9.209092656255004 0 0 0
438 1 32.44556598045541 6.203552879152549 6.453339593721128 0 0 0
569 1 30.285725666685266 7.10520418043401 7.668492442294051 0 0 0
121 1 34.64857615823202 7.218263697240653 7.555858602337814 0 0 0
206 1 36.96985703563143 6.1320174153178115 6.5852258767907506 0 0 0
2217 1 40.27562019882372 7.127264319687118 8.666860351132431 0 0 0
98 1 45.980231844895904 6.874320290176612 7.182618121797527 0 0 0
2161 1 50.245038566919256 6.522019634688813 6.990870115589467 -1 1 0
1039 1 49.03594015008118 8.099547147778857 9.017408280249192 -1 0 0
263 1 1.8504298202017342 10.659359671653766 7.948100748663942 0 0 0
88 1 8.280155870965643 11.139154914102717 6.676202273748199 0 0 0
648 1 5.927057191453411 10.755842378849694 7.945358378158353 0 0 0
22 1 14.788770646446004 11.593631351606817 8.06679177950034 0 0 0
1551 1 20.51022863467696 8.661877940252376 8.487616344026657 0 0 1
593 1 22.74773260765086 10.657325353218129 9.026449121066877 0 0 0
225 1 24.09882499404606 11.734447539422417 6.121888830064593 0 0 0
420 1 27.576325765125198 9.427112400133012 9.590026680374319 0 0 0
2655 1 29.04821286622093 9.442549300726133 7.2667729502014895 0 0 0
1129 1 31.24429217163763 10.784800936239085 7.2893535891000685 0 0 0
2532 1 35.186363311829375 9.640616355896736 6.591142678695712 0 1 0
37 1 35.32132017269611 11.135862303536783 8.848325730826641 0 0 0
226 1 41.64480267919523 9.415600362446112 9.547182938884411 0 0 0
42 1 41.8109704008413 10.607917094956472 7.018868368095999 0 0 0
1832 1 47.17772518853525 10.423205681772853 8.185737617452755 0 0 1
1559 1 45.371192033903505 11.705212820596655 9.905937590217484 0 0 1
174 1 -0.4193934038174484 12.384137783861027 8.120116540120232 1 0 0
493 1 3.8229580452687433 12.349300600543534 6.868756059707063 0 0 0
1985 1 5.198420974106044 14.614450629157748 8.233023498596607 0 0 1
540 1 9.075867670014862 13.669598047758795 7.537590708288517 0 0 0
421 1 16.901257449609624 13.254719642060383 6.9935518917237145 0 0 0
2671 1 18.305507765812557 12.84070892838778 9.429878358835179 0 0 0
2071 1 21.049028733554774 13.16407995325921 8.977036292493185 0 0 1
172 1 23.504382357706714 14.536815063081185 9.737175831382228 0 0 0
128 1 25.782901100285088 13.252936149529415 8.084018419324766 0 0 0
2068 1 30.206288824537587 13.375556147613434 6.7690499477381785 0 0 1
1853 1 36.2203579483731 13.781507203120615 8.23951470455539 0 0 1
1828 1 38.83324643284911 12.956841420117371 8.081516655328677 0 0 1
1561 1 43.25013797608563 12.903743869315171 8.517923549029584 0 0 1
63 1 44.231627829258606 14.603908893650022 6.617045029639088 0 0 0
626 1 46.62299417349484 14.636201621698527 7.6016909238633 -1 0 0
164 1 48.450640979271945 12.335010943136536 6.842620328737077 0 0 0
647 1 0.6865915748193228 15.174867595653602 8.646676332778211 0 0 0
191 1 2.965559491388046 15.84722397903245 7.138552459670755 0 0 0
7 1 4.615268698309746 17.975795133349685 6.977111171681767 1 0 0
39 1 7.352683546634389 15.714920571511676 7.072077400661473 0 0 0
572 1 8.586849363549764 17.755801716439127 8.277977251681513 0 0 0
223 1 12.892799705202943 15.708661198869667 7.1996866711740495 0 0 0
1770 1 12.477430152903107 18.39278028597057 6.537785896191316 0 0 1
90 1 15.84195792076062 15.799988981684262 7.46434155987939 0 0 0
2383 1 21.178387066280006 15.507576356510402 5.388624792845028 0 0 0
492 1 19.193566861049643 17.747293216228986 9.780638780353097 0 0 0
1295 1 23.488266307986667 18.329693601550407 7.813420129230542 0 0 0
25 1 25.852080770368946 16.15383281756336 7.941676728559564 0 0 0
2046 1 28.235997281082618 16.862421360933354 9.088631277468698 0 0 1
337 1 30.086969624571697 14.810512080327143 9.22385354015064 0 0 0
1602 1 32.257405364024656 16.276753435204068 9.052167760902313 0 0 1
1000 1 32.961720670984725 17.073122868316155 6.318955073635739 0 0 0
1874 1 40.22964838304058 17.071999598668775 6.834967645215314 0 0 1
201 1 39.6520552215698 15.348428617507304 8.953371117018632 0 0 0
23 1 43.69395823391119 18.46204981059842 9.08818173794292 0 0 0
395 1 50.02324214950721 17.3614148682238 8.02329348777241 0 0 0
4081 1 0.10611495606175125 19.48884229964731 7.018696361156216 1 0 1
443 1 2.5548221939589277 19.926793335903206 8.16635464768311 1 0 0
2550 1 6.110731829720468 19.11890553863493 9.299930581239332 0 0 0
3885 1 6.873488242726966 21.61751117612696 8.872341610859117 0 0 1
333 1 9.660015538020254 19.436176417749493 6.268890794509209 0 0 0
684 1 9.417559764163844 21.69929861820045 8.099834921122808 0 0 0
959 1 13.458292701437847 20.087753567444825 8.451797666479154 0 0 0
657 1 17.920155947604606 21.41955600076293 6.9938528400145605 0 0 0
2743 1 19.12651025732251 20.66142699456574 9.380836221549153 0 0 0
231 1 20.62714074514112 17.559355995302422 7.1944495631434675 0 0 0
271 1 22.098562684208648 20.58989671039848 7.380072362581331 0 0 0
2273 1 21.520138665730247 22.068900074301304 9.708483682069923 0 0 0
2471 1 25.359413789540714 20.565554051714734 7.552853321973881 0 0 0
2795 1 30.97610164678951 19.765695701979244 7.956824241129203 0 0 0
2541 1 32.54170571446113 21.189189639227564 6.334122247153942 0 0 0
807 1 34.493664146767706 19.32875204145684 6.99908360650521 0 0 0
2679 1 39.224664591312994 19.681606617746482 6.871518242964125 0 0 0
40 1 39.362169691960325 19.880010104913552 9.969705133007364 0 0 0
252 1 42.083009005736514 20.520342936338487 9.597528863115901 0 0 0
2053 1 46.75054581353465 20.818585827764807 7.26004414894785 -1 0 1
629 1 46.3538800177272 19.52152485435509 9.66513693851606 0 0 0
187 1 49.52486226350385 21.458800843025433 7.336098321090111 0 0 0
697 1 2.699717183951252 22.625129156518895 7.19283277094413 0 0 0
340 1 5.4434199437998565 22.531674501439763 6.628443170171638 0 0 0
91 1 32.52729045495402 19.344656293756103 16.440330851115185 0 0 0
376 1 15.091802069552113 21.69147457798657 6.983941006817721 0 0 0
480 1 48.586192831302085 24.004659708804372 14.368248116157188 0 0 0
2474 1 18.854487068867655 23.86268011491105 6.0615557964958935 0 0 0
101 1 32.27680439856771 24.38666540206405 14.192913058227695 0 0 0
305 1 19.421739169330557 1.6143294473640588 -0.3954380917973321 0 0 0
217 1 25.61977578128138 23.584837513758274 7.0399377449241465 0 0 0
2314 1 33.28019074113651 23.63998351581879 7.394030432825534 0 0 0
454 1 19.617708423125283 14.590281093941181 0.7576746740513205 0 0 0
733 1 41.05540563538855 24.28179890160296 8.733003505558578 0 0 0
2118 1 42.454617234031105 22.085177857127775 7.370072198407373 0 0 0
3626 1 46.58191161945999 20.439671688041848 -0.3015550697606796 -1 0 1
2831 1 45.07723217827088 22.927098676297685 6.332035788090931 0 0 0
18 1 3.670088161917114 1.1049640804854277 11.50984725955083 0 0 0
2617 1 7.333728146308387 -0.0671151447264251 10.238245352754705 0 1 0
416 1 13.874708881754275 0.8863787372644476 11.144106657940942 0 0 0
571 1 22.636174097854088 1.0035346652760722 10.270562616856468 0 0 0
846 1 18.915103557955486 23.3415404309142 16.223172824061248 0 0 0
2332 1 27.384427225510944 1.6372141932195943 12.877879212488638 0 1 0
202 1 31.344194992675853 0.4131528008564348 10.244564095053626 0 0 0
69 1 33.82815638409328 -0.1532257968978591 11.399558401917146 0 0 0
699 1 36.303870948695284 0.4032090658207389 9.874632695397993 0 0 0
506 1 40.58865684137701 1.1329333296139235 9.44115173771686 0 0 0
2435 1 38.47757272308006 1.0439858689477108 11.390291592259455 0 1 0
464 1 42.58765543799034 1.5908897925609837 11.140894443936869 0 0 0
259 1 46.57342349759528 0.3787011538339705 12.147838018945219 0 0 0
282 1 48.12027340631382 2.1759206725400713 10.813459633407618 -1 0 0
2063 1 -0.001416413285540985 3.8972181538837125 9.989154056998759 1 0 1
36 1 2.2332147146807113 3.3361394203390464 11.693502313297845 0 0 0
666 1 5.48792284158422 4.524396772465334 10.219059074437299 1 0 0
260 1 6.990908339793094 3.8650026448207058 12.383997391567044 0 0 0
173 1 9.508653742982242 4.823419915675539 11.426551572829423 0 0 0
89 1 13.42142470471316 3.2314109307569874 9.57746037600153 0 0 0
198 1 18.550411925727246 2.574481810415847 10.291170807011904 0 0 0