
# Create simulation box of size 50 x 50 x 50 Angstrom
#
lattice	            sc 1
Lattice spacing in x,y,z = 1.0000000 1.0000000 1.0000000
region 	            all block 0 50 0 50 0 50 units box
create_box          1 all
Created orthogonal box = (0.0000000 0.0000000 0.0000000) to (50.000000 50.000000 50.000000)
  1 by 2 by 3 MPI processor grid

# fill box with 4175 randomly distributed atoms
#
create_atoms        1 random 4175 63782 all
Created 4175 atoms
  create_atoms CPU = 0.001 seconds
mass                1 18.015

# Define potential
#
pair_style          sw
pair_coeff          * * ML_mW.sw mW
Reading sw potential file ML_mW.sw with DATE: 2019-02-27

# Run minimization
#
minimize            1.0e-8 1.0e-8 10000 1000
WARNING: Using 'neigh_modify every 1 delay 0 check yes' setting during minimization (../min.cpp:187)
Neighbor list info ...
  update every 1 steps, delay 0 steps, check yes
  max neighbors/atom: 2000, page size: 100000
  master list distance cutoff = 6.0032907
  ghost atom cutoff = 6.0032907
  binsize = 3.0016454, bins = 17 17 17
  1 neighbor lists, perpetual/occasional/extra = 1 0 0
  (1) pair sw, perpetual
      attributes: full, newton on
      pair build: full/bin/atomonly
      stencil: full/bin/3d
      bin: standard
Per MPI rank memory allocation (min/avg/max) = 4.255 | 4.258 | 4.261 Mbytes
Step Temp E_pair E_mol TotEng Press 
       0            0    7792709.3            0    7792709.3    5898794.3 
     630            0   -45180.336            0   -45180.336   -154.07449 
Loop time of 1.11703 on 6 procs for 630 steps with 4175 atoms

99.0% CPU use with 6 MPI tasks x no OpenMP threads

Minimization stats:
  Stopping criterion = max force evaluations
  Energy initial, next-to-last, final = 
      7792709.32924461  -45180.0188663597   -45180.336116598
  Force two-norm initial, final = 2.0191930e+08 4.9721331
  Force max component initial, final = 1.0948746e+08 0.73126211
  Final line search alpha, max atom move = 0.053306038 0.038980685
  Iterations, force evaluations = 630 1000

MPI task timing breakdown:
Section |  min time  |  avg time  |  max time  |%varavg| %total
---------------------------------------------------------------
Pair    | 0.87243    | 0.97319    | 1.0381     |   5.5 | 87.12
Neigh   | 0.02376    | 0.024353   | 0.024722   |   0.2 |  2.18
Comm    | 0.034865   | 0.10002    | 0.20179    |  17.3 |  8.95
Output  | 0          | 0          | 0          |   0.0 |  0.00
Modify  | 0          | 0          | 0          |   0.0 |  0.00
Other   |            | 0.01946    |            |       |  1.74

Nlocal:        695.833 ave         704 max         685 min
Histogram: 1 1 0 0 1 0 0 1 0 2
Nghost:        1494.17 ave        1515 max        1468 min
Histogram: 1 1 0 0 0 0 1 1 1 1
Neighs:        0.00000 ave           0 max           0 min
Histogram: 6 0 0 0 0 0 0 0 0 0
FullNghs:      19997.0 ave       20462 max       19320 min
Histogram: 1 1 0 0 0 0 0 2 0 2

Total # of neighbors = 119982
Ave neighs/atom = 28.738204
Neighbor list builds = 26
Dangerous builds = 0

# Add velocity/set timestep
#
velocity            all create ${TEMP} 120598 rot yes dist gaussian
velocity            all create 210 120598 rot yes dist gaussian
timestep            5.0

# Define output
#
compute	            1 all msd
thermo	            100
thermo_style        custom step temp press vol etotal ke pe c_1[4] density

# Neighbor lists
#
neigh_modify        delay 0 every 1 check yes

# Set fixes
#
fix                 1 all momentum 10 linear 1 1 1 rescale
fix                 2 all nve
fix                 3 all temp/csvr ${TEMP} ${TEMP} 500.0 928347
fix                 3 all temp/csvr 210 ${TEMP} 500.0 928347
fix                 3 all temp/csvr 210 210 500.0 928347
fix                 4 all press/berendsen iso ${PRES} ${PRES} 1000.0 modulus 20000
fix                 4 all press/berendsen iso 250 ${PRES} 1000.0 modulus 20000
fix                 4 all press/berendsen iso 250 250 1000.0 modulus 20000

# Run 0.5 ns equilibration
#
dump                1 all custom 1000 eq.${NAME}.dump id type x y z vx vy vz
dump                1 all custom 1000 eq.liquid_density_MLmW.dump id type x y z vx vy vz
run                 100000
Per MPI rank memory allocation (min/avg/max) = 3.506 | 3.508 | 3.511 Mbytes
Step Temp Press Volume TotEng KinEng PotEng c_1[4] Density 
     630          210    801.42152       125000   -42567.537    2612.7992   -45180.336 2.7295415e-33   0.99914793 
     700    134.24841    180.24506    125239.97   -41766.802    1670.3054   -43437.108    0.2427039   0.99723351 
     800    166.16748    73.037598    125195.16   -41044.607    2067.4393   -43112.046   0.56866304   0.99759038 
     900    183.53822    295.88464    124802.39    -40647.61    2283.5644   -42931.174    1.0030047      1.00073 
    1000    194.78939   0.52368864     124920.7   -40389.134    2423.5504   -42812.684    1.3424415   0.99978222 
    1100    207.49225    330.06837    124930.76   -40224.717     2581.598   -42806.315    1.6817402   0.99970169 
    1200    204.81071    344.23639    124941.07   -40282.928    2548.2346   -42831.162      1.99724   0.99961915 
    1300    208.59415    177.77018    125150.64   -40287.003    2595.3078   -42882.311    2.2364832   0.99794531 
    1400    202.72584      174.549    125040.66   -40320.429    2522.2948   -42842.724    2.6076224   0.99882306 
    1500    206.17497    163.95919    125110.43   -40285.216    2565.2086   -42850.424    2.8722041   0.99826606 
    1600    211.35757    314.54215     125077.4   -40190.847    2629.6899   -42820.536    3.1706566   0.99852962 
    1700    211.83903    239.54636    125200.58   -40226.488    2635.6802   -42862.168    3.5282207   0.99754721 
    1800    208.58701    326.71064    125223.24   -40296.444     2595.219   -42891.663    3.8829996    0.9973667 
    1900    207.11029    184.92973    125274.36   -40283.977    2576.8458   -42860.823    4.2369812   0.99695969 
    2000    210.40228    338.63594     125516.2    -40239.55    2617.8044   -42857.354    4.5338894   0.99503885 
    2100    210.93895     222.4871    125738.23   -40202.498    2624.4816    -42826.98    4.8723942   0.99328173 
    2200    212.76428    194.69824     125828.8   -40225.267    2647.1921   -42872.459    5.1334359   0.99256679 
    2300    210.78689    366.45012    125973.82   -40232.567    2622.5896   -42855.157    5.2674395   0.99142419 
    2400    213.85663    325.13644    126075.05   -40256.424     2660.783   -42917.207    5.5059981   0.99062814 
    2500    216.17132     235.3062    126105.76   -40246.401    2689.5822   -42935.983    5.7695259   0.99038689 
    2600    213.56614    538.20464    126149.65    -40218.14    2657.1688   -42875.309    6.1139011   0.99004232 
    2700    216.30268    297.52282    126087.75   -40252.498    2691.2166   -42943.714    6.3508395   0.99052838 
    2800    218.04703    155.27997    125978.44   -40260.451    2712.9196   -42973.371    6.6431376   0.99138786 
    2900    214.63317    103.29154    126045.68   -40355.173    2670.4446   -43025.618    6.7578227   0.99085898 
    3000    208.92426    313.75282    126138.69   -40409.266     2599.415    -43008.68    7.0274385   0.99012836 
    3100    212.53037    181.63173    126170.33   -40395.452    2644.2819   -43039.734    7.2625941   0.98988004 
    3200    209.15156    297.58528    126072.98   -40448.608     2602.243   -43050.851    7.5027075   0.99064441 
    3300    209.53308     91.38196    126018.97    -40421.05    2606.9899    -43028.04    7.6625961   0.99106896 
    3400    207.16434    43.546726    126096.28   -40451.013    2577.5182   -43028.531    7.8885458   0.99046131 
    3500    208.09878    265.44689    126168.88    -40481.57    2589.1444   -43070.715    8.1531809   0.98989138 
    3600    208.92089    378.55942    126320.19   -40527.871     2599.373   -43127.244    8.4557154   0.98870566 
    3700    206.07772    126.32026    126283.46   -40604.988    2563.9986   -43168.987    8.6390686    0.9889933 
    3800    211.10326    265.64416    126196.64   -40561.952    2626.5259   -43188.478    8.7549306   0.98967367 
    3900    211.54502    485.98137    126218.27   -40610.159    2632.0222   -43242.181    8.9523894   0.98950404 
    4000    208.32147     260.5127    126597.25   -40614.356    2591.9151   -43206.271    9.1009631   0.98654189 
    4100     208.3985    306.63697    126790.54   -40610.547    2592.8735    -43203.42    9.2112501   0.98503795 
    4200    210.73469    164.25224     126979.3   -40620.042    2621.9402   -43241.982     9.431149   0.98357364 
    4300    211.07928    322.01846    127075.89   -40629.625    2626.2275   -43255.853    9.6943039   0.98282602 
    4400    206.10158    145.01175    127004.72   -40613.555    2564.2955   -43177.851    10.023303    0.9833768 
    4500    208.36742    353.19452    127095.59   -40621.447    2592.4868   -43213.934    10.136955   0.98267367 
    4600    209.11921    315.33838    127253.13   -40678.209    2601.8406    -43280.05    10.385871   0.98145715 
    4700    213.47686    477.11805    127247.03   -40619.532     2656.058    -43275.59    10.425352   0.98150417 
    4800    211.65624    282.95654    127338.81   -40683.996    2633.4061   -43317.402    10.587497   0.98079672 
    4900    214.39107    238.95218    127662.22   -40568.941    2667.4325   -43236.373    10.849371   0.97831209 
    5000     215.2489    95.212145    127708.27   -40539.182    2678.1056   -43217.288    11.041488   0.97795931 
    5100    212.58694    89.193328    127385.77   -40620.558    2644.9857   -43265.544    11.298565    0.9804352 
    5200    206.83822    345.79752    127377.44   -40683.706    2573.4607   -43257.167    11.439729   0.98049928 
    5300     211.7814    556.72183    127394.25   -40653.312    2634.9633   -43288.275    11.650871   0.98036994 
    5400    209.30546    213.02593     127500.5   -40704.398    2604.1579   -43308.556    11.672425   0.97955292 
    5500    210.72292    378.94293    127645.56   -40714.846    2621.7937   -43336.639    11.828917   0.97843977 
    5600    209.41509    251.91204    127768.17   -40723.476    2605.5219   -43328.997    11.909453   0.97750079 
    5700    210.45469    227.24573     127929.7   -40723.059    2618.4564   -43341.516    12.086992   0.97626662 
    5800    210.87456    289.62909     127829.8   -40767.512    2623.6804   -43391.192    12.133889   0.97702954 
    5900    209.68278    269.43046     127889.2   -40814.738    2608.8524    -43423.59    12.397902   0.97657575 
    6000    211.61257    99.795828     128116.5   -40845.639    2632.8627   -43478.501    12.652607   0.97484312 
    6100    209.75751    199.88953    127954.33   -40786.293    2609.7822   -43396.075    12.642272   0.97607864 
    6200    208.97226   -9.8592285    127875.55   -40857.616    2600.0122   -43457.628    12.834718   0.97667998 
    6300    211.03761     181.9791    127966.47   -40843.678    2625.7091   -43469.387    13.006294   0.97598604 
    6400    213.03324    385.35298    128035.35    -40825.98    2650.5385   -43476.518     13.36969   0.97546097 
    6500    216.69397    252.01729    128207.46   -40774.703    2696.0849   -43470.788    13.549285   0.97415152 
    6600    209.47477    153.58438    128135.85   -40844.996    2606.2644   -43451.261    13.559065   0.97469594 
    6700    213.70268     327.6707    128211.53   -40920.673    2658.8676    -43579.54    13.744022   0.97412062 
    6800    211.18155    286.77496    128236.91   -40859.294    2627.4999   -43486.794    14.018687   0.97392778 
    6900    211.07557    209.43698    128386.32   -40810.364    2626.1814   -43436.545    14.240088   0.97279436 
    7000    212.27097    222.24184    128369.18   -40799.302    2641.0544   -43440.356    14.299619   0.97292425 
    7100    208.92397    52.411379    128185.87   -40831.149    2599.4114    -43430.56    14.348392   0.97431559 
    7200    208.96976    204.33903    128074.38   -40885.406    2599.9811   -43485.387    14.379145   0.97516374 
    7300    207.79295    318.22425    128154.43   -40933.661    2585.3394       -43519    14.459362   0.97455459 
    7400    206.05062    276.46374    128321.71   -40960.529    2563.6614    -43524.19    14.699218   0.97328416 
    7500     208.5557    169.81214    128507.74   -40930.915    2594.8295   -43525.744    14.706219   0.97187526 
    7600    205.18993     161.7777    128456.52   -40990.823    2552.9528   -43543.776    14.873275   0.97226273 
    7700    207.96449    284.24486    128533.09   -40907.234    2587.4736   -43494.707    15.155401   0.97168354 
    7800    209.76943    299.96222    128662.25   -40881.634    2609.9305   -43491.565    15.304242   0.97070813 
    7900    208.50103    300.90697     128569.6   -40946.044    2594.1492   -43540.194    15.340565   0.97140766 
    8000    210.85844    149.20555    128672.06   -40913.656    2623.4798   -43537.135    15.466794   0.97063408 
    8100    207.49972    161.40655    128717.63   -40984.571    2581.6909   -43566.261        15.48    0.9702905 
    8200    204.30804     339.3563    128579.11   -41003.564    2541.9804   -43545.544    15.665335   0.97133577 
    8300     205.5265     328.1139    128620.03   -40998.365    2557.1403   -43555.505    15.803723   0.97102679 
    8400    209.46374    276.66564    128751.38   -40961.247    2606.1271   -43567.374    15.919024   0.97003611 
    8500    211.56646    238.76936    128677.88   -40901.586     2632.289   -43533.875    15.927019   0.97059022 
    8600    209.25604    361.00552    128748.05   -40907.306     2603.543   -43510.849    15.962647    0.9700612 
    8700    207.78591    34.442198    128802.19   -40899.579    2585.2518   -43484.831    15.982815   0.96965345 
    8800    210.56891     309.0241     128581.6    -40951.26    2619.8775   -43571.138    16.006924     0.971317 
    8900    205.91591    261.23206       128581   -41038.864    2561.9854   -43600.849    16.090144   0.97132148 
    9000    213.58189    209.08867    128749.04   -41004.462    2657.3647   -43661.826    16.376181   0.97005374 
    9100    207.41912    289.91887    128757.51   -41065.067    2580.6882   -43645.756    16.643176   0.96998992 
    9200    211.27927    96.450455     128761.4   -40968.942    2628.7158   -43597.658    16.795489   0.96996065 
    9300    207.32944    238.32166    128604.46   -41000.148    2579.5724   -43579.721    16.825277   0.97114434 
    9400    208.86976    107.70359    128648.24   -40964.483    2598.7369    -43563.22    17.014636    0.9708138 
    9500    206.82607    368.48944    128830.43   -40957.216    2573.3096   -43530.526    17.057535   0.96944089 
    9600    208.90398    247.11456    128781.71     -40917.5    2599.1626   -43516.663    17.151021   0.96980769 
    9700    210.44666    242.85106    128653.52   -40854.807    2618.3566   -43473.164     17.20232     0.970774 
    9800    205.75486    221.17784    128623.94   -40915.804    2559.9816   -43475.785     17.42809   0.97099728 
    9900    205.20256    287.00909    128843.54   -40972.079    2553.1099   -43525.188    17.657039   0.96934227 
   10000    205.72405    450.50254    128923.03   -40973.305    2559.5983   -43532.903    17.672098   0.96874462 
   10100    208.97779    277.78099    128940.65   -40939.386     2600.081   -43539.467    17.768368   0.96861222 
   10200    206.75104    376.10128    128884.42   -40991.521     2572.376   -43563.898    17.802119   0.96903486 
   10300    207.75065    175.95829    128834.88   -40976.554    2584.8131   -43561.367    17.917492   0.96940741 
   10400    208.01241    224.56426    128982.25   -40946.523    2588.0698   -43534.592    18.111729    0.9682998 
   10500    208.03965    248.46296    128901.97   -40929.175    2588.4088   -43517.584    18.189593   0.96890288 
   10600    210.92535    237.90853    129009.84   -40875.594    2624.3123   -43499.906    18.095911   0.96809276 
   10700    214.30232    296.17565     128943.4    -40871.27    2666.3283   -43537.598    18.276385   0.96859156 
   10800    211.82793    448.26435    129115.13   -40858.773    2635.5421   -43494.315    18.306848    0.9673033 
   10900    206.69787    267.58325     129254.7   -40880.785    2571.7144   -43452.499    18.572147   0.96625879 
   11000     214.3221    395.12298    129431.95   -40880.033    2666.5744   -43546.608    18.811297   0.96493558 
   11100    213.62886    159.38953    129385.48   -40925.223    2657.9491   -43583.172    18.902595   0.96528212 
   11200    210.31739    316.53026    129303.07   -40935.276    2616.7482   -43552.024    18.847037   0.96589736 
   11300    209.33331    179.88372    129191.42   -40940.769    2604.5043   -43545.273    18.761419   0.96673205 
   11400    212.09921    305.09568    129232.38   -40954.711    2638.9175   -43593.628    18.792791   0.96642571 
   11500    206.85203    203.33734    129189.26   -40981.891    2573.6325   -43555.523    18.843689   0.96674829 
   11600    209.31394    134.22439    129337.23   -40993.417    2604.2633    -43597.68    19.041081   0.96564225 
   11700    213.63434    347.02357    129503.83   -40904.519    2658.0173   -43562.537     19.27838   0.96439997 
   11800    215.38886    334.86987    129565.43   -40982.022    2679.8469   -43661.869    19.244541   0.96394146 
   11900     208.1627    255.81719    129675.34   -40998.132    2589.9398   -43588.071    19.404184   0.96312448 
   12000    209.87187    387.56857    129639.39    -41020.23    2611.2051   -43631.435    19.425638   0.96339156 
   12100    210.93199    206.64739    129680.95    -40985.08    2624.3949   -43609.475    19.455415   0.96308278 
   12200    210.58827    150.72518    129440.47   -40985.154    2620.1184   -43605.272    19.524988   0.96487202 
   12300     210.5594    319.82765    129566.74   -41015.175    2619.7593   -43634.934    19.600972   0.96393169 
   12400    210.33034    236.56144    129408.76   -40992.045    2616.9093   -43608.954    19.711487   0.96510848 
   12500      209.795    299.40342    129552.58   -41079.276    2610.2487   -43689.524    19.805597   0.96403711 
   12600    211.04831    219.41671    129679.49   -41009.977    2625.8422   -43635.819    19.835464    0.9630936 
   12700    211.54844    400.90743    129730.81    -40985.72    2632.0648   -43617.784    19.952466   0.96271264 
   12800    211.46886    279.71706    129804.76   -40962.741    2631.0747   -43593.816    20.069309   0.96216422 
   12900    206.15161    407.83824    129839.74   -41026.192    2564.9179    -43591.11    20.236558   0.96190497 
   13000    209.53991    188.85692    129637.32   -40970.031    2607.0749   -43577.106    20.457122   0.96340689 
   13100    214.91002    169.18921    129748.18   -40982.359    2673.8892   -43656.248    20.638666   0.96258375 
   13200    213.49268     163.3239    129879.16   -40914.642    2656.2549   -43570.897    20.844837   0.96161304 
   13300    211.70288    595.27652    129802.66   -40960.674    2633.9863    -43594.66    20.901244   0.96217976 
   13400     208.8036    297.07403    129790.61   -41031.181    2597.9137   -43629.094    20.991144   0.96226909 
   13500    209.87976    299.42114    129714.34   -41062.033    2611.3033   -43673.336    21.051724   0.96283487 
   13600    208.91652    293.53895    129879.56    -41092.75    2599.3187   -43692.068    21.124108   0.96161006 
   13700    209.30976    321.98709    129796.87    -41081.68    2604.2114   -43685.892    21.043494    0.9622227 
   13800     210.0218     224.1984    129772.31   -40994.275    2613.0705   -43607.345    21.175431   0.96240481 
   13900    209.14674    143.21693    129525.77   -41025.674    2602.1831   -43627.858    21.249276   0.96423661 
   14000    207.69231    326.97302    129501.85   -41016.625    2584.0872   -43600.713    21.310278    0.9644147 
   14100    210.17525    234.60342    129577.87    -41031.63    2614.9796    -43646.61    21.489428   0.96384896 
   14200     211.4731    207.60124    129523.48    -41067.65    2631.1275   -43698.777     21.56958   0.96425367 
   14300    209.42065    319.95268    129440.36   -41115.529     2605.591    -43721.12    21.835771   0.96487288 
   14400    207.53071    227.16888    129554.05   -41093.767    2582.0766   -43675.843    22.002632   0.96402618 
   14500    211.62255    92.115557    129746.41   -41059.156    2632.9868   -43692.143    22.013405   0.96259686 
   14600    210.03322    143.95343    129722.05   -41081.144    2613.2126   -43694.357    22.032795   0.96277769 
   14700     209.3773    249.16723    129792.14   -41140.767    2605.0516   -43745.819    22.156835   0.96225777 
   14800    209.66676    290.89491     129823.9   -41180.171    2608.6531   -43788.824    22.154173   0.96202237 
   14900     203.1442    430.89619    129809.04   -41253.027       2527.5   -43780.527    22.221899   0.96213247 
   15000    206.85444    258.56262    129870.07   -41247.291    2573.6625   -43820.954    22.447785   0.96168035 
   15100    206.09819    229.54477    129766.25   -41263.248    2564.2533   -43827.502    22.606411   0.96244974 
   15200    206.70577    272.93853    129707.45   -41182.267    2571.8127    -43754.08    22.634215   0.96288601 
   15300    208.68741    129.94231    129766.13   -41188.195    2596.4682   -43784.663    22.770625   0.96245062 
   15400    206.57291    219.42231     129763.4   -41173.642    2570.1597   -43743.802    22.972742   0.96247087 
   15500    209.00466    194.69372    129905.15   -41145.276    2600.4153   -43745.692    23.082347   0.96142066 
   15600    208.36515    78.148287    129894.94   -41075.535    2592.4586   -43667.994    23.229427   0.96149619 
   15700     204.3445    326.76276    129894.69   -41146.863    2542.4341   -43689.297    23.269176   0.96149808 
   15800    209.40716    82.584872    129692.75   -41131.111    2605.4232   -43736.534      23.2174   0.96299515 
   15900    205.99224    352.63301    129633.94   -41169.424    2562.9351   -43732.359    23.250841     0.963432 
   16000    205.03953    332.07112     129649.7   -41105.604    2551.0816   -43656.686    23.244574   0.96331492 
   16100    209.82355    159.70773    129759.74    -41055.44    2610.6039   -43666.043    23.385079   0.96249798 
   16200    213.60721    240.34353    129771.07   -41112.041    2657.6798   -43769.721    23.440836   0.96241399 
   16300    212.18968    220.57305    129750.72   -41137.651    2640.0431   -43777.694    23.552771    0.9625649 
   16400    209.15238    179.92381    129814.95    -41054.58    2602.2533   -43656.833    23.759639   0.96208866 
   16500     213.0898     209.3983    129868.69   -41054.778    2651.2422   -43706.021    23.626608   0.96169054 
   16600    210.32512    209.13969    129884.91   -41029.741    2616.8443   -43646.586    23.684493   0.96157047 
   16700    210.06055    309.27308    129944.17   -41050.289    2613.5526   -43663.842      23.6671   0.96113192 
   16800    208.85501     132.2277    129804.69   -41046.625    2598.5533   -43645.179    23.659898    0.9621647 
   16900    212.96682    241.46512    129745.87   -41023.998    2649.7121    -43673.71    23.789812    0.9626009 
   17000    213.62345    283.21044    129609.79    -41041.12    2657.8818   -43699.001    23.962168   0.96361157 
   17100    210.47885    243.97676     129483.1   -40971.907    2618.7571   -43590.664    24.262987   0.96455437 
   17200    215.44229    121.44244    129574.88   -40996.805    2680.5117   -43677.317    24.454694   0.96387116 
   17300    211.06183    232.81616    129623.67   -41062.556    2626.0104   -43688.566    24.587949   0.96350841 
   17400    214.68234    226.14213    129449.82   -41088.667    2671.0565   -43759.723    24.572208   0.96480235 
   17500    210.93876    351.50288    129557.61   -41067.601    2624.4791    -43692.08    24.824969   0.96399966 
   17600    211.20234    460.74231    129555.94    -41051.59    2627.7587   -43679.349     24.82996   0.96401211 
   17700    210.28484    193.89157    129446.12   -41078.625    2616.3432   -43694.968    24.706604    0.9648299 
   17800    206.39082    450.27604    129342.12   -41073.399    2567.8941   -43641.293    24.907926   0.96560574 
   17900     213.4369    267.86935    129463.91    -41046.58    2655.5608    -43702.14    25.036681   0.96469736 
   18000    216.28038    335.96196    129404.74   -40991.411    2690.9391    -43682.35     25.05739   0.96513849 
   18100    209.06227    328.93943     129550.9   -41082.791    2601.1321   -43683.923    25.205326   0.96404957 
   18200    211.06001    277.54999    129683.55   -41082.203    2625.9878   -43708.191    25.272574   0.96306345 
   18300     213.5618    275.53249    129740.81   -41002.631    2657.1148   -43659.746    25.381647   0.96263845 
   18400    210.69945    217.40724    129842.08   -41072.337    2621.5018   -43693.838    25.504942   0.96188763 
   18500     212.1944     332.6157    129744.65   -41037.422    2640.1018   -43677.524    25.695158   0.96260992 
   18600    207.93184    154.46246     129669.5   -41086.568    2587.0674   -43673.636    25.840032   0.96316781 
   18700    213.78564    154.45173    129711.61   -41060.312    2659.8998   -43720.212    26.023317   0.96285511 
   18800    215.00539    306.77217    129518.18   -41032.994    2675.0758    -43708.07    26.006395   0.96429316 
   18900    212.65779    497.59515    129618.26   -41077.912    2645.8672    -43723.78    26.023502   0.96354858 
   19000    210.55861    365.25852    129872.52   -41067.516    2619.7494   -43687.265    25.960576   0.96166216 
   19100    211.44504    170.76799    129724.82   -41127.931    2630.7783   -43758.709    26.244229   0.96275708 
   19200    210.79044    243.34573    129700.76   -41117.222    2622.6338   -43739.856      26.4785   0.96293566 
   19300    209.19473    340.82441     129646.7    -41077.77    2602.7801    -43680.55    26.539572   0.96333725 
   19400    214.27857    335.98832    129672.81   -41087.807    2666.0328    -43753.84    26.394555   0.96314324 
   19500    212.26965    348.33906    129846.93   -41090.482    2641.0379    -43731.52    26.360673   0.96185174 
   19600    211.17283    198.91364    129979.27   -41136.844    2627.3915   -43764.235    26.514694   0.96087235 
   19700    212.76026     376.9887    129954.25   -41124.677    2647.1421   -43771.819    26.596789   0.96105736 
   19800    210.98032    166.14059     129870.4    -41159.89    2624.9963   -43784.887    26.694278   0.96167789 
   19900    210.45775    327.03654    129980.46    -41158.66    2618.4946   -43777.154    26.824501   0.96086361 
   20000    208.04154    253.27866    129964.39   -41192.321    2588.4322   -43780.754    26.929311    0.9609824 
   20100    209.81951    137.71665    129826.83    -41131.59    2610.5536   -43742.144     26.90378   0.96200065 
   20200    211.36281    314.68285    129772.26   -41169.061    2629.7552   -43798.816    26.940044   0.96240515 
   20300    207.81059     189.1817    129747.31   -41191.174    2585.5588   -43776.732    26.981356   0.96259019 
   20400    207.06138    114.92013    129843.93       -41182    2576.2372   -43758.237    27.153811   0.96187396 
   20500    206.64878    447.68219    129970.05   -41144.463    2571.1037   -43715.567    27.211236   0.96094055 
   20600    210.83621    77.260813    129962.89   -41169.512    2623.2032   -43792.716    27.095863   0.96099351 
   20700    211.27559    253.39294    129992.23   -41117.332      2628.67   -43746.002    27.370697   0.96077657 
   20800    207.11648     400.8464    129996.69   -41126.146    2576.9227   -43703.069    27.616168   0.96074365 
   20900      207.208    184.96587    129942.82    -41159.96    2578.0614   -43738.022    27.698532   0.96114194 
   21000    207.28053    203.11581    129972.15   -41251.538    2578.9638   -43830.502    27.739123   0.96092501 
   21100     205.8502    271.50282    129925.84   -41280.573    2561.1679   -43841.741    27.770689    0.9612675 
   21200     204.8026    160.48052    129837.61   -41258.509    2548.1337   -43806.642    27.900746   0.96192073 
   21300    206.32413    399.05708    129677.08   -41252.763    2567.0645   -43819.827    27.942657   0.96311151 
   21400    204.61331    240.74635    129842.29   -41215.108    2545.7786   -43760.887      27.9219   0.96188607 
   21500    210.73623    319.28316    130066.45   -41202.967    2621.9593   -43824.926    28.217194   0.96022832 
   21600    211.33431    212.83658    130227.65   -41166.019    2629.4006   -43795.419    28.310759   0.95903973 
   21700    209.42144    258.67364    130187.77    -41141.84    2605.6008   -43747.441    28.394268    0.9593335 
   21800    215.65612    315.79469    130264.42   -41136.924    2683.1721   -43820.096    28.479003   0.95876903 
   21900    212.87546    67.242837     129965.7   -41150.364    2648.5754    -43798.94    28.431743   0.96097272 
   22000    210.22411    271.81203    130016.92   -41183.321    2615.5876   -43798.908     28.70282    0.9605941 
   22100    212.10033    222.61386    130007.42   -41129.702    2638.9314   -43768.634    28.783246   0.96066431 
   22200    209.25357    318.82606    130035.55   -41167.746    2603.5122   -43771.258    29.105958   0.96045648 
   22300    215.17474     115.7573    129995.65   -41152.458    2677.1828   -43829.641    29.215495   0.96075133 
   22400    209.47976    294.80933    130132.24   -41123.066    2606.3265   -43729.393    29.361639   0.95974287 
   22500     212.9332    242.52343    130102.94   -41146.653    2649.2938   -43795.947    29.440366   0.95995901 
   22600    214.85654    129.33412    130218.72   -41122.119    2673.2238   -43795.343    29.538344    0.9591055 
   22700    211.19889    311.09319    130030.48   -41126.755    2627.7157   -43754.471    29.310755   0.96049399 
   22800    210.60752    178.23399    129811.98   -41099.332     2620.358    -43719.69    29.421552   0.96211069 
   22900    208.56308    206.31322    129870.91   -41143.339    2594.9212   -43738.261    29.555917   0.96167413 
   23000    210.56835    139.47483    129874.69    -41117.34    2619.8706   -43737.211    29.678991   0.96164613 
   23100    208.43556    194.43529    130022.07   -41217.988    2593.3346   -43811.323    29.771895   0.96055608 
   23200    208.92591    329.74676    129897.01   -41172.111    2599.4355   -43771.546    29.787356   0.96148086 
   23300    211.72609    198.46074    130108.24   -41216.285     2634.275    -43850.56    29.899567    0.9599199 
   23400    212.84763     211.3521    130056.04   -41147.208    2648.2292   -43795.437    29.915771   0.96030521 
   23500    209.17132    74.642327    130244.08    -41182.71    2602.4888   -43785.198     30.17434   0.95891874 
   23600    210.91241    159.87409     130201.4   -41169.287    2624.1514   -43793.438    30.181436   0.95923307 
   23700    204.71711    302.37484     130029.2   -41192.732      2547.07   -43739.802    30.467956   0.96050341 
   23800    204.70888    302.10089    130025.69   -41241.518    2546.9676   -43788.486     30.70245   0.96052935 
   23900    203.56399    457.37374     129928.6   -41253.126    2532.7231   -43785.849    30.683849   0.96124708 
   24000    211.63637    361.26128    130089.49   -41181.948    2633.1587   -43815.106    30.676508   0.96005827 
   24100    209.00962     380.1667    130035.52   -41179.921     2600.477   -43780.398    30.605697   0.96045677 
   24200    207.29234    276.42866    129914.26   -41233.471    2579.1108   -43812.582    30.747775    0.9613532 
   24300    209.26487    206.08499    130012.19   -41207.999    2603.6528   -43811.652    30.870382   0.96062908 
   24400    207.45638    195.93536    130102.95    -41256.54    2581.1518   -43837.691    30.929891   0.95995896 
   24500    211.84962    257.71618       130090   -41224.527     2635.812   -43860.339    31.082987   0.96005452 
   24600    210.74282    340.63894    130077.08   -41217.233    2622.0414   -43839.274    31.094154   0.96014987 
   24700    211.39368    140.89342    130063.07   -41244.581    2630.1392    -43874.72    31.141165   0.96025327 
   24800    208.59315    299.45567    130004.96   -41243.884    2595.2953   -43839.179    31.061462    0.9606825 
   24900    211.43376    179.77879    130003.67   -41201.505    2630.6379   -43832.143    31.283135   0.96069205 
   25000    213.50815    410.27655    130207.62   -41187.791    2656.4473   -43844.238    31.404812   0.95918723 
   25100    212.40633     96.80767    130116.52   -41187.899    2642.7386   -43830.637    31.316783   0.95985882 
   25200    207.21274    231.91535    130185.41   -41226.745    2578.1205   -43804.865    31.335803   0.95935092 
   25300    212.95837    294.66848    130111.28   -41235.654     2649.607   -43885.261    31.472886   0.95989751 
   25400    212.63773    289.10288    130185.93   -41230.186    2645.6176   -43875.803    31.528566   0.95934706 
   25500    208.38545    177.20651    130309.26   -41184.606    2592.7112   -43777.318    31.604207   0.95843912 
   25600    209.34191    246.61255    130325.99   -41259.548    2604.6114   -43864.159    31.690802   0.95831607 
   25700    210.43582    194.65082    130374.19   -41278.995    2618.2217   -43897.216    31.852491   0.95796177 
   25800    211.83449    347.72019    130771.94   -41263.831    2635.6238   -43899.454    31.914809   0.95504806 
   25900    211.12438    266.61682    130729.56   -41237.726    2626.7887   -43864.515    31.845751   0.95535772 
   26000    209.40076    163.72946    130540.98   -41183.545    2605.3436   -43788.889    31.820785   0.95673781 
   26100    211.20905    197.46525    130430.09   -41267.433    2627.8421   -43895.276    31.924171   0.95755124 
   26200    213.18731    288.14889    130537.93   -41266.855    2652.4554    -43919.31    31.972939   0.95676018 
   26300    212.62637    211.70147    130370.51   -41240.976    2645.4763   -43886.453    31.978899   0.95798885 
   26400    212.48555    287.03405    130481.75   -41238.131    2643.7242   -43881.855    32.188973   0.95717209 
   26500    210.64105    109.56709     130466.8   -41281.696    2620.7752   -43902.471    32.137454   0.95728178 
   26600    207.08429    374.80101    130595.29    -41319.66    2576.5223   -43896.182    32.130261   0.95633997 
   26700    207.78297    185.77766    130445.45   -41344.059    2585.2152   -43929.274    32.153277   0.95743843 
   26800    208.19339     98.68907    130298.63   -41272.939    2590.3216   -43863.261    32.214658    0.9585173 
   26900    208.63614    242.12464    130403.56   -41254.431    2595.8303   -43850.261    32.365671   0.95774605 
   27000    208.37255     306.3965    130484.31   -41286.268    2592.5507   -43878.819     32.45552   0.95715334 
   27100    210.13457    226.98374    130344.37   -41286.952    2614.4736   -43901.425    32.316009   0.95818096 
   27200    209.92601    208.60398       130347   -41304.765    2611.8787   -43916.643    32.450124   0.95816162 
   27300    209.70463    241.80897    130384.44   -41341.724    2609.1242   -43950.849    32.530181    0.9578865 
   27400    209.19473    199.80807    130469.12   -41292.369    2602.7801   -43895.149    32.486008   0.95726479 
   27500    213.85899    169.50342    130503.99    -41241.46    2660.8124   -43902.273     32.61434   0.95700897 
   27600    208.69679    225.99683     130394.1   -41280.191    2596.5848   -43876.776    32.880824   0.95781553 
   27700    209.01146    195.15748    130332.12   -41284.934       2600.5   -43885.434    32.950906   0.95827103 
   27800    212.01993    13.339628    130349.58   -41223.273     2637.931   -43861.204    32.903239   0.95814265 
   27900    215.12105    254.60827    130079.25   -41252.066    2676.5149   -43928.581     32.71946   0.96013386 
   28000    209.34772    276.10295     130099.6   -41277.518    2604.6837   -43882.201    32.784275   0.95998364 
   28100     214.4905    183.21333    130196.71   -41262.657    2668.6696   -43931.326    32.951393   0.95926764 
   28200    206.59154    270.51854    130216.48   -41310.696    2570.3915   -43881.088     33.14404   0.95912201 
   28300     207.2824    315.65515    130451.56   -41300.795    2578.9871   -43879.782    33.159271   0.95739364 
   28400    206.91166    306.43542    130479.11   -41342.341    2574.3744   -43916.716    33.184253   0.95719144 
   28500    206.87943    161.96314    130452.67   -41360.744    2573.9734   -43934.717    33.428933    0.9573855 
   28600     208.6247     110.3661    130337.11   -41321.585    2595.6878   -43917.273    33.756844   0.95823431 
   28700    213.48012    366.28187    130372.99   -41334.689    2656.0986   -43990.788    33.775996   0.95797056 
   28800    211.85152    205.57685    130531.11   -41302.663    2635.8356   -43938.499    33.806904   0.95681012 
   28900    213.71937    354.28586    130629.45   -41266.504    2659.0753   -43925.579    33.887441   0.95608985 
   29000    208.31274     237.3802    130619.18   -41349.031    2591.8065   -43940.838    33.700316   0.95616504 
   29100    210.25871    299.85851    130710.43   -41305.208     2616.018   -43921.226    33.882083   0.95549754 
   29200     210.1045    305.15884    130687.43   -41284.092    2614.0994   -43898.191    33.899225   0.95566571 
   29300    210.90161    208.28835    130779.32   -41351.637     2624.017   -43975.654    33.824086    0.9549942 
   29400    206.69613     261.4948    130821.23   -41405.426    2571.6929   -43977.119    33.951339   0.95468824 
   29500    206.58327    287.75288     130932.8   -41445.851    2570.2886    -44016.14    33.938562   0.95387474 
   29600     210.7726    395.72881    131066.39   -41378.886    2622.4118   -44001.298     33.95904   0.95290254 
   29700    211.70094    296.00952     131053.1   -41429.332    2633.9621   -44063.294    33.960088   0.95299911 
   29800    208.15702    204.02076    131029.06   -41398.917    2589.8691   -43988.786    33.911225   0.95317396 
   29900    209.57487    389.10381    131175.18   -41422.432    2607.5098   -44029.941    33.967497    0.9521122 
   30000    209.55769    299.07905    131156.79    -41398.59    2607.2961   -44005.886    33.948027   0.95224575 
   30100    209.93336    225.90738    131150.03   -41401.954    2611.9701   -44013.925    34.093383   0.95229479 
   30200    209.35169    311.02796    131167.66    -41417.29     2604.733   -44022.023    34.120242   0.95216678 
   30300     210.0159    424.12362    131250.89   -41391.281    2612.9971   -44004.278    34.092572   0.95156298 
   30400     209.4105    238.48775    131262.51   -41366.631    2605.4647   -43972.096    34.053863   0.95147876 
   30500     211.0692    124.87766       131300   -41372.253    2626.1021   -43998.356    34.147731   0.95120712 
   30600    210.49269    278.48631    131259.58   -41374.044    2618.9293   -43992.973    34.323262   0.95150002 
   30700    210.99992    94.770903    131432.08   -41401.288    2625.2401   -44026.528    34.330308   0.95025122 
   30800    211.83335    199.69375    131140.91   -41336.371    2635.6096   -43971.981    34.321749     0.952361 
   30900    207.20906    441.15859    131154.22    -41437.27    2578.0747   -44015.345    34.308097   0.95226438 
   31000    208.91796    195.52455    131177.08   -41482.318    2599.3366   -44081.654    34.286861    0.9520984 
   31100    205.41181    400.69428    131098.49   -41487.114    2555.7135   -44042.828    34.229415    0.9526692 
   31200    206.81415    140.92841    130950.41   -41492.412    2573.1612   -44065.573    34.073191    0.9537465 
   31300    210.44717    417.77165    130958.98   -41444.412    2618.3629   -44062.775    34.251333   0.95368407 
   31400    207.92911    269.52695    131068.53   -41401.633    2587.0335   -43988.667    34.502152   0.95288698 
   31500    205.30854    243.65028    131163.46   -41446.311    2554.4286    -44000.74    34.604911   0.95219726 
   31600    208.28983    105.63953    131191.08   -41367.894    2591.5214   -43959.415    34.673069   0.95199681 
   31700    209.01537    160.01768    131206.99   -41382.426    2600.5485   -43982.974    34.687564   0.95188138 
   31800    211.97519    325.87648    131072.51   -41313.632    2637.3744   -43951.007    34.661529   0.95285802 
   31900    212.64433    314.09353    130950.62   -41306.294    2645.6998   -43951.994    34.475287   0.95374495 
   32000    211.11728    278.62468    131006.09   -41300.442    2626.7004   -43927.142    34.859833   0.95334109 
   32100    212.03057    302.98286    131011.78   -41311.687    2638.0634   -43949.751    34.974588   0.95329974 
   32200    210.67286    333.02399    131216.45   -41316.668    2621.1709   -43937.838     35.01598   0.95181274 
   32300    212.14644    240.53327    131266.78   -41309.399    2639.5051   -43948.904    35.159883   0.95144778 
   32400    207.16256    111.59297    131228.13   -41370.838     2577.496   -43948.334    35.176396   0.95172801 
   32500    212.08969    192.03063    131252.87   -41382.429     2638.799   -44021.228    35.146486   0.95154865 
   32600    212.30606    174.75356    131395.28   -41337.235     2641.491   -43978.726    35.249608   0.95051737 
   32700    209.51388    176.72836     131466.2   -41400.865     2606.751   -44007.616     35.14422    0.9500046 
   32800    209.63132    134.61975    131374.66   -41443.865    2608.2122   -44052.078    35.141038   0.95066655 
   32900    210.92204    284.65537    131584.36   -41441.905    2624.2711   -44066.176    35.297512    0.9491515 
   33000       207.28    199.87678     131494.6   -41494.086    2578.9573   -44073.043    35.353265   0.94979939 
   33100    208.91198    175.44193    131468.41   -41427.512    2599.2622   -44026.774    35.205477    0.9499886 
   33200    210.28926    83.597286    131374.31   -41458.567    2616.3981   -44074.965    35.338265   0.95066903 
   33300    207.24969    241.50964    131333.53   -41397.732    2578.5801   -43976.312    35.366509   0.95096425 
   33400    205.03833    261.85676    131471.62   -41484.359    2551.0666   -44035.426    35.496244   0.94996544 
   33500    211.77526    348.68497    131485.79   -41459.805    2634.8869   -44094.692    35.551063   0.94986303 
   33600    212.22972    149.84851    131527.77   -41436.104    2640.5411   -44076.646    35.527698   0.94955984 
   33700    211.08476    241.11198    131374.02   -41419.358    2626.2957   -44045.654    35.734586   0.95067115 
   33800    206.49847    266.85315    131329.69   -41396.356    2569.2335   -43965.589    35.940323   0.95099207 
   33900    206.89307    223.42693    131390.02   -41404.323    2574.1432   -43978.466    36.036362   0.95055536 
   34000     209.2343    298.64702    131341.55    -41366.73    2603.2725   -43970.003    36.042922   0.95090614 
   34100    208.63574    230.98159    131340.55   -41400.638    2595.8253   -43996.463    36.052499   0.95091343 
   34200    211.88648    233.76632    131384.71   -41409.821    2636.2707   -44046.091    36.043196   0.95059377 
   34300     206.8604    144.49625    131411.33   -41455.845    2573.7366   -44029.582    36.116803   0.95040126 
   34400    210.65923    263.26955    131127.12   -41382.456    2621.0013   -44003.457    36.321437   0.95246117 
   34500    210.19591    298.14944    131332.62   -41394.962    2615.2367   -44010.199    36.368634   0.95097081 
   34600     211.1643    259.71768       131426   -41379.838    2627.2854   -44007.123    36.597739   0.95029514 
   34700    207.27656    134.78701    131287.05   -41453.236    2578.9145   -44032.151    36.273976   0.95130093 
   34800    208.50764     206.9171    131209.51   -41440.548    2594.2314   -44034.779    36.201069   0.95186312 
   34900    206.91006    208.63072    130943.49   -41448.964    2574.3545   -44023.318       36.148   0.95379688 
   35000    205.56081     233.0173    130833.95   -41518.994    2557.5673   -44076.561    36.162532   0.95459547 
   35100    204.71815    241.82397    131072.35   -41469.715     2547.083   -44016.798    36.471053   0.95285916 
   35200    204.51382    183.32219    131072.08   -41468.684    2544.5407   -44013.225    36.405585   0.95286114 
   35300    206.84554    237.34832    131059.99   -41454.868    2573.5517   -44028.419    36.382914   0.95294901 
   35400    207.94584     217.1987    131018.77   -41470.449    2587.2416    -44057.69    36.412878   0.95324882 
   35500    214.27763    368.04243    130917.18   -41364.154     2666.021   -44030.175    36.483289   0.95398855 
   35600    210.17851    147.29708    130934.37   -41412.082    2615.0203   -44027.102    36.560939   0.95386332 
   35700    209.85893    301.96008    130965.53   -41382.452    2611.0441   -43993.496    36.612661   0.95363635 
   35800    211.68949    131.53804    130959.77   -41431.378    2633.8197   -44065.198    36.326854   0.95367832 
   35900    212.72222    232.92676    130863.23   -41382.449    2646.6688   -44029.118     36.51901   0.95438186 
   36000    210.66001    359.68768    131162.27    -41356.42    2621.0111   -43977.431    36.758652   0.95220594 
   36100     215.8936    93.916802    131321.21   -41392.088    2686.1268   -44078.215    36.761524   0.95105348 
   36200    212.63002    204.36559    131230.82   -41421.432    2645.5217   -44066.953    36.795998    0.9517085 
   36300    209.36354    94.165134    131103.08   -41487.558    2604.8805   -44092.438    36.730756   0.95263584 
   36400    212.28294    251.09181    131066.75    -41446.72    2641.2033   -44087.924    36.850514   0.95289986 
   36500    211.17284    181.28453    131082.52   -41431.407    2627.3915   -44058.798    36.838745   0.95278524 
   36600    207.84557     330.0391    130970.27   -41544.639     2585.994   -44130.633    36.927231   0.95360184 
   36700    210.43127    313.56312    131008.09   -41492.459    2618.1651   -44110.624    36.933889   0.95332652 
   36800    207.22253    219.63117    131177.81   -41473.839    2578.2422   -44052.081    36.922341   0.95209315 
   36900    207.73704    488.51079    131317.22    -41495.98    2584.6437   -44080.623    36.946549   0.95108238 
   37000    207.43226    185.52534    131323.09   -41443.303    2580.8517   -44024.155    37.113226   0.95103985 
   37100    211.95175    187.27092    131234.55   -41429.948    2637.0827   -44067.031    37.319952   0.95168149 
   37200    207.15148    306.90015    131316.43   -41480.957    2577.3582   -44058.316    37.115165    0.9510881 
   37300    207.59703    352.35304     131196.1   -41483.921    2582.9017   -44066.823    37.122528   0.95196036 
   37400    210.32347    142.27197    131239.66   -41516.673    2616.8238   -44133.497    37.196592   0.95164446 
   37500    211.27317    289.35983    131325.87   -41527.267    2628.6398   -44155.907    37.184346   0.95101971 
   37600    206.42636    294.96523    131238.39   -41473.703    2568.3363   -44042.039    37.292793   0.95165361 
   37700    212.39465    291.26568    131380.75    -41481.05    2642.5933   -44123.643    37.156981   0.95062244 
   37800    205.12933    274.21564    131325.43    -41579.51    2552.1988   -44131.709    37.272418   0.95102291 
   37900    205.19457    255.82519    131340.45   -41540.685    2553.0106   -44093.695    37.427823   0.95091414 
   38000    205.85548    308.44327    131180.42   -41502.884    2561.2335   -44064.118    37.321654   0.95207418 
   38100    210.27541    171.57575    131253.68   -41455.612    2616.2259   -44071.838    37.487586   0.95154277 
   38200    210.64563    191.37164    131204.16   -41462.492    2620.8321   -44083.324    37.653632   0.95190192 
   38300    210.87721    197.27678    131194.15   -41400.829    2623.7134   -44024.543    37.526816   0.95197455 
   38400    208.96856    233.69963    131171.41   -41445.832    2599.9661   -44045.798    37.440782   0.95213955 
   38500    212.05082    259.93638     131173.9   -41467.817    2638.3153   -44106.132    37.267944    0.9521215 
   38600    208.19101    316.69568    131170.33   -41426.909     2590.292   -44017.201    37.177427   0.95214743 
   38700    212.65928    306.71593     131191.9   -41445.149    2645.8857   -44091.035    37.536576   0.95199087 
   38800    209.26658    213.62315    131188.99   -41464.029    2603.6741   -44067.703    37.486363     0.952012 
   38900    210.61177     165.7471    131221.49    -41415.18    2620.4108   -44035.591    37.697647   0.95177623 
   39000    210.79586    281.77045    131251.25   -41468.848    2622.7012   -44091.549    37.508219   0.95156039 
   39100    207.67293    387.62396    131214.31   -41443.162    2583.8461   -44027.008    37.680724   0.95182828 
   39200    207.83692   -17.395564    131222.78   -41465.878    2585.8865   -44051.765    37.752923   0.95176686 
   39300    209.01706    298.64661    130936.91   -41465.927    2600.5696   -44066.496    37.545755   0.95384483 
   39400    210.50597    293.96055    130779.32   -41420.042    2619.0944   -44039.137    37.647619   0.95499418 
   39500    211.90412    323.70964    130870.62   -41395.193    2636.4901   -44031.683    37.777126   0.95432795 
   39600    208.31486    300.89853    130903.07   -41431.255    2591.8329   -44023.087    37.961616   0.95409142 
   39700    212.24816    174.28488    130947.44   -41376.157    2640.7706   -44016.927    38.160817   0.95376808 
   39800    210.01029    150.37359    130841.48   -41437.403    2612.9273    -44050.33    38.146863   0.95454046 
   39900    208.59359    242.16296    130842.97   -41476.947    2595.3008   -44072.248    38.000641   0.95452962 
   40000     205.9049    292.57025    130950.82   -41498.222    2561.8485   -44060.071    38.077211   0.95374346 
   40100    212.47357    307.81991    131105.43   -41406.102    2643.5752   -44049.677    38.150987   0.95261878 
   40200    208.68971    147.07644    131057.47   -41436.154    2596.4968   -44032.651    38.261061   0.95296735 
   40300    211.85467    340.03649    131048.23   -41422.785    2635.8748    -44058.66    38.501602   0.95303457 
   40400    213.93484    332.52416    131112.55   -41343.187    2661.7561   -44004.943    38.642117   0.95256704 
   40500    215.18643    161.64169    130955.09   -41360.588    2677.3282   -44037.916    38.544815   0.95371235 
   40600    212.69921    273.55053    130805.49   -41385.715    2646.3825   -44032.098    38.607395   0.95480316 
   40700    210.86624    221.70825    130824.88       -41428     2623.577   -44051.577     38.57981   0.95466163 
   40800    209.48729    170.23226    130851.41   -41484.181    2606.4202   -44090.601    38.631747   0.95446807 
   40900    206.25141    294.93927    130818.75   -41504.766    2566.1597   -44070.926    38.459818   0.95470632 
   41000    208.04336    185.32862    130899.68   -41418.254    2588.4549   -44006.709    38.764296   0.95411607 
   41100     211.6182    307.16757    130862.93   -41409.903    2632.9327   -44042.836    38.858685   0.95438406 
   41200    211.74165    258.18412    130803.92   -41423.537    2634.4687   -44058.005    38.932615   0.95481459 
   41300    205.27189    203.23483    130857.29   -41570.459    2553.9725   -44124.431    39.088741   0.95442515 
   41400    207.17645    121.31494    130795.54   -41512.603    2577.6689   -44090.272    38.900686   0.95487575 
   41500    207.53212     278.0398    130633.53   -41514.505    2582.0941   -44096.599    38.715295      0.95606 
   41600    207.56461    368.25947    130661.19   -41475.306    2582.4984   -44057.804    38.764101   0.95585763 
   41700    209.04829     135.4032    130664.36   -41434.992    2600.9582   -44035.951    38.916872   0.95583444 
   41800    206.86894    341.78042    130811.24   -41446.125    2573.8429   -44019.968    39.076617   0.95476114 
   41900    212.52308    97.364655    130834.74   -41433.029    2644.1912    -44077.22      39.0617   0.95458964 
   42000    211.68982    54.705859    130820.87   -41421.068    2633.8239   -44054.892    39.171127   0.95469089 
   42100    209.78887    345.35128    130776.58    -41429.24    2610.1724   -44039.412    39.271764   0.95501418 
   42200    211.48368    290.14437    131037.45    -41395.25    2631.2591    -44026.51    39.345865   0.95311295 
   42300    214.14107      458.839    130982.93   -41381.658     2664.322    -44045.98    39.339647   0.95350964 
   42400    208.51694    356.32534    131100.94   -41433.464    2594.3472   -44027.811    39.446263   0.95265136 
   42500    211.60776    267.33689    131116.16   -41441.077    2632.8028    -44073.88    39.473775   0.95254078 
   42600     209.2187    264.55044    131191.38   -41451.306    2603.0784   -44054.385    39.559644   0.95199464 
   42700    210.53186     195.1588    131168.67   -41465.122    2619.4167   -44084.539    39.823541   0.95215946 
   42800    212.70697     202.5464    131316.33    -41422.74    2646.4791   -44069.219    39.845514   0.95108882 
   42900    209.83317    102.64466     131369.9    -41494.51    2610.7235   -44105.233    39.917843   0.95070094 
   43000     211.5066    184.01121    131339.19   -41532.156    2631.5442     -44163.7    39.806722   0.95092326 
   43100     212.6092    215.18968    131237.98   -41515.119    2645.2627   -44160.382    39.840282   0.95165662 
   43200    213.47945    270.88591     131291.2   -41483.141    2656.0902   -44139.231    39.942053   0.95127086 
   43300    209.62758    165.05833    131371.42   -41501.663    2608.1657   -44109.829    40.017351   0.95068996 
   43400    211.25316    257.76764    131269.37   -41464.095     2628.391   -44092.486    40.002867   0.95142903 
   43500    210.06587    268.67933    131263.74   -41469.608    2613.6188   -44083.227    40.191976   0.95146988 
   43600    215.05539    184.59931    131170.58   -41383.256    2675.6979   -44058.954    40.247913   0.95214561 
   43700    215.89678    239.06006    131207.53    -41419.25    2686.1664   -44105.416    40.323854   0.95187749 
   43800    212.49071    379.66617    131378.91   -41426.956    2643.7884   -44070.744    40.328039   0.95063574 
   43900    214.17833     261.4901    131481.67   -41479.487    2664.7856   -44144.272    40.350626   0.94989276 
   44000    211.56102    264.67521    131528.86   -41509.762    2632.2213   -44141.984    40.545958   0.94955199 
   44100    209.15091    421.28484     131567.7   -41530.391    2602.2349   -44132.626    40.693445    0.9492717 
   44200    207.10031    146.60285    131475.68   -41558.808    2576.7216    -44135.53     40.69843   0.94993609 
   44300    208.63196    209.59551    131543.34   -41552.956    2595.7783   -44148.735    40.676126   0.94944749 
   44400    206.70978    286.93926    131605.12   -41522.094    2571.8627   -44093.956    40.571469   0.94900175 
   44500    209.42822    181.12456    131537.57   -41546.186    2605.6853   -44151.871     40.50629    0.9494891 
   44600    206.26791    236.13625    131460.73   -41603.723     2566.365   -44170.088    40.586958   0.95004409 
   44700     206.2852    308.57196    131532.04   -41568.626    2566.5801   -44135.206    40.616908   0.94952907 
   44800    210.54522    288.27139    131568.27   -41537.489    2619.5829   -44157.072    40.724861   0.94926759 
   44900     210.9339    204.82291    131622.76   -41498.712    2624.4188    -44123.13    40.822902   0.94887459 
   45000     210.3514    223.98476    131518.66    -41500.27    2617.1713   -44117.441    40.736046   0.94962567 
   45100    212.13581    44.713407    131624.04    -41440.62    2639.3727   -44079.993    40.994909   0.94886533 
   45200    208.72006    192.68887    131574.35   -41503.622    2596.8744   -44100.496    41.026815   0.94922367 
   45300    205.30427    324.07047    131457.14   -41507.662    2554.3755   -44062.037    40.880413   0.95007004 
   45400     210.1867    256.46567    131324.56    -41481.75    2615.1222   -44096.872    40.868502    0.9510292 
   45500    212.89984    286.93742    131271.69    -41491.69    2648.8787   -44140.568    40.895739    0.9514122 
   45600    211.77779    261.12912    131349.66   -41485.791    2634.9183    -44120.71    40.898535   0.95084748 
   45700    208.18947    208.87523    131362.08   -41490.001    2590.2728   -44080.274    40.981638    0.9507576 
   45800    215.61633    305.13587    131591.55   -41432.402    2682.6771    -44115.08    41.018159   0.94909962 
   45900    213.66114    156.97095    131590.16   -41378.956    2658.3507   -44037.306    40.942402   0.94910966 
   46000    219.91097    204.50481    131514.33   -41359.606    2736.1106   -44095.717    40.890283   0.94965687 
   46100    215.11181    299.47884    131497.91   -41330.429    2676.3998   -44006.829    41.144843   0.94977549 
   46200    216.10671    365.73952    131650.11   -41333.663    2688.7783   -44022.441    41.119718   0.94867742 
   46300    211.32771    195.81691    131660.89    -41357.03    2629.3185   -43986.348     41.31382    0.9485998 
   46400    213.76319     192.2013    131634.37    -41407.24    2659.6205   -44066.861    41.103691   0.94879089 
   46500    210.73199    249.55038    131675.45   -41421.779    2621.9065   -44043.685    41.131652   0.94849487 
   46600    214.46557    267.23955    131826.35   -41413.524    2668.3595   -44081.884    41.137469   0.94740913 
   46700    204.49028    175.90397    131889.79   -41501.372    2544.2479    -44045.62    41.325646   0.94695348 
   46800    209.02885    171.09404    131754.22   -41542.477    2600.7163   -44143.193    41.239691   0.94792781 
   46900     214.6689    162.63148    131727.06   -41469.557    2670.8892   -44140.446    41.175312   0.94812326 
   47000    211.77799    137.88663    131726.26   -41457.594    2634.9209   -44092.514    41.149101   0.94812901 
   47100    212.57719    268.17008    131720.68   -41427.061    2644.8644   -44071.925     41.33162   0.94816919 
   47200    208.92238    265.83048    131748.87   -41478.541    2599.3916   -44077.933    41.299503    0.9479663 
   47300    212.02391    354.33744    131793.68   -41500.695    2637.9805   -44138.675    41.525558   0.94764402 
   47400    213.41514    239.55965     131799.6   -41453.865    2655.2901   -44109.156    41.568606   0.94760144 
   47500     213.5217    299.83708    131771.13   -41398.484    2656.6158   -44055.099    41.563261   0.94780615 
   47600    215.53928    121.18851    131971.79   -41361.037    2681.7185   -44042.755       41.449   0.94636504 
   47700    210.75331    119.63809    131667.28   -41396.723    2622.1718   -44018.895    41.258512   0.94855377 
   47800    210.26506    245.41366     131414.5   -41398.931    2616.0971   -44015.028    41.381374   0.95037831 
   47900    205.19875    367.85865    131549.61   -41473.076    2553.0625   -44026.138    41.535978   0.94940221 
   48000    208.86203    279.29745    131460.65   -41478.959    2598.6407     -44077.6    41.480945   0.95004471 
   48100    213.22328    163.00254    131366.89    -41446.46     2652.903   -44099.363    41.521188   0.95072276 
   48200    209.08229    269.88058     131379.8    -41480.51    2601.3812   -44081.892    41.652026   0.95062929 
   48300    211.01899    274.38739    131275.72   -41466.924    2625.4775   -44092.401    41.379714   0.95138305 
   48400    213.95906    178.51304    131302.37   -41393.866    2662.0575   -44055.923    41.327427   0.95118993 
   48500    212.42699    340.90971    131186.26    -41443.45    2642.9956   -44086.445    41.510199   0.95203183 
   48600    212.54787    287.83357    131269.07   -41449.035    2644.4996   -44093.535    41.647321   0.95143122 
   48700    215.93348    248.83435    131396.18   -41418.814     2686.623   -44105.437    41.803404    0.9505108 
   48800     210.5373    266.70932    131466.58   -41462.948    2619.4842   -44082.432    41.908046   0.95000185 
   48900    209.69969    157.81311    131288.92   -41454.696    2609.0628   -44063.758    41.881422   0.95128735 
   49000    211.23297     374.6603    131355.12    -41495.97    2628.1397   -44124.109    41.916539   0.95080792 
   49100    205.32335    133.02497     131365.4   -41494.985    2554.6128   -44049.598    41.819279   0.95073352 
   49200    210.15183    323.02613    131271.55    -41512.06    2614.6883   -44126.748    41.737413   0.95141326 
   49300    210.86688    265.65145    131228.78   -41464.149    2623.5849   -44087.734    41.883704   0.95172331 
   49400    210.89213    76.437156    131180.61   -41434.652    2623.8991   -44058.551    41.976049   0.95207281 
   49500    212.30144    247.21968    131182.77    -41444.48    2641.4335   -44085.914    41.870604   0.95205711 
   49600    209.30155    230.94921    131129.67   -41455.818    2604.1092   -44059.927    42.052965   0.95244264 
   49700    208.77866    294.83262    131197.81   -41450.505    2597.6034   -44048.108    42.083907   0.95194798 
   49800    207.58268    134.86014    131123.03   -41510.425    2582.7232   -44093.149    42.049917   0.95249087 
   49900    209.42282    232.25187    131138.69    -41398.57     2605.618   -44004.188    42.080258   0.95237712 
   50000    213.00641    392.71542    131165.71   -41432.611    2650.2048   -44082.816    41.899653   0.95218096 
   50100    210.31639    298.88223    131220.29    -41443.37    2616.7357   -44060.105    41.949368   0.95178492 
   50200    211.51851    287.37586     131394.9   -41481.802    2631.6924   -44113.495      42.0628   0.95052007 
   50300    206.61591    284.60062    131432.47   -41456.444    2570.6947   -44027.139    42.063484   0.95024839 
   50400    211.69484     251.5684    131408.69   -41479.204    2633.8862    -44113.09     42.05514   0.95042035 
   50500    210.67255    216.16123    131425.26   -41518.634     2621.167   -44139.801    42.166694    0.9503005 
   50600     206.4327    234.94145    131418.16   -41544.035    2568.4152    -44112.45    42.190967   0.95035188 
   50700    206.01969    227.92238    131483.59   -41549.975    2563.2766   -44113.252    42.403283   0.94987894 
   50800    208.76979    201.92599    131388.83   -41537.346    2597.4931   -44134.839    42.267171   0.95056401 
   50900    210.94115    246.82367    131352.68   -41455.363     2624.509   -44079.872    42.238554   0.95082562 
   51000    212.27074    220.44674    131507.67   -41476.585    2641.0516   -44117.637    42.326684   0.94970499 
   51100    207.96516    130.81634    131448.55   -41517.556    2587.4819   -44105.038    42.533499    0.9501321 
   51200    208.31543    382.89408    131394.67   -41508.953    2591.8399   -44100.792      42.4998   0.95052174 
   51300    206.74315    42.538569    131542.65    -41569.95    2572.2778   -44142.228    42.563737   0.94945246 
   51400    207.22457    358.23731    131395.19   -41575.026    2578.2677   -44153.294    42.609729   0.95051801 
   51500    205.48388    212.08783    131364.34    -41568.37    2556.6102    -44124.98    42.748715   0.95074117 
   51600    209.01117    308.65483    131554.39   -41508.945    2600.4964   -44109.442    42.636321   0.94936775 
   51700    210.01486    367.22324    131522.12   -41500.897    2612.9841   -44113.881    42.724033   0.94960068 
   51800    208.43683    130.28772    131474.34   -41526.863    2593.3505   -44120.214    42.739223   0.94994573 
   51900    206.55828    237.60222    131404.09   -41558.153    2569.9777    -44128.13    42.751284   0.95045362 
   52000    207.77375    195.45264    131467.26   -41583.517    2585.1005   -44168.618    42.678279   0.94999694 
   52100    209.15931    236.55258    131606.51   -41532.407    2602.3394   -44134.747    42.759437   0.94899172 
   52200    210.87813    416.00893     131690.3   -41565.928    2623.7249   -44189.653    42.772883   0.94838793 
   52300    206.92453    216.39897    131594.07    -41562.82    2574.5346   -44137.355    43.176048   0.94908143 
   52400    208.68762    362.66439    131615.04   -41514.589    2596.4707    -44111.06    43.002149   0.94893024 
   52500    208.41249    88.789552     131773.8   -41511.049    2593.0476   -44104.096    43.073912     0.947787 
   52600    209.04901    216.73535     131609.5   -41534.383    2600.9672    -44135.35    43.003993   0.94897015 
   52700    206.07841    321.39129    131580.55   -41545.107    2564.0072   -44109.114    43.066081   0.94917899 
   52800    208.39446    121.39416    131334.23   -41498.945    2592.8233   -44091.769    43.065843   0.95095919 
   52900    210.06569    290.37118     131493.2   -41490.326    2613.6166   -44103.942    43.174658   0.94980951 
   53000    211.93127    227.98093     131543.8   -41463.182    2636.8279    -44100.01    43.196679   0.94944413 
   53100    207.71052    241.60109    131554.95   -41507.067    2584.3138   -44091.381    43.347142   0.94936371 
   53200    210.07674    307.65634       131665   -41498.997     2613.754   -44112.751    43.487384   0.94857016 
   53300    208.24065     259.2436    131563.92   -41497.017    2590.9096   -44087.927    43.456073   0.94929898 
   53400    206.98436    328.62966    131524.96   -41578.305     2575.279   -44153.584    43.449649   0.94958013 
   53500     207.1813    184.00303     131463.9   -41592.051    2577.7293    -44169.78    43.634074   0.95002119 
   53600    209.15974    300.58533    131616.23   -41596.682    2602.3448   -44199.026    43.692617   0.94892162 
   53700    206.75583    295.41678    131731.67    -41629.54    2572.4356   -44201.976    43.674672   0.94809009 
   53800    210.14913    100.04155    131648.77   -41516.735    2614.6547   -44131.389    43.682461    0.9486871 
   53900    209.67666    151.60831    131531.31   -41565.055    2608.7763   -44173.831    43.930695   0.94953427 
   54000    209.04094    219.91857    131534.71   -41528.644    2600.8667    -44129.51    44.055003   0.94950975 
   54100    211.03546    280.06372    131616.17   -41538.211    2625.6823   -44163.893    43.805675   0.94892207 
   54200    210.69044    368.70814    131619.12   -41519.485    2621.3896   -44140.874    44.015759   0.94890083 
   54300    211.15022    231.81408    131667.73   -41489.363    2627.1102   -44116.474    43.914193   0.94855046 
   54400    211.21046    282.53452    131747.66   -41525.003    2627.8597   -44152.863    43.929465   0.94797503 
   54500    210.21139    218.81726    131758.29   -41527.997    2615.4294   -44143.426    44.028834   0.94789852 
   54600    214.51496    284.69285    131703.16   -41444.467    2668.9739   -44113.441     44.19476   0.94829535 
   54700    214.71104    221.69148    131671.81   -41454.993    2671.4136   -44126.407     44.27074   0.94852111 
   54800    208.73515    157.59815     131580.1   -41517.321    2597.0621   -44114.383    44.188061   0.94918225 
   54900    206.15956    177.92153    131608.09   -41548.453    2565.0168    -44113.47    44.229635   0.94898038 
   55000    203.68415    135.81308    131489.35    -41600.59    2534.2181   -44134.808    44.101368    0.9498373 
   55100    203.54265    338.13428    131440.61   -41552.841    2532.4575   -44085.298    44.142307   0.95018954 
   55200    206.07896    239.69136     131383.1   -41553.515     2564.014   -44117.529    44.290963   0.95060547 
   55300     208.8051    143.96101    131422.16   -41506.042    2597.9324   -44103.974    44.311849    0.9503229 
   55400    211.51174    265.07871    131425.19   -41494.142    2631.6082   -44125.751    44.455254   0.95030099 
   55500    213.33271    192.25376    131401.98   -41438.005    2654.2645   -44092.269    44.389863   0.95046885 
   55600    207.52173    237.03544     131417.9   -41480.908    2581.9648   -44062.873    44.386008   0.95035376 
   55700    208.45023    264.64906    131462.22   -41482.129    2593.5171   -44075.646    44.549626   0.95003335 
   55800    209.79154    284.52627    131506.84   -41486.703    2610.2057   -44096.909    44.754393   0.94971101 
   55900    209.94257    269.71106    131478.18   -41459.475    2612.0847    -44071.56    44.758035     0.949918 
   56000    211.23788    261.71077    131607.39   -41454.193    2628.2009   -44082.393    44.807738    0.9489854 
   56100    213.93221    250.89084    131594.02   -41428.022    2661.7234   -44089.745    44.903817   0.94908181 
   56200    210.92041    230.92577     131507.6   -41419.918    2624.2509   -44044.169    45.143597    0.9497055 
   56300    211.80644     273.9794    131402.78   -41445.425    2635.2748     -44080.7     45.09149   0.95046309 
   56400    209.39043     261.7897    131337.85   -41436.925     2605.215    -44042.14    45.217792   0.95093295 
   56500    207.83561    311.98983    131592.36   -41521.433    2585.8701   -44107.303    45.263202   0.94909376 
   56600    207.03757    219.27633    131708.15   -41540.247     2575.941   -44116.188    45.260577   0.94825941 
   56700    206.66538    127.13961    131634.81   -41574.708    2571.3103   -44146.018    45.201345    0.9487877 
   56800    210.00099    183.22984    131610.62   -41514.527    2612.8116   -44127.338    45.227332   0.94896209 
   56900    208.69392     240.3086     131543.4   -41507.763    2596.5491   -44104.312      45.2006   0.94944706 
   57000    212.53627    351.54209    131640.02   -41459.521    2644.3552   -44103.876    45.404002   0.94875015 
   57100    206.99614     208.4389    131578.35   -41521.937    2575.4256   -44097.363    45.233134   0.94919486 
   57200    210.90492    279.57934    131717.58   -41559.586    2624.0581   -44183.644    45.474638   0.94819154 
   57300    205.79552    264.74874    131806.55    -41607.61    2560.4875   -44168.097     45.35739   0.94755151 
   57400    209.68233    133.02354    131760.65   -41617.523    2608.8468    -44226.37    45.379627   0.94788154 
   57500    205.82625    67.570332    131554.31   -41669.349    2560.8698   -44230.219    45.541681   0.94936827 
   57600    205.96261    406.08509    131742.45   -41618.164    2562.5665   -44180.731    45.588892   0.94801251 
   57700    203.31553    228.80248    131746.36   -41650.978    2529.6317    -44180.61    45.488736   0.94798441 
   57800    202.75427     357.3064     131706.5   -41675.591    2522.6485    -44198.24    45.570263   0.94827131 
   57900     203.4068    125.69904    131884.28    -41640.41    2530.7673   -44171.178    45.601921   0.94699304 
   58000    206.77688    284.17486    132069.63   -41637.415    2572.6975   -44210.113    45.675814   0.94566395 
   58100    208.51829    143.83235    131920.59   -41562.683     2594.364   -44157.047    45.714746   0.94673234 
   58200    209.56948    91.015258    132026.94   -41514.501    2607.4427   -44121.944    45.771072   0.94596974 
   58300    212.44141    273.36385    132050.81   -41458.076     2643.175   -44101.251    45.812325   0.94579875 
   58400    210.04747      263.216    132110.54   -41455.856    2613.3899   -44069.246    45.846384   0.94537117 
   58500    213.99171    266.84167    131927.76   -41455.277    2662.4637    -44117.74    46.139919   0.94668089 
   58600    213.98028     289.0424    131870.47   -41427.228    2662.3215    -44089.55    45.869616   0.94709216 
   58700    211.97271    385.98225     131945.6   -41438.672    2637.3436   -44076.015    45.744691   0.94655294 
   58800    212.29011    272.03167    131939.77   -41497.505    2641.2925   -44138.798    45.920322   0.94659476 
   58900    208.91276    159.31692    131835.98   -41551.875    2599.2719   -44151.147    46.023963   0.94733994 
   59000    208.58208     357.0095    131875.95   -41531.392    2595.1576    -44126.55     46.20933    0.9470528 
   59100    207.66041    347.36474    131858.76   -41544.428    2583.6903   -44128.119    46.139694   0.94717629 
   59200     211.5362    241.40532    131915.07   -41562.775    2631.9125   -44194.688    46.042691   0.94677195 
   59300    211.69986    200.68176    131848.17   -41564.858    2633.9487   -44198.807    46.089253   0.94725235 
   59400    208.38402    257.59667    131813.85   -41617.145    2592.6933   -44209.838    46.107725   0.94749898 
   59500    207.57752     413.7688    131850.14   -41580.542     2582.659   -44163.201    46.248142   0.94723822 
   59600    208.99036    254.61705     131752.8   -41566.399    2600.2374   -44166.636    46.206527   0.94793805 
   59700    208.86903    186.79734    131919.37   -41591.927    2598.7278   -44190.655    46.318704   0.94674113 
   59800    206.19329    61.725753    131694.81   -41587.603    2565.4365   -44153.039     46.20549   0.94835545 
   59900    210.06735    195.13697    131758.79   -41571.355    2613.6372   -44184.992    46.368143   0.94789495 
   60000    210.03465    266.96311    131645.45   -41611.596    2613.2304   -44224.826    46.494861   0.94871107 
   60100    209.88219    295.19377    131634.01   -41573.367    2611.3334     -44184.7    46.245305    0.9487935 
   60200    211.57902    263.33567    131807.63   -41553.739    2632.4452   -44186.184    46.426237   0.94754373 
   60300    212.72542    224.44116    131593.89   -41505.617    2646.7086   -44152.325    46.387892   0.94908275 
   60400    212.72517    204.87772     131777.5    -41457.03    2646.7055   -44103.736    46.472103   0.94776036 
   60500    212.50438    230.11102    131733.86   -41483.035    2643.9585   -44126.994    46.522534   0.94807435 
   60600     214.1059     288.7703    131810.92   -41540.202    2663.8845   -44204.086    46.489809   0.94752005 
   60700    207.89809    169.22326    131852.27   -41560.867    2586.6475   -44147.514    46.558557   0.94722292 
   60800    213.10858    300.65036    131810.54   -41518.102    2651.4759   -44169.578    46.632865   0.94752278 
   60900    209.16784     278.1993    131801.02   -41512.127    2602.4456   -44114.573    46.817695   0.94759124 
   61000    207.72786    121.09928    131752.96   -41548.846    2584.5294   -44133.375     47.01488   0.94793686 
   61100     210.8451    268.19341    131878.98   -41583.698    2623.3139   -44207.012    47.120175   0.94703104 
   61200    204.87922    327.59835    131886.93   -41580.161     2549.087   -44129.248    46.850637   0.94697397 
   61300    210.94654    319.23124    131954.01     -41564.3     2624.576   -44188.876    47.068115   0.94649261 
   61400    208.66853    262.43418    131860.75   -41603.067    2596.2332     -44199.3    46.998668   0.94716198 
   61500      204.538     245.1534    131882.23   -41591.938    2544.8416   -44136.779     47.04158   0.94700773 
   61600    210.97082    278.28618    132107.47   -41547.791    2624.8781   -44172.669    47.094812   0.94539307 
   61700      206.799    193.17694     132118.6   -41615.788    2572.9727   -44188.761    47.295211   0.94531347 
   61800    204.37876    168.77671    131965.17   -41676.946    2542.8604   -44219.807    47.292937   0.94641251 
   61900     204.9577    407.32277    131892.33   -41617.814    2550.0634   -44167.878     47.20337   0.94693518 
   62000    210.24287    240.12255    131967.57   -41567.568     2615.821   -44183.389    47.192411   0.94639529 
   62100    209.61354    156.20073    131988.93    -41581.13    2607.9909   -44189.121     47.04332   0.94624213 
   62200    213.02043    258.81697     131766.2   -41528.542    2650.3791   -44178.921    47.093641   0.94784167 
   62300    207.99162    179.14001    131901.93   -41557.747    2587.8111   -44145.559    47.149675   0.94686629 
   62400    210.94954    406.76677    131734.05   -41512.346    2624.6134    -44136.96    47.330261   0.94807295 
   62500    212.68309    253.13018    131674.18   -41531.051     2646.182   -44177.233    47.359428   0.94850407 
   62600    213.87916     157.5838    131769.61   -41544.757    2661.0634    -44205.82    47.156603   0.94781713 
   62700    207.88482    178.23527    131705.69   -41577.357    2586.4824    -44163.84    47.115635   0.94827713 
   62800    208.63307    82.591733    131705.15   -41570.089    2595.7921   -44165.881    47.051154   0.94828103 
   62900    210.88561    301.54581     131630.9   -41527.026     2623.818   -44150.844     47.17229   0.94881588 
   63000    212.77339     289.6831    131628.81   -41488.297    2647.3055   -44135.602    47.083634   0.94883094 
   63100    214.33218    230.60095    131681.32   -41467.669    2666.6998   -44134.369    47.105683   0.94845262 
   63200     214.8965    201.00972    131553.33   -41512.951     2673.721   -44186.672    47.240404   0.94937537 
   63300    210.46576    125.86306    131542.32   -41548.863    2618.5942   -44167.457    47.292135   0.94945486 
   63400    212.00729    304.41439    131548.33   -41480.764    2637.7738   -44118.538    47.447256   0.94941144 
   63500    209.26104    191.96916    131506.18   -41564.702    2603.6051   -44168.307    47.451304   0.94971577 
   63600    211.88185    300.69311    131514.38   -41570.611    2636.2131   -44206.824    47.158261   0.94965657 
   63700    211.56704    92.861745    131554.07   -41581.562    2632.2963   -44213.858    47.494162   0.94937004 
   63800    207.94056    206.26485    131645.69   -41669.952    2587.1759   -44257.128    47.576091    0.9487093 
   63900    204.02694    145.78199    131723.04   -41653.774     2538.483   -44192.257    47.566291    0.9481522 
   64000    205.68653    210.89263     131654.8   -41648.299    2559.1315   -44207.431    47.629677   0.94864363 
   64100    212.43213    248.11848    131764.97   -41567.434    2643.0596   -44210.493    47.708387   0.94785051 
   64200    210.28579    269.18781    131741.71   -41574.982     2616.355   -44191.337    47.739316   0.94801785 
   64300    215.22141    316.47666    131808.03   -41489.439    2677.7635   -44167.203    47.760031   0.94754086 
   64400    212.58164    351.89915    131877.17   -41528.111    2644.9197    -44173.03    47.856744   0.94704408 
   64500    212.06003    286.54409    131999.24   -41521.424    2638.4299   -44159.854    48.004335   0.94616823 
   64600    206.95062    179.69176    131836.03   -41580.308    2574.8592   -44155.167    48.041301   0.94733962 
   64700    214.54532    347.27936    131968.55   -41594.937    2669.3517   -44264.289    47.983538   0.94638828 
   64800    209.03377    209.15476    132074.45   -41629.187    2600.7776   -44229.965    48.089498   0.94562945 
   64900    210.60631    223.92671    132030.29   -41604.343    2620.3429   -44224.686    48.037162   0.94594576 
   65000    210.63662    192.88021    131828.52   -41578.816      2620.72   -44199.536    48.090852   0.94739353 
   65100    209.27877    256.28374    131934.23   -41597.477    2603.8257   -44201.302    48.210309   0.94663448 
   65200    211.99969    342.44147    132093.87   -41584.038    2637.6792   -44221.717    48.319117   0.94549042 
   65300     208.2499    220.18401    132101.09   -41582.545    2591.0246    -44173.57    48.249256   0.94543874 
   65400    212.76702    159.90284     131929.3   -41526.264    2647.2262    -44173.49    48.285485   0.94666988 
   65500    213.57127    318.49334    132148.89   -41585.225    2657.2327   -44242.457    48.515481   0.94509678 
   65600    208.23951    260.94481    132157.13   -41616.415    2590.8954    -44207.31    48.437632   0.94503785 
   65700    208.93507    225.15339    132222.22   -41656.849    2599.5495   -44256.399    48.432441   0.94457266 
   65800    206.83449    281.97856    132181.69   -41655.496    2573.4143    -44228.91    48.595231   0.94486228 
   65900    209.10074    351.16845    132268.05   -41630.014    2601.6108   -44231.625    48.621625   0.94424536 
   66000    209.91788    252.59662    132228.85   -41540.655    2611.7775   -44152.432    48.375763   0.94452525 
   66100    214.44912    288.43776    132202.21   -41494.815    2668.1547    -44162.97    48.281288   0.94471564 
   66200    212.28605    164.55453    132296.57   -41486.568    2641.2421    -44127.81    48.342065   0.94404181 
   66300    212.73345    226.78087    132248.94   -41536.596    2646.8086   -44183.405    48.449194    0.9443818 
   66400     213.2091    310.35902    132392.91    -41578.92    2652.7265   -44231.646    48.472088    0.9433548 
   66500    207.98651    256.03224    132365.93   -41595.171    2587.7476   -44182.919    48.454885   0.94354709 
   66600    210.60309    215.44855    132247.29   -41621.459    2620.3029   -44241.761    48.459212   0.94439355 
   66700    210.59914    191.15533    132077.53   -41642.664    2620.2537   -44262.917    48.700837   0.94560738 
   66800    207.83199      237.061    132063.97     -41575.9     2585.825   -44161.725    48.498734   0.94570447 
[...]
   84600    205.82242    207.25085    131655.68   -41669.707    2560.8222   -44230.529    53.115326   0.94863729 
   84700    206.44171    269.27265    131813.16   -41692.302    2568.5274   -44260.829    53.092159   0.94750394 
   84800    211.13202    185.01697     131854.7   -41661.841    2626.8837   -44288.724    53.263436   0.94720549 
   84900     207.5704    240.30748    131854.89   -41635.336    2582.5704   -44217.906    53.622432   0.94720411 
   85000    209.18084    320.58654     131702.9   -41575.072    2602.6073   -44177.679    53.624869   0.94829718 
   85100    207.51187    268.34867    131874.16   -41570.511    2581.8422   -44152.354    53.603236   0.94706567 
   85200    208.00355    79.648799    131761.64   -41571.881    2587.9596   -44159.841    53.505064   0.94787441 
   85300      205.018    186.18258     131827.3   -41617.938    2550.8137   -44168.752    53.477245   0.94740235 
   85400    207.08173    194.05477    131807.02   -41605.546    2576.4904   -44182.036    53.586952   0.94754809 
   85500     208.1259    224.12966    131770.35   -41570.416    2589.4819   -44159.898    53.447841   0.94781181 
   85600    212.30364    304.13542    131847.63   -41548.584    2641.4609   -44190.045    53.795637   0.94725622 
   85700    206.38802    290.42321    131612.12    -41582.14    2567.8594   -44149.999    53.760217    0.9489513 
   85800    206.38869    131.92109    131485.82   -41581.552    2567.8677    -44149.42    53.786433    0.9498628 
   85900    212.83678    359.03079    131468.19   -41492.812    2648.0941   -44140.906    53.754252    0.9499902 
   86000     212.5293    181.74259    131610.83   -41552.349    2644.2686   -44196.618    53.621913    0.9489606 
   86100    213.88242    275.26587     131663.7   -41549.001    2661.1039   -44210.105    53.505254   0.94857953 
   86200    209.43391    282.04123    131681.92    -41522.59     2605.756   -44128.346    53.596424   0.94844829 
   86300    209.51077    382.15411    131751.43   -41557.843    2606.7122   -44164.555    53.684617   0.94794793 
   86400    215.63966    210.14623    131877.99   -41567.563    2682.9674   -44250.531    54.242346   0.94703815 
   86500     214.2636     285.8423    131695.03   -41554.832    2665.8465   -44220.679     54.11032   0.94835387 
   86600    214.32464      260.881    131657.14   -41504.804    2666.6059    -44171.41     53.99429   0.94862681 
   86700    212.20348    244.08203    131770.88   -41501.673    2640.2147   -44141.888    54.230755   0.94780799 
   86800    205.55342    378.44748    131850.69   -41563.633    2557.4754   -44121.108    53.966335   0.94723423 
   86900    212.10749    361.38863    132106.67   -41528.296    2639.0204   -44167.316     54.18414   0.94539881 
   87000    210.82314    179.19082    132053.04   -41532.675    2623.0406   -44155.716    54.084467   0.94578279 
   87100     211.0143    323.44788    132121.81   -41579.022    2625.4191   -44204.441    54.184955   0.94529048 
   87200    214.70151    313.82418    132300.95   -41577.927     2671.295   -44249.222    54.242259   0.94401051 
   87300    210.98926    197.76617    132329.34   -41595.768    2625.1075   -44220.875    54.402755   0.94380799 
   87400    208.93434     199.2591     132260.6   -41593.768    2599.5405   -44193.309    54.588992   0.94429851 
   87500    210.78176    207.13185    132303.39   -41600.828    2622.5258   -44223.353    54.521571   0.94399314 
   87600     206.2343    98.481451    132230.45    -41614.92    2565.9467   -44180.867    54.547522   0.94451382 
   87700     211.1851    311.66912    132193.72   -41621.001    2627.5441   -44248.545    54.558463   0.94477627 
   87800    211.60827    169.73792    132263.02   -41608.368    2632.8092   -44241.178    54.407209   0.94428124 
   87900     210.2434     124.8997    132066.83   -41636.262    2615.8276   -44252.089    54.364433   0.94568403 
   88000     209.9362    117.66937    132119.66   -41665.523    2612.0055   -44277.528    54.413993   0.94530586 
   88100    209.67153    221.04475     132175.3   -41603.336    2608.7124   -44212.049    54.432173   0.94490795 
   88200     214.3232    347.95808    132136.95   -41578.954     2666.588   -44245.542    54.348534   0.94518215 
   88300    208.45003    82.779281    132095.12   -41616.233    2593.5146   -44209.747    54.635945   0.94548149 
   88400     206.1911    209.39503    132012.65   -41718.548    2565.4093   -44283.958    54.799363   0.94607216 
   88500    210.56158    512.87091    132106.12   -41620.468    2619.7864   -44240.254     54.73323   0.94540275 
   88600    213.25419    314.81363     132131.6   -41573.653    2653.2875    -44226.94    54.788228   0.94522046 
   88700    211.14667    244.70063     132113.4   -41554.353     2627.066   -44181.419    54.773926    0.9453507 
   88800    216.43305    259.41716    131963.11   -41489.657    2692.8387   -44182.496    54.533425   0.94642733 
   88900    207.73981    352.07521    132003.52   -41522.582    2584.6782   -44107.261    54.759462   0.94613758 
   89000    215.63958    239.17869    132036.64   -41523.825    2682.9664   -44206.791    54.704109   0.94590027 
   89100    209.88938    287.45736    132019.42   -41615.492    2611.4229   -44226.915    54.681884    0.9460236 
   89200    210.40798    159.16997    132010.24   -41645.372    2617.8752   -44263.248    54.784644   0.94608943 
   89300    207.86522    202.95257    131987.69    -41658.73    2586.2385   -44244.968    55.083032   0.94625108 
   89400    209.18727    282.02006    132047.16   -41683.813    2602.6874   -44286.501    54.971725   0.94582488 
   89500    203.01356    313.55827    131993.91   -41714.125    2525.8747       -44240    54.987948   0.94620643 
   89600    207.32561    46.700412    131804.55   -41761.355    2579.5247   -44340.879    54.807589   0.94756582 
   89700    205.20026    277.45381    131722.76   -41728.123    2553.0814   -44281.205    54.835908   0.94815419 
   89800    204.14804    100.25933    131677.37   -41690.291    2539.9898    -44230.28    54.690162   0.94848103 
   89900    206.58244    210.58916    131782.76   -41749.527    2570.2783   -44319.805    54.732579   0.94772256 
   90000    206.50477    225.38267       131830   -41660.535     2569.312   -44229.847    54.906691   0.94738294 
   90100    205.53694     283.9265    131826.22    -41674.14    2557.2702    -44231.41    54.893034   0.94741012 
   90200    207.52817     284.4552    131708.22   -41704.533     2582.045   -44286.578    54.886495   0.94825893 
   90300    206.07124     59.79808    131818.94   -41716.236     2563.918   -44280.154    54.815167   0.94746241 
   90400    210.31828    227.98136    131851.34   -41698.174    2616.7592   -44314.933    54.778125    0.9472296 
   90500    212.13808    354.22395    131972.67   -41669.613    2639.4011   -44309.014    54.926361   0.94635876 
   90600    213.48055    347.23131    131992.25   -41588.822    2656.1039   -44244.926    55.020293   0.94621839 
   90700    212.69149    276.26877    131978.59   -41583.548    2646.2865   -44229.835    55.025641   0.94631631 
   90800    212.98537    410.34251    132034.88   -41612.975    2649.9429   -44262.918    54.974534   0.94591285 
   90900    206.04497    144.24614    132149.61   -41702.272    2563.5912   -44265.863    55.138985   0.94509161 
   91000    209.34352    125.12643    131866.68   -41723.581    2604.6313   -44328.212    55.210335   0.94711937 
   91100    208.23746    404.52179    132006.18   -41701.312    2590.8699   -44292.182    55.273365   0.94611849 
   91200    210.42172    329.01493    131921.29   -41667.304    2618.0462    -44285.35    55.292939   0.94672733 
   91300    211.88627     233.2366    131950.78   -41567.871     2636.268   -44204.139    55.309303   0.94651578 
   91400    212.63622    265.82543    131940.47   -41554.951    2645.5988    -44200.55    55.351483   0.94658968 
   91500    212.71009    182.86525    131924.66   -41562.218    2646.5179   -44208.736    55.191369   0.94670316 
   91600    213.03645    79.022655     131869.1     -41599.1    2650.5785   -44249.678    55.239243   0.94710203 
   91700    206.47218     294.0988    131854.86   -41668.412    2568.9065   -44237.319    55.203385    0.9472043 
   91800    208.75141    348.56713       131895   -41629.873    2597.2644   -44227.138    55.315148   0.94691602 
   91900     209.9792    211.14263    132015.52   -41630.334    2612.5405   -44242.875    55.195004    0.9460516 
   92000    207.40907    339.93576    131968.72   -41644.737    2580.5632     -44225.3    55.276044   0.94638706 
   92100     205.0152    157.22158    132045.65    -41683.85    2550.7789   -44234.628    55.538086   0.94583574 
   92200     208.1971    248.20048    131969.16   -41625.682    2590.3677    -44216.05    55.515068    0.9463839 
   92300    212.58736    187.78036    132151.54   -41553.262    2644.9909   -44198.253    55.442178   0.94507784 
   92400    215.11962    248.89418     132203.2   -41569.127     2676.497   -44245.624    55.571642    0.9447085 
   92500    210.51505    179.88666    132247.21     -41620.4    2619.2075   -44239.608    55.819607   0.94439417 
   92600     214.2199    276.95249    132129.95   -41604.966    2665.3029   -44270.269    55.704979   0.94523223 
   92700    211.89158    299.95574    132175.22   -41592.979    2636.3341   -44229.313    55.625586   0.94490851 
   92800    209.28364    192.62003    132057.12   -41643.937    2603.8863   -44247.823    55.517663   0.94575358 
   92900    214.96395    375.53598    132044.55   -41615.554    2674.5602   -44290.115    55.516716   0.94584359 
   93000    212.90111     323.3314    132095.83   -41647.575    2648.8945    -44296.47    55.464087   0.94547644 
   93100    210.94368    192.81446    132162.48   -41589.519    2624.5404    -44214.06    55.660063   0.94499962 
   93200    212.67536    187.46355    132098.18   -41615.178    2646.0858   -44261.264    55.733972    0.9454596 
   93300    210.17921    135.32836    132116.33   -41648.064    2615.0289   -44263.093    55.597167   0.94532973 
   93400    208.60349    207.07797    132044.98   -41679.259     2595.424   -44274.683    55.857945   0.94584051 
   93500    207.53591    253.42251     132028.8   -41710.668    2582.1412    -44292.81    55.735326    0.9459564 
   93600    207.32896    239.48473    131942.96   -41779.796    2579.5664   -44359.362    55.772939   0.94657187 
   93700    208.19117    180.72062    131935.41   -41746.151     2590.294   -44336.445    55.949571   0.94662604 
   93800    210.80957    184.76354    131810.65     -41711.3    2622.8718   -44334.172    55.954168   0.94752197 
   93900     209.7932    143.29799    131830.22   -41691.525    2610.2262   -44301.752    55.750456   0.94738135 
   94000    212.14126    316.72887    131995.31    -41704.32    2639.4406   -44343.761    55.757498   0.94619646 
   94100    207.66609    272.63639    132063.94   -41705.155    2583.7609   -44288.916    55.672614   0.94570474 
   94200    207.60577    164.92609    131939.95   -41709.047    2583.0105   -44292.058    55.984972   0.94659347 
   94300    208.91098    324.04285    131639.56   -41649.988    2599.2498   -44249.238    55.668697    0.9487535 
   94400    211.42325    285.21323    132025.31   -41630.136    2630.5072   -44260.643     55.71859   0.94598141 
   94500    213.93437    196.18856    131854.47   -41577.819    2661.7503    -44239.57    55.667405   0.94720713 
   94600    212.25458    357.17818    132050.07   -41624.354    2640.8505   -44265.205     56.06112   0.94580408 
   94700     209.4166    116.37251    131898.45   -41665.826    2605.5407   -44271.367    55.893229   0.94689129 
   94800    213.37711    262.75077    131922.46   -41661.453    2654.8169    -44316.27     55.96496   0.94671892 
   94900     212.4227    231.00339    132017.12   -41627.037    2642.9422    -44269.98    55.906645   0.94604013 
   95000    208.38482    335.91888    132041.81   -41603.225    2592.7034   -44195.928    56.003317   0.94586323 
   95100    213.40411    215.97371    132056.23   -41601.876    2655.1528   -44257.029      55.7854   0.94575992 
   95200    212.76753    226.72124    132044.04   -41624.322    2647.2326   -44271.554    55.803899   0.94584727 
   95300    216.04128    180.02779    132135.37   -41543.254    2687.9642   -44231.218    55.904693    0.9451935 
   95400    212.18551     284.9124    132087.62    -41602.97    2639.9912   -44242.961    56.147988   0.94553514 
   95500    209.56221      185.614    131881.68    -41615.34    2607.3524   -44222.692    55.994999    0.9470117 
   95600    210.94986     362.5471    131807.33     -41606.2    2624.6173   -44230.817    55.799734    0.9475459 
   95700    212.01956    141.53293    131786.87   -41664.248    2637.9264   -44302.175    55.887909   0.94769299 
   95800    208.55989    239.67486    131682.38   -41708.123    2594.8815   -44303.005    55.880538   0.94844495 
   95900    212.22378    89.897046    131657.78    -41655.19    2640.4673   -44295.657    55.887873   0.94862216 
   96000    207.02006     349.6238    131657.57   -41726.967    2575.7231    -44302.69    56.051272   0.94862372 
   96100    205.37956     36.86133    131721.26   -41683.282    2555.3122   -44238.594    56.055112   0.94816502 
   96200    204.34951    328.06442    131714.19   -41715.079    2542.4965   -44257.576    55.980559   0.94821594 
   96300    210.49065    266.44872    131777.38   -41656.177    2618.9038   -44275.081    56.100405   0.94776121 
   96400    212.17678    296.91514    131705.75   -41639.769    2639.8825   -44279.651    56.238091   0.94827665 
   96500    207.72669    281.98964    131639.44   -41677.043    2584.5149   -44261.558     56.23161   0.94875432 
   96600    207.63123    310.16109    131724.33    -41668.62    2583.3272   -44251.947    56.186595   0.94814293 
   96700    209.02353    199.43067    131697.85   -41738.596    2600.6501   -44339.246     56.13389   0.94833355 
   96800    206.33283    315.74248    131775.27   -41788.724    2567.1727   -44355.896    56.277597   0.94777643 
   96900    202.28147    97.846419    131858.28   -41715.877    2516.7661   -44232.643    56.322798   0.94717971 
   97000    204.02418    308.98062    131752.01   -41711.715    2538.4487   -44250.164    56.239067   0.94794374 
   97100     205.4278    229.35867    131718.08   -41704.078    2555.9124    -44259.99    56.197558   0.94818793 
   97200    205.75147    203.32324     131762.6   -41709.411    2559.9395   -44269.351    56.290732   0.94786752 
   97300     211.8415     231.2693    131635.82   -41705.925     2635.711   -44341.636    56.060318   0.94878045 
   97400    205.54556    294.72462    131700.08   -41706.321    2557.3775   -44263.699    56.329115   0.94831752 
   97500    212.38342     256.0458    131794.17    -41614.94    2642.4535   -44257.393    56.414932   0.94764048 
   97600    207.90579    78.933735    131788.33   -41672.076    2586.7433   -44258.819     56.57037   0.94768247 
   97700    211.76366    212.71719    131790.94    -41613.11    2634.7425   -44247.853    56.536367   0.94766374 
   97800    214.24026       155.96    131801.79   -41601.085    2665.5562   -44266.641    56.562711   0.94758571 
   97900    214.96053    324.81935    131750.42   -41555.322    2674.5177   -44229.839    56.483736   0.94795519 
   98000    214.53301    242.16656       131934   -41587.848    2669.1984   -44257.046    56.534215   0.94663616 
   98100    211.13005    259.78387    131835.13   -41663.939    2626.8592   -44290.798    56.652607   0.94734607 
   98200    213.32951    359.82746    131883.81   -41632.791    2654.2247   -44287.016    56.679104   0.94699639 
   98300    206.56932      280.394    131863.95   -41654.588    2570.1151   -44224.703    56.659142   0.94713898 
   98400     211.4733    197.46797    131832.05   -41665.989    2631.1299   -44297.119    56.613711   0.94736819 
   98500    206.56991    166.86357    131787.47   -41657.538    2570.1224    -44227.66    56.632413   0.94768869 
   98600    207.33518    300.82492    131783.31   -41689.476    2579.6438    -44269.12    56.604357    0.9477186 
   98700    208.20976     167.2392    131759.72    -41738.69    2590.5253   -44329.216     56.67685   0.94788825 
   98800    208.05438    168.41435    131699.97   -41701.625     2588.592   -44290.217    56.678891   0.94831832 
   98900    203.34818    282.90623    131694.63   -41697.061     2530.038   -44227.099    56.803693   0.94835676 
   99000    202.59467    231.56552    131809.59   -41731.857    2520.6628    -44252.52    56.925548   0.94752966 
   99100    208.98996    201.24275    131895.02   -41655.316    2600.2325   -44255.549    56.880341   0.94691588 
   99200    207.70702    299.61845    131932.23   -41660.532    2584.2702   -44244.802    56.934495   0.94664881 
   99300    207.50539     283.1505    131853.09   -41624.925    2581.7616   -44206.686     57.03508   0.94721699 
   99400    209.55211    358.43183    131815.95   -41589.744    2607.2266   -44196.971    56.946072   0.94748391 
   99500    212.96654    146.31385    131749.61   -41472.428    2649.7086   -44122.137    57.249238   0.94796102 
   99600    210.89102    276.76097    131666.08   -41490.051    2623.8852   -44113.936    57.260185   0.94856241 
   99700    215.06932    293.66724    131695.59    -41500.81    2675.8712   -44176.681    56.991272   0.94834986 
   99800    212.91402    326.19602    131603.45   -41524.003    2649.0552   -44173.059    56.884113   0.94901379 
   99900    210.44169    275.63541    131718.24   -41576.376    2618.2947   -44194.671    57.373945   0.94818677 
  100000    215.35762    207.85106    131708.27   -41583.144    2679.4583   -44262.603    57.343801   0.94825851 
  100100    211.00982    389.61622    131744.02    -41519.77    2625.3634   -44145.133     57.39772   0.94800119 
  100200    212.87086    200.02574     131850.5   -41531.419    2648.5182   -44179.937    57.439194   0.94723566 
  100300    215.19937    249.74909    131739.43   -41523.298    2677.4893   -44200.787    57.325863   0.94803422 
  100400    209.48133    240.18722    131776.14   -41560.502     2606.346   -44166.848    57.469552   0.94777014 
  100500    214.30902    315.84959    131898.63   -41486.793    2666.4117   -44153.205    57.553054   0.94688998 
  100600    210.99662    211.48843    131964.06   -41566.468    2625.1991   -44191.667    57.651679    0.9464205 
  100630    210.03561    275.37521    131981.41   -41549.101    2613.2423   -44162.344    57.778012   0.94629609 
Loop time of 79.6914 on 6 procs for 100000 steps with 4175 atoms

Performance: 542.091 ns/day, 0.044 hours/ns, 1254.840 timesteps/s
98.6% CPU use with 6 MPI tasks x no OpenMP threads

MPI task timing breakdown:
Section |  min time  |  avg time  |  max time  |%varavg| %total
---------------------------------------------------------------
Pair    | 60.247     | 63.302     | 68.04      |  30.0 | 79.43
Neigh   | 4.8222     | 4.8594     | 4.9341     |   1.7 |  6.10
Comm    | 4.1754     | 8.9693     | 12.024     |  80.5 | 11.26
Output  | 0.16105    | 0.16185    | 0.16545    |   0.4 |  0.20
Modify  | 1.7437     | 1.7812     | 1.8145     |   1.9 |  2.24
Other   |            | 0.6172     |            |       |  0.77

Nlocal:        695.833 ave         709 max         685 min
Histogram: 1 0 2 0 0 1 1 0 0 1
Nghost:        1467.17 ave        1482 max        1436 min
Histogram: 1 0 0 0 0 0 1 2 0 2
Neighs:        0.00000 ave           0 max           0 min
Histogram: 6 0 0 0 0 0 0 0 0 0
FullNghs:      19204.7 ave       19612 max       18797 min
Histogram: 1 1 0 1 0 1 0 0 0 2

Total # of neighbors = 115228
Ave neighs/atom = 27.599521
Neighbor list builds = 5215
Dangerous builds = 0

undump              1
unfix               2
unfix               3
unfix               4


################################################
#######         Run Simulation         #########
################################################

reset_timestep      0
log                 log.run_${NAME}
log                 log.run_liquid_density_MLmW
