LAMMPS data file via write_data, version 29 Oct 2020, timestep = 800000

4175 atoms
1 atom types

-0.5903936672823207 50.590393667286236 xlo xhi
-0.5903936672823207 50.590393667286236 ylo yhi
-0.5903936672823207 50.590393667286236 zlo zhi

Masses

1 18.015

Atoms # atomic

4056 1 1.786436504105748 2.1065148778712675 1.6007123751855468 0 1 1
190 1 -0.3254641158298001 0.3684529759260716 0.8877265256090952 1 0 0
1306 1 4.214263059640922 1.8955741896173675 0.46339931643686993 1 0 1
280 1 6.461504026161647 1.3462434133386412 2.2013047511530854 0 0 0
216 1 12.601194028537199 1.3892299699309398 1.2634697359434814 0 0 0
86 1 28.095925383337597 24.602931407298573 15.446154444052794 0 0 0
2031 1 18.040854325086485 1.447312444720097 1.3711775796499817 0 0 1
1405 1 20.470954493040193 0.9877525529822022 0.5918491666000474 0 0 1
2782 1 22.13098646075139 1.4916731728526282 2.5695707075638063 0 1 0
258 1 24.560009878413165 0.9729073763797185 1.6248151182103108 0 0 0
1914 1 34.71125636302784 2.415675470389255 1.2709540280407168 0 0 1
4077 1 35.63047475906714 -0.32279172925479344 0.7298017971670512 0 1 1
3514 1 40.85861756387731 2.211129209883569 1.3472123536102578 0 1 1
199 1 47.56581390234353 22.743595851657957 14.724795905471742 0 0 0
663 1 46.34229256510016 0.16378342970427018 1.7912192765204469 0 0 0
409 1 12.07635323213468 0.21139532527011784 9.64946047998188 0 0 0
2814 1 48.90760818906103 0.9065337497487336 2.8592402953146125 0 1 0
2718 1 0.7563156085168103 4.441424956807437 0.20481243239585722 0 1 0
2360 1 49.983792517929984 -0.32166943946468857 5.274291772134317 0 1 0
1782 1 8.695731618968344 2.8252131837798142 2.7837132037618133 0 0 1
2005 1 10.553212423124146 2.9876749727445926 0.7389561443311321 0 0 1
1693 1 29.203003196048783 23.944269688389845 1.0023526455416136 0 0 1
2217 1 30.15682080459456 24.51653478874018 10.852499781799205 0 0 0
1670 1 14.689385156754803 5.070086068620683 2.5740810148020277 0 0 1
107 1 17.27817769805695 3.941781674822325 1.5697428041455703 0 0 0
2079 1 22.49914801206576 4.776899909684025 0.12620401609601672 0 0 1
3569 1 25.237518591239276 4.819608974778838 0.15569203021431532 0 1 1
1476 1 26.17394992450881 3.142411052129822 2.1499061809726787 0 0 1
434 1 28.609190443257344 2.02731863303316 1.7054753398850688 0 0 0
3650 1 31.253897065559787 4.85397670468477 0.37049900874932507 0 1 1
164 1 36.77934334249136 4.057080097680274 2.1892195564539865 0 0 0
422 1 12.661254290239457 14.006570845589593 -0.543570896976206 0 0 0
1851 1 43.34178674369794 3.376670486451997 1.83676283527678 0 0 1
1002 1 36.79060343786776 24.73771063235396 3.357207892358559 0 0 0
665 1 47.543424209248286 5.033352790810417 1.0139316672230327 0 0 0
134 1 0.4360819538873131 6.383844594249647 2.2190806651446793 0 0 0
403 1 -0.47937500837358954 8.537301197978673 0.7305989878631358 1 0 0
3679 1 5.372694336050765 6.112127167959455 1.643535847662588 0 1 1
440 1 5.966034526132481 8.722386614578243 0.9560053375346538 0 0 0
1783 1 10.495707280493335 7.953514371392425 0.9472788791488129 0 0 1
18 1 12.642947113786727 9.209752423548167 1.2513872917016995 0 0 0
1699 1 16.818698002191063 8.842560273464017 2.8540677832184915 0 0 1
668 1 17.389135229104586 8.362574910249704 0.09319776936969404 0 0 0
2147 1 39.71073816219331 -0.5869617637264605 6.511327412545668 0 1 0
1747 1 26.2856448628984 7.271420611478619 0.7759920187184426 0 0 1
581 1 32.35702863824288 7.426492359735642 1.0327035031965919 0 0 0
425 1 38.64697408762886 7.721519269305034 0.5970144707412441 0 0 0
511 1 40.164603818388336 8.045165626731917 2.825809420754839 0 0 0
462 1 42.88130769915656 7.861674294349443 2.7343786265507295 0 0 0
1778 1 47.89078393753103 7.735538270733734 0.5980320817824321 -1 0 1
1579 1 -0.5575924197470954 11.26906630429406 1.3244046958410294 0 0 1
473 1 4.504396805004705 11.653474154765998 0.8514273166141297 0 0 0
2762 1 8.587043871667966 12.095427860504675 0.18744418666258 0 0 0
2720 1 8.456308691183288 9.36771232304917 -0.1515670296260619 1 1 0
427 1 21.773290755410155 9.273219823729184 0.9646404616713469 0 0 0
303 1 20.97009037725145 11.664034893805132 0.09799042051501294 0 0 0
2410 1 24.295034794156265 9.36133480790273 0.9125771396751392 0 0 0
2208 1 30.77482692625915 9.618222080065042 0.6775174742836829 0 0 0
1978 1 32.46513792121154 11.623045325598088 1.5149388775961286 0 0 1
1739 1 35.3587140114946 9.151350593177579 3.2358223428170136 0 0 1
646 1 33.89287484309239 11.495310349663905 3.917432950592266 0 0 0
1997 1 36.144808756105164 9.022965107057217 0.3323243643605508 0 0 1
1733 1 43.55879165886728 8.584842855248905 0.0755274318961422 0 0 1
2179 1 34.40141443524061 24.62016185963963 10.67930166784325 0 0 0
3919 1 1.919223595035385 12.051336637958993 2.173247244331017 0 0 1
154 1 1.712560925924763 14.777788849686047 2.848413604455667 0 0 0
1492 1 6.810491755845025 13.336724811584437 1.5547658017340904 1 0 1
1504 1 10.783123629613463 12.99223753728994 1.1636407914449445 0 0 1
2052 1 10.893357857656502 15.901598117856931 1.8216626935009432 0 0 1
1413 1 16.765052964413876 12.651978287984122 0.5688190023715116 0 0 1
528 1 17.409568008352753 15.422813524342658 0.9866034929170548 0 0 0
531 1 23.638650776134018 14.808377772674925 -0.35155220244265517 0 0 0
1856 1 23.685321855370308 13.709010559200594 2.1567429396164104 0 0 1
737 1 9.742110512216154 20.161799921120426 16.326658394718887 0 0 0
1652 1 30.260141650722673 13.552264647531368 0.8692447417159268 0 0 1
3096 1 37.9675188143365 13.692496987458695 0.20534975931246846 0 0 0
1768 1 37.347761068324836 14.861602510326072 2.5873025903703954 0 0 1
23 1 40.45196674322008 12.108182194066382 0.7076230259852538 0 0 0
536 1 42.052919730592926 14.092137572533694 1.9643167714128862 0 0 0
284 1 46.057172078605305 12.388996272297362 1.4098300988621886 -1 0 0
357 1 47.190424401367 14.898737918315184 1.4353309573923196 0 0 0
2286 1 12.375751664471078 4.4971158825539295 15.982144529676123 0 1 0
1809 1 0.302976337864195 16.544307171070663 0.9321861323210183 1 0 1
2054 1 6.6040801541173755 16.11417790817088 1.3579524987428635 0 0 1
2551 1 8.911080935852143 17.566742822166308 0.8587739827693026 0 0 0
1599 1 13.357555493067354 16.28334664971681 0.8949449353394112 0 0 1
919 1 15.46979996427972 16.47089834497666 2.7766723590874554 0 0 0
1382 1 21.086366904919732 17.560596171776936 2.0812044858383243 0 0 0
3319 1 43.96311368293042 -0.08157022319035578 13.306777570180133 0 1 0
2504 1 26.9993534007276 16.959479567259013 1.926295947594641 0 0 0
443 1 29.714225824232443 17.867540905550353 1.9308034210855185 0 0 0
2058 1 31.343127023729974 15.580934901312649 2.697087901252064 0 0 1
1710 1 33.922368809196875 15.97382766493751 1.5425960896098778 0 0 1
56 1 34.918565945324374 18.482119685059125 1.997058328560986 0 0 0
1934 1 37.67816394571591 17.464037883295855 1.7052594598128845 0 0 1
148 1 49.21143730605038 3.866075712696138 -0.5818511330855971 0 0 0
1938 1 42.74067449613937 15.975242336783658 0.1440127954213536 0 0 1
1899 1 45.16822681513609 16.73964036808975 1.3859724185102333 0 0 1
1759 1 1.0297970861123906 19.502142176224556 0.8318654298589054 0 0 1
601 1 4.678372970153816 21.61948735971768 1.7980373755048369 0 0 0
2672 1 9.101388818953343 20.079285465665663 2.098953876350899 1 0 0
607 1 9.739649030935613 21.737467953258644 0.15435143838070886 0 0 0
1811 1 15.707686246984576 19.131644041414116 2.1696883832941163 0 0 1
3635 1 28.7127916943584 19.252448435555415 -0.3977293779380139 0 0 1
1925 1 20.387638238479457 20.077725037489085 2.5168529890745908 0 0 1
2461 1 25.171250765445656 18.69199650557488 2.0933115570656695 0 0 0
563 1 26.189891885146903 21.133873230584754 2.7556551601759955 0 0 0
1187 1 34.09064861940506 24.29815716753926 13.56047754065075 0 0 0
2443 1 32.60423651127608 20.98830507689777 2.0289714990391774 0 1 0
2174 1 25.26290243758714 -0.38062764313093633 6.261599201462379 0 1 0
168 1 35.8942517299755 21.5609647148297 -0.16831824382815225 0 0 0
317 1 9.354863310070371 24.555276757580028 5.995985944506355 0 0 0
2246 1 49.56026951911725 18.711105495667514 2.0331054810418507 0 0 0
490 1 47.41926773446925 20.44294001220686 1.3047282513605816 0 0 0
2019 1 0.19397932837960552 22.061752814136963 0.42839841679019175 0 0 1
4147 1 3.4679358908487155 23.947389241327002 1.284126898711743 0 0 1
2089 1 10.361160754521922 23.86842777786245 1.5769758078298115 0 0 1
618 1 13.016081507240864 23.38451835847122 2.436140966232974 0 0 0
2066 1 14.74398498827125 23.50705001923577 0.6342195776418267 0 0 1
1641 1 17.02430747737308 21.932044011247026 1.4425879356205429 0 0 1
277 1 28.576732164061017 22.09807961701209 14.4948652482217 0 0 0
3931 1 20.847040497596534 22.221545212096142 0.910593568389372 0 0 1
69 1 42.042477966716596 -0.37185047103538893 1.6609714420904065 0 0 0
2143 1 27.508168945646702 21.689334043302207 0.2665189750690239 0 0 0
361 1 38.30341329702779 24.794236660179955 5.562501764949971 0 0 0
2321 1 31.889112941750483 23.582141787515457 0.9628831960051976 0 0 0
2116 1 48.67189763902906 22.357477451986473 -0.3329696925882228 -1 0 0
1726 1 36.6160670784811 22.260499758380554 2.712885813558344 0 0 1
2530 1 39.731374353961 21.431101695962813 1.4971676908750147 0 0 0
2626 1 39.73784293959817 24.159579027883872 2.3715400187734703 0 0 0
2118 1 42.136459311011386 22.25738188070139 0.0641231285876771 0 0 0
1442 1 43.80118506135137 22.81700779840777 2.178653080078634 0 0 1
515 1 45.228511398999935 21.869736281711603 16.13908318163962 0 0 0
853 1 50.52587715796191 18.84815141110184 15.904478970762955 -1 0 0
2098 1 11.086593883885776 5.601954795010921 -0.37728031721641 0 0 1
68 1 1.2030314845245493 1.439919164762511 6.223383802492466 1 0 0
259 1 2.6587396984291987 2.332030303193832 4.354094016775875 1 0 0
2447 1 5.280350352914073 1.4009886149251398 4.747054561050798 0 1 0
419 1 38.000883237893845 5.0622660988448205 -0.08516911214049905 0 0 0
2496 1 9.030734943119604 2.213532069397265 5.561721706812516 0 1 0
484 1 14.296555709924949 1.0853055355463976 3.6268892325834576 0 0 0
554 1 16.894457229012875 0.1425951167413012 3.3254024139880336 0 0 0
4097 1 18.490891049568905 0.8293082358825485 5.134846119492734 0 1 1
2844 1 20.943926145307078 0.041602710728454007 4.614478415156558 0 1 0
1354 1 34.39691286177477 10.213261136662753 16.088334965645316 0 0 0
67 1 29.804168303150487 0.8075810122794773 5.6978645245102655 0 0 0
185 1 29.92850558587693 -0.12553589919113534 3.0078035975274817 0 0 0
1994 1 47.84841720052312 24.5545704984317 1.0770427011869284 0 0 1
1827 1 33.669699169594644 1.3983979940179154 3.7434307565569656 0 0 1
121 1 35.896733924447496 1.3450449657901629 5.481265016730183 0 0 0
654 1 38.587447356083814 0.23244053425003064 4.226001620643648 0 0 0
553 1 38.78385956559838 2.6229978620823977 3.1527185714164 0 0 0
2272 1 43.45422469111322 22.070899000356356 14.206744420558193 0 0 0
267 1 44.52815916934459 1.5555648978952257 3.4187276789790895 0 0 0
3481 1 8.88305856859332 24.875417870947565 15.766150630950484 1 0 0
289 1 3.018291299045969 5.1168575310023074 5.25625452328762 0 0 0
2725 1 6.791981931694797 3.2470265245888736 6.467481490484906 0 1 0
150 1 7.873119840994001 5.407161223595274 3.2347180630919192 0 0 0
2003 1 5.908585265705177 5.537390876893503 5.41319884093435 0 0 1
495 1 11.609236352769322 3.702406462543088 6.132640042691583 0 0 0
22 1 14.147354916834262 3.7439937357700845 4.860575817094966 0 0 0
670 1 19.01357540154765 4.728374313908608 3.5137365094497213 0 0 0
3946 1 18.528569243783796 3.3854817261987535 5.781566105932436 0 1 1
13 1 21.708086988819428 4.159234118138952 2.9186936255148015 0 0 0
445 1 23.641326154740085 4.96093874761142 4.896606946315586 0 0 0
705 1 26.278690716781444 4.047200122860897 4.809693323611511 0 0 0
192 1 28.495588616033444 5.630901582327981 4.565862697562479 0 0 0
269 1 29.99033397058071 4.103011834815485 2.8353833549390264 0 0 0
444 1 32.009257851727476 3.4517226276617006 4.33698690212516 0 0 0
430 1 33.76557368956623 5.2959997129194045 5.271244873055585 0 0 0
96 1 36.34457808623157 3.954080623841051 6.293844466372431 0 0 0
420 1 40.02117533915782 4.292813833254603 4.986724834806312 0 0 0
1592 1 42.55134718160488 5.185479311857894 3.733679313685135 0 0 1
380 1 46.10307397013794 3.204686021837795 5.174592620072925 -1 0 0
360 1 45.00705491187875 5.6706280776229825 5.779818289617869 0 0 0
479 1 50.41604511156636 5.1850237244369906 4.257637378238889 -1 0 0
2439 1 48.1813760216313 3.572544907872248 3.5089407242215858 -1 1 0
578 1 3.1917614414104762 6.800923645624788 3.1742515248767647 0 0 0
1536 1 3.540509462729993 8.844492079567514 4.945724405896281 0 0 1
1945 1 9.825268514313832 7.463113366662487 3.546565392088951 0 0 1
731 1 11.224251076221535 6.663243866303686 5.637754154856961 0 0 0
1607 1 13.473784346767687 7.945699822981272 5.50399544515711 0 0 1
2315 1 14.424945066825627 7.663235014829237 2.7373087024385123 0 1 0
1483 1 18.600861911281722 7.3987053388828095 4.034102479995758 0 0 1
1485 1 20.97734234918293 8.718102346267495 3.6544982236094015 0 0 1
350 1 23.0195777291259 7.613951187075086 5.182803161785211 0 0 0
239 1 25.767592263805106 8.422984256902593 5.178589278640825 0 0 0
1729 1 27.55735699099866 7.861251044711411 3.278420303279618 0 0 1
2099 1 33.19983673985997 7.599944871629729 3.824305133782481 0 0 1
75 1 36.316706778826784 6.2423107703108665 3.9118555416914385 0 0 0
456 1 38.78822668673806 6.9217467751900275 5.108239923319297 0 0 0
257 1 44.894744072426406 8.280454189824855 4.733540984894695 -1 0 0
575 1 47.28030795586916 8.501313242230873 3.4268711623138834 0 0 0
447 1 49.41926621881405 7.459457280911154 5.31049157187507 -1 0 0
634 1 2.1112684313276655 11.135887963996955 4.879216183833206 0 0 0
564 1 5.662825961302348 9.882453685927757 3.4275385909953986 0 0 0
1886 1 8.000721258714394 9.102514256600479 4.877046493490013 0 0 1
556 1 9.902269188333106 11.169102537815967 4.752723736404855 0 0 0
1173 1 11.848397641578705 11.214638750916107 2.847142567909884 0 0 0
1950 1 14.111089122503243 12.356942680258769 4.422123869730864 0 0 1
143 1 16.586212871546618 11.6495217287566 3.586740196137945 0 0 0
561 1 18.290029743657083 12.196013373287613 5.62229248907027 0 0 0
49 1 20.75245755130003 11.59239538052177 4.778829122971749 0 0 0
106 1 25.313585583891097 11.469259415278508 2.7077852785180188 0 0 0
42 1 25.002601297323576 10.94554369997269 5.56415940083919 0 0 0
1833 1 29.597216803780263 9.771121812660809 3.089136553957075 0 0 1
11 1 28.028304918961272 12.149890283022911 2.4788163479405916 0 0 0
1429 1 31.43468649921399 9.364495576019028 4.9046404647437525 0 0 1
1664 1 31.755044647279355 12.08846390393389 5.7246768775047885 0 0 1
271 1 36.861460123444026 9.113934388536954 5.392230218082424 0 0 0
50 1 38.606961289157965 11.203435751783159 5.147291542832785 0 0 0
609 1 40.38115160938177 10.6163048303583 3.282720413319189 0 0 0
2037 1 42.865400396964674 10.591020416171556 4.317460236046742 0 0 1
1567 1 48.22351406493417 11.131923630300658 2.7002591229341224 0 0 1
388 1 49.08318760120909 12.233260973769632 5.15951350866883 0 0 0
590 1 3.978552783809925 13.101158219198759 5.769957773825527 0 0 0
178 1 6.233447329156632 11.894552105137496 5.526373161699945 0 0 0
309 1 8.137254693204365 13.176978087592396 4.1057563357448865 0 0 0
78 1 14.678801135343154 14.906494563344976 5.18572994866437 0 0 0
662 1 21.090321435683347 13.282587414935207 2.4526370279374734 0 0 0
370 1 24.434357729147813 14.967145727282283 4.770521819670389 0 0 0
691 1 28.420995444252636 13.432865933279274 4.9503519462555285 0 0 0
382 1 30.763471829815373 14.86939198249852 5.297070474434744 0 0 0
253 1 34.97460011542164 14.076049065608384 3.484049787721129 0 0 0
463 1 34.90681049586165 15.179067458468847 6.005265352698165 0 0 0
128 1 38.66804197437053 14.302740486328423 4.681262007623768 0 0 0
1647 1 44.03313119404588 12.697433810207187 3.059679276996907 0 0 1
71 1 45.23933334734737 14.116245650088825 5.29680791570928 0 0 0
1561 1 50.48429718653743 14.623727627516415 4.192952806906054 0 0 1
2669 1 3.6127591343088943 15.774784550178154 4.581759435367906 1 0 0
1412 1 4.767886456216552 17.44672766993988 2.8616423582806845 1 0 1
2376 1 6.423635246059809 17.684788440220288 5.002121533833887 0 0 0
1855 1 8.426606365064712 15.640268707408172 5.453871824572274 0 0 1
2432 1 10.580539156242189 16.712170644340546 4.256098495004493 0 0 0
1769 1 12.93120169808062 16.723099004373946 6.034059995448887 0 0 1
1640 1 19.702802252093296 15.485056079238912 2.384535302026796 0 0 1
230 1 18.897981757864006 16.5357336669586 4.990825954711435 0 0 0
2015 1 23.262213643245495 17.28086420896263 3.6319844756953215 0 0 1
279 1 27.196330636724362 15.863658986843102 4.387951933987779 0 0 0
8 1 41.40774053604478 14.973935802515921 4.48442184408442 0 0 0
263 1 42.12207773917275 17.88364841670632 4.477029898116434 -1 0 0
37 1 44.84370405814554 18.407534077752615 3.841830103887581 0 0 0
517 1 46.53926648463304 17.035056300679607 5.357523520613187 -1 0 0
320 1 48.39208428671686 16.329654056118557 3.334370967353543 0 0 0
500 1 1.6040651098893286 19.680782544502165 5.115311867575125 1 0 0
709 1 2.9832753376193817 19.514642760375995 2.666470436409629 0 0 0
234 1 7.0448604634844925 21.819898186012516 3.054830492358825 0 0 0
2139 1 7.194754026368103 20.32510309508216 5.313234962583001 1 0 0
566 1 10.943219821463671 19.535290538311564 3.9571944555871097 0 0 0
1533 1 13.477689979848785 20.72755881753227 3.4176010539360417 0 0 1
558 1 14.614540699343976 20.767124626555532 5.914020289496383 0 0 0
1858 1 17.888435048924812 19.46895813178692 3.8914826278454937 0 0 1
2112 1 21.62131634951955 21.409400262608457 4.468858770325831 0 0 0
687 1 22.768911456780614 19.033243394086433 5.712092873139875 0 0 0
2585 1 28.55783506600236 21.665442959798813 4.330124995224838 0 0 0
177 1 30.636733626338252 19.92735318792152 3.433915150268434 0 0 0
2472 1 32.02181614379513 19.122379600828516 5.771877468501678 0 0 0
1807 1 34.768906466278644 18.77942936413441 5.064829982918366 0 0 1
2937 1 37.53984576678316 20.010801360002333 4.750423800170879 0 0 0
587 1 39.71332938067149 19.08931419392645 3.22574247091337 0 0 0
594 1 45.66550933673177 21.123249966504527 3.2864482506843506 0 0 0
2622 1 50.24997068549273 20.41760964507424 4.1518743185128955 -1 0 0
2056 1 48.55786790327353 20.855537711879244 6.481044520910403 0 0 1
2354 1 2.0733528695001002 23.693058995862263 6.280825198919415 1 0 0
3853 1 -0.4791360184437891 22.818803404319073 3.0725107072203586 0 0 1
878 1 1.7497158832316786 24.50165485331235 3.3733250564879187 0 0 1
429 1 8.245648968846753 24.21828110094122 3.495924238530997 0 0 0
1956 1 49.49279861423847 15.186716582610856 -0.04909386772683444 -1 0 1
999 1 18.65406493772537 23.972331252873346 3.029472658150318 0 0 0
3593 1 19.500229153458438 22.81756289874453 5.23605929913202 0 0 1
786 1 23.95174677421812 22.80751426463349 3.310512070103079 0 0 0
170 1 25.01189731525432 24.31347059165828 5.357556984506908 0 0 0
512 1 27.583727160668854 24.320115489824165 4.70955992101843 0 0 0
4005 1 34.26603986413845 21.32773589439855 4.023015518972842 0 0 1
1029 1 18.070088988960517 24.633011225517055 13.62369829134877 0 0 0
339 1 42.32745909593842 24.32682237116264 3.574524969039606 0 0 0
559 1 42.295623284869244 23.866026734099474 6.211184722515826 0 0 0
608 1 46.906851728859415 22.82166540174749 5.237030016983798 0 0 0
4157 1 48.66117308102058 24.42913083227019 3.722922639232639 -1 0 1
637 1 45.100497743975126 4.6533452028758395 -0.09399601257611223 0 0 0
70 1 7.030182256213164 2.3332858212243135 9.054517402882057 0 0 0
1742 1 13.726876408445191 4.968394614035726 -0.10794842497230372 0 0 1
722 1 33.09530723917977 0.22950983811244707 16.20046506040635 0 0 0
404 1 27.615347618198143 5.723236023139153 16.215380761437366 0 0 0
265 1 22.755099544333415 0.18479234672144929 7.138430409858125 0 0 0
2182 1 27.137206733112542 1.5791107259439854 6.001968311946822 0 1 0
620 1 34.99804890252537 -0.02318060296604052 7.896235578936347 0 0 0
593 1 33.03861048070953 2.1173698079242875 8.765797859437605 0 0 0
1257 1 16.288427830511164 21.346796408988062 16.0191939290145 0 0 0
4012 1 15.63288171063456 18.920830352934885 -0.5740854355218196 0 0 1
2630 1 39.169236987031546 0.8377331051070751 10.138782194234548 0 1 0
2525 1 41.89997091839944 1.1868421753939473 6.5936771831867675 0 1 0
1334 1 43.50137177365269 0.2427355544576093 8.87262971347676 0 0 0
256 1 47.47463236128545 2.107835167191302 7.427886447671934 0 0 0
464 1 45.719679072634136 1.7866461002632361 9.513151421533546 0 0 0
2748 1 21.733829782755937 0.2870696784160488 9.952850410710612 0 1 0
3091 1 49.45088885356956 1.7106943816602236 10.322706760581417 -1 1 0
226 1 0.15444836433957543 4.059525634839275 6.657815420632957 1 0 0
2300 1 11.905288153323918 3.8869906380166404 8.714227025627274 0 1 0
630 1 16.041208156482302 3.381357073462842 9.00117725578019 0 0 0
109 1 16.06564114419335 4.519271188624048 6.555176533864789 0 0 0
3914 1 20.30192656835478 3.672303487198377 7.775505023047295 0 1 1
1122 1 22.69757096519907 3.0058617558523375 6.7100209031949944 0 0 0
355 1 24.922167902814763 6.255384344658604 9.605265938479231 0 0 0
2481 1 27.36743567518505 2.639587548878277 8.354318658445306 0 1 0
2578 1 29.655617679569755 4.364788038514043 8.740416222407724 0 1 0
354 1 31.235429943221995 2.611217444551043 6.957887419391907 0 0 0
202 1 37.01819285059743 4.719263110815679 8.822805489827315 0 0 0
948 1 39.50642378304883 3.4734193051586884 9.45907309690564 0 0 0
241 1 41.079421681096065 3.6334240390040664 7.375642771468597 0 0 0
313 1 43.11157495720508 5.5214846467216105 7.827167947285 0 0 0
64 1 44.620486616915514 4.1890395282335255 9.690397201223398 0 0 0
475 1 49.245952122936 4.174299572817941 8.490298158312916 0 0 0
323 1 2.0675777952754726 6.229959999152915 7.789636093483066 0 0 0
222 1 -0.01639456014102325 8.206091621100757 7.324242693910803 1 0 0
221 1 4.097116392815851 8.331426414794631 7.761015598644192 0 0 0
1052 1 6.7776248328810915 7.609369486174387 7.123586649084338 0 0 0
118 1 9.665856125756202 7.620101057856305 8.067859589762088 0 0 0
1262 1 15.625124983928302 7.025511251774728 7.18237479119744 0 0 0
483 1 18.102912512725243 7.592832223719393 6.849627420898098 0 0 0
133 1 20.01209115553657 6.229129555217247 8.355200769328277 0 0 0
115 1 22.648685967947404 7.663208022264781 7.970028057567511 0 0 0
363 1 26.72963116848124 7.617751259906225 7.909666874777232 0 0 0
682 1 29.02641822277465 6.424276912358276 7.069346807954308 0 0 0
677 1 31.05201813846617 7.937590281149646 7.214351067369328 0 0 0
255 1 33.28209404163387 6.525732893645658 7.711893800051307 0 0 0
291 1 35.22703515761818 8.503431646775203 7.815987646262357 0 0 0
488 1 37.73221096251089 7.622485977151506 8.913110838682476 0 0 0
472 1 39.99779201747049 8.385127012667414 7.468992982173745 0 0 0
574 1 42.14707706534598 7.50678749227372 9.059786549976579 0 0 0
36 1 47.668692796659364 5.891386461288865 7.091567847345728 -1 0 0
1271 1 46.97188496203473 7.708220374378238 9.03317465597937 0 0 0
947 1 49.69240877125072 8.246025413375424 9.543890123615531 -1 0 0
579 1 0.0984717514148028 10.981784040551057 6.467850608203974 1 0 0
224 1 4.90462917592603 10.930768528566759 9.161019128852873 1 0 0
617 1 7.318362174372971 11.900748314921403 8.283951591845407 0 0 0
903 1 9.47822754915715 10.369776592444978 8.755386027114042 0 0 0
524 1 13.84451189745586 10.618664169122018 6.626741123656949 0 0 0
748 1 15.497060386317 11.138958678831507 8.88643947522341 0 0 0
282 1 17.942912372232954 10.32823881690346 7.573491983288475 0 0 0
1018 1 22.300367917506367 10.124095528347826 9.00298976539495 0 0 0
140 1 26.951975819466107 10.031820212501504 9.518742764674032 0 0 0
2552 1 27.094555119560283 11.891044883702724 7.290668413556906 0 0 0
534 1 30.681236130462292 9.725797788529947 9.41224710868727 0 0 0
435 1 34.91562314241018 11.266683450755453 8.810580220550708 0 0 0
101 1 40.1430656951937 11.03408523747789 7.486572160867269 0 0 0
525 1 42.61874117130535 11.29470089787931 6.9841102234504095 0 0 0
394 1 43.72211115846588 9.760223463461404 8.870236141897717 0 0 0
295 1 45.9920896986033 9.484228949836128 7.237552577649534 0 0 0
62 1 0.699668085229725 13.517855114271784 7.567785651647524 0 0 0
1221 1 3.3640034742289697 13.220637591735908 8.316325568284753 0 0 0
41 1 7.458894862714429 14.292794100694751 9.417249920012878 0 0 0
651 1 11.266561421371733 11.69687693227217 7.020278091596329 0 0 0
421 1 11.606796127426607 14.561395013848463 7.611435472088457 0 0 0
542 1 17.07222122427634 14.672948856932328 6.264287741102486 0 0 0
352 1 17.0336115840457 15.176828541836928 8.912980111064169 0 0 0
591 1 22.499119974952833 11.747397041236422 6.7081544216757845 0 0 0
188 1 23.07200516058164 14.29124793470664 7.314164465756825 0 0 0
195 1 25.58965825566236 13.698515105533493 8.501103755846769 0 0 0
660 1 29.917739497140133 12.024869664879157 7.983264112677402 0 0 0
102 1 33.69690085166417 13.440061606943308 7.634312121784198 0 0 0
631 1 42.81970146971016 14.08274421929598 6.670426487277225 0 0 0
583 1 42.51998819886474 15.364252635770283 9.215426358695387 0 0 0
2101 1 46.9007216328864 12.520774335229124 6.778442960651626 0 0 1
287 1 47.73261675380697 14.33411639137138 8.64716918174466 0 0 0
398 1 -0.07396459750520712 15.820678660959508 6.48770798331678 0 0 0
2559 1 2.276534491584649 17.364555155311116 6.349111702276442 0 0 0
325 1 4.893950167797164 17.493466483930543 7.348029901018405 0 0 0
615 1 5.114348229805643 15.30174920101719 9.281815436790742 0 0 0
386 1 9.369974791806213 15.671651855238753 7.869882019257499 0 0 0
1877 1 14.15324825467231 18.745713619122377 7.630127771433445 0 0 1
55 1 16.1035735011416 17.706164473887988 9.265889599790054 0 0 0
521 1 20.544773389566494 17.81242884928811 7.120359686791802 0 0 0
297 1 21.46472909010199 15.80299246602521 9.095316819859939 0 0 0
2797 1 27.49162772558742 15.601475995659339 8.78352126290798 0 1 0
34 1 28.17822462525801 17.507456189371975 6.474435187720723 0 0 0
2137 1 30.98313062074547 16.933253727875947 6.8973447375047705 0 0 0
2542 1 32.72063338958056 17.489589267083392 9.3366604285595 0 0 0
261 1 35.17290015397439 17.878613787947916 7.856340570412012 0 0 0
568 1 37.427286984779464 15.616679571581006 6.886135264694474 0 0 0
707 1 37.480521362545176 15.514059372342562 9.626978809028456 0 0 0
2375 1 38.45331943046601 18.04383130320122 6.418167160602549 -1 0 0
346 1 42.687761445398024 18.22136509721285 9.068206418567103 0 0 0
2699 1 47.073286301496736 18.723468317547837 7.364209851353352 0 0 0
2316 1 48.92428517137686 16.667980127755797 8.308488123382872 -1 0 0
3542 1 1.4889185327309575 18.38343060881833 9.008482841489743 0 0 1
3389 1 1.2032642015568131 21.20020207231872 9.354164200635413 1 0 0
2451 1 2.709207381179967 21.31408024878309 7.367203019813847 1 0 0
2796 1 5.413730683007068 21.372836584976586 7.393978660215721 1 0 0
1026 1 9.778916048861088 18.356111270383522 8.444787473211337 0 0 0
877 1 9.730991577958761 20.085924536527187 6.276010158631971 0 0 0
516 1 17.357482916431646 21.050034216587537 6.061199768951183 0 0 0
1869 1 18.409638681671442 19.26284304548852 8.00031322101456 0 0 1
2809 1 24.84586358144416 20.212546732888992 7.082015961671195 0 0 0
569 1 27.667984084097355 20.30016186533507 6.477465519247934 0 0 0
764 1 29.43890007077923 21.291464984906412 8.460821441875236 0 0 0
252 1 32.11252254730267 21.338030150434136 7.428204597557656 0 0 0
217 1 34.24322337115743 20.474940970357846 9.331907280692183 0 0 0
824 1 37.47184327921511 18.725996856963057 9.049778591216018 0 0 0
503 1 41.21167604119347 18.98665762265476 6.880977144900613 0 0 0
1488 1 41.02328820917459 21.608606346398737 7.12107767642623 0 0 1
81 1 45.01083916289294 19.577151924889886 9.117491848111577 -1 0 0
2258 1 45.45211555973998 22.303329666777493 9.49420722085328 0 0 0
2250 1 -0.09181019947602603 24.45149920447104 7.295262739329342 0 0 0
642 1 5.969450001573673 23.494085471782082 9.471246516438082 0 0 0
59 1 10.911844429933765 22.70801935159817 7.299185935081049 0 0 0
2674 1 18.447587948478212 5.909139132308503 -0.027210765756207733 0 1 0
689 1 13.499950836030195 23.131166402334003 6.57699224445137 0 0 0
588 1 15.186008968902883 23.728942212036003 8.876078186161578 0 0 0
749 1 22.130109932092843 23.77820045248118 8.279054173273028 0 0 0
298 1 24.732671379581724 22.71393102625211 7.729680804595601 0 0 0
1853 1 28.24008752467698 23.60605020745469 9.021362770619469 0 0 1
4045 1 33.0934421068443 23.587831698282947 5.968133764836072 0 0 1
1065 1 34.89606180284407 23.637233997360582 8.214482621402906 0 0 0
1009 1 36.958423570376205 21.283849586432517 8.93479411070502 0 0 0
66 1 38.347053981479434 22.026155859144044 6.5518305775306604 0 0 0
2108 1 45.00607796046725 23.698675067877712 7.203879900138601 0 0 0
2142 1 50.08868239986487 22.25260011254828 8.45267288502903 -1 0 0
3089 1 0.5363106000602982 2.0106656675108 11.671184434352927 0 1 0
16 1 2.746270405562335 0.6074109833819932 10.653576683002969 1 0 0
318 1 10.358223972974253 0.6724528095515068 12.037233092903245 0 0 0
193 1 2.6191131686931484 -0.10711740930362329 7.9699833229392905 0 0 0
2126 1 17.41498333636203 1.0266752150548661 9.169896583267981 0 1 0
596 1 19.67259265497925 2.023108312820739 10.119352435336822 0 0 0
768 1 24.100765215017812 1.6905630603706219 10.94114305902428 0 0 0
179 1 26.951916964355902 0.6622223169189787 10.363530649126117 0 0 0
385 1 31.45095117508258 0.8033393821247885 10.8336365222212 0 0 0
113 1 26.309761588190213 15.012101092209239 -0.08657450695496338 0 0 0
393 1 36.066923936899414 0.6468464436767327 10.491831713367247 0 0 0
21 1 42.31352159437798 1.145631754260547 11.17715644121209 0 0 0
967 1 47.264578378697344 1.6104421747636035 11.846586890711485 -1 0 0
3959 1 0.78430134352273 4.635308420115885 11.979440610410819 0 1 1
468 1 4.620665085141624 2.8939199615767306 10.675281839153476 0 0 0
446 1 2.7842199639389458 5.122110802767959 10.230198958655672 0 0 0
453 1 7.6506873496478285 6.630267896010992 10.167317215634032 0 0 0
671 1 9.656309503463332 2.82498951513365 10.003693940575749 1 0 0
302 1 9.26755163922229 5.594855469250847 11.934245168448761 0 0 0
2353 1 13.750306381508805 2.3628479896666934 10.042178174237373 0 1 0