
# Create simulation box of size 50 x 50 x 50 Angstrom
#
lattice	            sc 1
Lattice spacing in x,y,z = 1.0000000 1.0000000 1.0000000
region 	            all block 0 50 0 50 0 50 units box
create_box          1 all
Created orthogonal box = (0.0000000 0.0000000 0.0000000) to (50.000000 50.000000 50.000000)
  1 by 2 by 3 MPI processor grid

# fill box with 4175 randomly distributed atoms
#
create_atoms        1 random 4175 63782 all
Created 4175 atoms
  create_atoms CPU = 0.000 seconds
mass                1 18.015

# Define potential
#
pair_style          sw
pair_coeff          * * ML_mW.sw mW
Reading sw potential file ML_mW.sw with DATE: 2019-02-27

# Run minimization
#
minimize            1.0e-8 1.0e-8 10000 1000
WARNING: Using 'neigh_modify every 1 delay 0 check yes' setting during minimization (../min.cpp:187)
Neighbor list info ...
  update every 1 steps, delay 0 steps, check yes
  max neighbors/atom: 2000, page size: 100000
  master list distance cutoff = 6.0032907
  ghost atom cutoff = 6.0032907
  binsize = 3.0016454, bins = 17 17 17
  1 neighbor lists, perpetual/occasional/extra = 1 0 0
  (1) pair sw, perpetual
      attributes: full, newton on
      pair build: full/bin/atomonly
      stencil: full/bin/3d
      bin: standard
Per MPI rank memory allocation (min/avg/max) = 4.255 | 4.258 | 4.261 Mbytes
Step Temp E_pair E_mol TotEng Press 
       0            0    7792709.3            0    7792709.3    5898794.3 
     630            0   -45180.336            0   -45180.336   -154.07449 
Loop time of 1.15632 on 6 procs for 630 steps with 4175 atoms

98.6% CPU use with 6 MPI tasks x no OpenMP threads

Minimization stats:
  Stopping criterion = max force evaluations
  Energy initial, next-to-last, final = 
      7792709.32924461  -45180.0188663597   -45180.336116598
  Force two-norm initial, final = 2.0191930e+08 4.9721331
  Force max component initial, final = 1.0948746e+08 0.73126211
  Final line search alpha, max atom move = 0.053306038 0.038980685
  Iterations, force evaluations = 630 1000

MPI task timing breakdown:
Section |  min time  |  avg time  |  max time  |%varavg| %total
---------------------------------------------------------------
Pair    | 0.88104    | 0.98714    | 1.0531     |   6.0 | 85.37
Neigh   | 0.02417    | 0.024777   | 0.025267   |   0.2 |  2.14
Comm    | 0.05843    | 0.12441    | 0.23091    |  16.9 | 10.76
Output  | 0          | 0          | 0          |   0.0 |  0.00
Modify  | 0          | 0          | 0          |   0.0 |  0.00
Other   |            | 0.01999    |            |       |  1.73

Nlocal:        695.833 ave         704 max         685 min
Histogram: 1 1 0 0 1 0 0 1 0 2
Nghost:        1494.17 ave        1515 max        1468 min
Histogram: 1 1 0 0 0 0 1 1 1 1
Neighs:        0.00000 ave           0 max           0 min
Histogram: 6 0 0 0 0 0 0 0 0 0
FullNghs:      19997.0 ave       20462 max       19320 min
Histogram: 1 1 0 0 0 0 0 2 0 2

Total # of neighbors = 119982
Ave neighs/atom = 28.738204
Neighbor list builds = 26
Dangerous builds = 0

# Add velocity/set timestep
#
velocity            all create ${TEMP} 120598 rot yes dist gaussian
velocity            all create 210 120598 rot yes dist gaussian
timestep            5.0

# Define output
#
compute	            1 all msd
thermo	            100
thermo_style        custom step temp press vol etotal ke pe c_1[4] density

# Neighbor lists
#
neigh_modify        delay 0 every 1 check yes

# Set fixes
#
fix                 1 all momentum 10 linear 1 1 1 rescale
fix                 2 all nve
fix                 3 all temp/csvr ${TEMP} ${TEMP} 500.0 928347
fix                 3 all temp/csvr 210 ${TEMP} 500.0 928347
fix                 3 all temp/csvr 210 210 500.0 928347
fix                 4 all press/berendsen iso ${PRES} ${PRES} 1000.0 modulus 20000
fix                 4 all press/berendsen iso 200 ${PRES} 1000.0 modulus 20000
fix                 4 all press/berendsen iso 200 200 1000.0 modulus 20000

# Run 0.5 ns equilibration
#
dump                1 all custom 1000 eq.${NAME}.dump id type x y z vx vy vz
dump                1 all custom 1000 eq.liquid_density_MLmW.dump id type x y z vx vy vz
run                 100000
Per MPI rank memory allocation (min/avg/max) = 3.506 | 3.508 | 3.511 Mbytes
Step Temp Press Volume TotEng KinEng PotEng c_1[4] Density 
     630          210    801.42152       125000   -42567.537    2612.7992   -45180.336 2.7295415e-33   0.99914793 
     700    134.24281    141.69675    125284.13   -41766.647    1670.2357   -43436.883   0.24264374   0.99688195 
     800    166.31467    70.219069    125273.99   -41044.836    2069.2707   -43114.107   0.56795438   0.99696268 
     900    183.71822    337.31198    124950.55   -40647.202    2285.8039   -42933.006   0.99573866   0.99954339 
    1000    195.61825     260.5074    124969.17     -40403.1     2433.863   -42836.963    1.4007447   0.99939444 
    1100    202.25684    250.39112    125053.82    -40245.63    2516.4596   -42762.089    1.6812544   0.99871789 
    1200    204.10887    324.16534    125279.92   -40285.505    2539.5024   -42825.007    1.9881983   0.99691548 
    1300    203.65954    335.30802    125427.31   -40280.803    2533.9118   -42814.715    2.3280764   0.99574401 
    1400    205.72285    178.82815       125457   -40303.058    2559.5834   -42862.641    2.6448227   0.99550839 
    1500     203.7068    282.21125    125421.48   -40245.411    2534.4998   -42779.911    2.9682008   0.99579028 
    1600    209.57012    93.396478    125366.46   -40160.883    2607.4507   -42768.333    3.2834093    0.9962273 
    1700    210.32636    397.42141    125449.52   -40185.111    2616.8597    -42801.97    3.5005804   0.99556771 
    1800    207.03644    101.83411    125337.12   -40263.305    2575.9269   -42839.232     3.688984   0.99646053 
    1900    210.30564    200.37931    125400.55   -40259.911    2616.6019   -42876.513    3.9437634   0.99595651 
    2000    214.05022    361.03353    125594.12   -40220.474    2663.1916   -42883.666    4.3518782    0.9944215 
    2100    215.54804    169.98339    125713.32   -40192.106    2681.8274   -42873.934    4.6591976   0.99347861 
    2200    212.05585    61.973753    125762.31   -40229.128    2638.3779   -42867.506    4.8840078   0.99309158 
    2300    216.03928    71.743207    125751.56   -40251.773    2687.9394   -42939.713    5.2568646   0.99317644 
    2400    216.99386    184.51313    125647.47   -40279.386    2699.8161   -42979.202    5.6202911   0.99399927 
    2500    209.61182    103.56845    125680.81   -40257.272    2607.9696   -42865.241    5.9758981   0.99373559 
    2600    210.49576    332.87508    125787.24   -40212.047    2618.9675   -42831.015    6.2298888    0.9928948 
    2700    213.79313    83.791699    125861.26   -40241.923     2659.993   -42901.916    6.4182228   0.99231086 
    2800    215.38226    221.33544    125684.44   -40245.401    2679.7648   -42925.166    6.7188074   0.99370688 
    2900    210.44048    78.298819    125667.71   -40313.987    2618.2796   -42932.267    6.9253714   0.99383918 
    3000    209.94828    161.76268    125647.91    -40356.37    2612.1557   -42968.525    7.2065807   0.99399578 
    3100    209.98149      178.037    125711.92   -40334.058    2612.5689   -42946.627    7.5068397   0.99348965 
    3200    213.88022    218.22175    125973.49   -40390.506    2661.0766   -43051.582    7.7750636   0.99142678 
    3300    212.78623    263.55266    126034.12   -40374.544    2647.4653    -43022.01    7.8449275    0.9909498 
    3400    212.95571    197.17187     126115.6   -40419.212    2649.5739   -43068.786     8.079792   0.99030965 
    3500    212.45513    346.41662    126221.93   -40472.914    2643.3458    -43116.26    8.3231095   0.98947536 
    3600    209.26715     227.1826    126436.55   -40517.352    2603.6812   -43121.033    8.5710958   0.98779576 
    3700    205.95141    165.21954    126452.79   -40577.826    2562.4271   -43140.254     8.799532   0.98766896 
    3800    206.64336    214.32621    126696.01   -40532.295    2571.0362   -43103.331     8.843954   0.98577291 
    3900    207.68322    28.163975    126511.73   -40564.689    2583.9741   -43148.664     8.967489   0.98720875 
    4000     210.4057    552.52397     126612.1    -40557.91    2617.8469   -43175.757     9.216171   0.98642618 
    4100    204.95584    236.25913    126810.57   -40546.241    2550.0403   -43096.282    9.3923721   0.98488232 
    4200    210.28297    251.92584    126823.74   -40561.012    2616.3199   -43177.332    9.6333728   0.98478008 
    4300    213.18998    177.62068    126901.23   -40568.281    2652.4887    -43220.77    9.8026487   0.98417875 
    4400    210.22218    69.990713    126927.07   -40566.765    2615.5635   -43182.328     10.04666   0.98397837 
    4500    212.76351    117.03185     126933.8    -40568.64    2647.1825   -43215.822    10.260498    0.9839262 
    4600    208.28042    391.66432    126987.41   -40610.262    2591.4044   -43201.666    10.394917   0.98351084 
    4700    211.66828    61.164319    127116.42   -40531.202    2633.5558   -43164.758    10.511548   0.98251265 
    4800    207.07026    121.11914    127056.73   -40593.061    2576.3477   -43169.409    10.539885    0.9829742 
    4900    214.52546    117.21354    127121.22   -40483.005    2669.1046    -43152.11    10.795815   0.98247555 
    5000    214.04121    324.37671    127241.92   -40443.574    2663.0796   -43106.653    10.824702    0.9815436 
    5100    215.56925    30.057561    127257.88   -40506.886    2682.0913   -43188.977    11.212343   0.98142048 
    5200    211.06081    249.75536    127401.98   -40574.299    2625.9978   -43200.296     11.41062   0.98031046 
    5300    213.81377    102.00798     127513.9   -40559.999    2660.2498   -43220.249    11.619299   0.97944999 
    5400    208.71977    187.15983    127507.52   -40593.553    2596.8708   -43190.423    11.785487   0.97949903 
    5500     215.0312     146.2181    127429.54   -40615.301    2675.3969   -43290.698    11.815276   0.98009844 
    5600    213.52983    37.016583    127586.59   -40635.091     2656.717   -43291.808    11.872283   0.97889196 
    5700    210.07651     188.4861    127729.24    -40651.04    2613.7512   -43264.791    12.154666   0.97779874 
    5800      209.018    139.02935    127817.54   -40688.743    2600.5813   -43289.324    12.320427   0.97712325 
    5900    208.69664    232.62195    127703.86   -40735.349    2596.5829   -43331.932    12.426534   0.97799311 
    6000    211.56964     300.1811    127669.28   -40734.435    2632.3286   -43366.764    12.719734   0.97825796 
    6100    214.25678    282.43182    127780.62   -40691.199    2665.7617   -43356.961    12.768302   0.97740555 
    6200    207.38081    168.55978    127990.21   -40758.635    2580.2116   -43338.847    12.886395   0.97580505 
    6300    209.68099    306.60025     128136.5    -40739.89    2608.8302    -43348.72    12.980673   0.97469101 
    6400    212.29764    270.16622    128280.75   -40726.541    2641.3862   -43367.927    13.214916   0.97359495 
    6500    214.45441    201.82735     128249.1   -40684.707    2668.2206   -43352.927    13.247457   0.97383523 
    6600    210.93533    292.69722    128082.66    -40768.18    2624.4365   -43392.616    13.347714    0.9751007 
    6700    209.54981    202.99336    128080.77   -40831.225     2607.198   -43438.423    13.555639   0.97511507 
    6800    209.99461    153.93869    128142.34   -40759.259    2612.7321   -43371.991    13.806488   0.97464654 
    6900    212.68322    199.45132    128342.95   -40710.246    2646.1836    -43356.43    13.971139   0.97312314 
    7000    215.07773    122.33465     128477.3   -40712.643    2675.9758   -43388.619    14.182595   0.97210548 
    7100    211.39956    233.87308    128577.48   -40744.388    2630.2125     -43374.6    14.403405   0.97134807 
    7200    209.47021    175.14903    128266.51   -40799.181    2606.2076   -43405.388     14.58058   0.97370306 
    7300    207.81408    104.67825    128231.34   -40841.624    2585.6023   -43427.226    14.581124   0.97397009 
    7400     209.4049    358.08779    128188.21   -40851.377     2605.395   -43456.773    14.563186    0.9742978 
    7500    210.99504    257.78286    128264.01   -40817.453    2625.1794   -43442.632    14.510225   0.97372205 
    7600    205.15298    344.61701    128363.89   -40886.368    2552.4932   -43438.861    14.657397   0.97296433 
    7700    212.05189    250.72834    128370.82   -40789.663    2638.3287   -43427.992    14.660074   0.97291185 
    7800    210.74781    152.99206    128267.29   -40779.597    2622.1034   -43401.701    14.881239    0.9736971 
    7900    209.13899    187.72485     128464.7   -40844.997    2602.0867   -43447.084    15.147756   0.97220087 
    8000    210.27102    99.421827    128467.24   -40831.443    2616.1712   -43447.615    15.181384   0.97218164 
    8100    210.32887    202.44636    128450.32   -40919.864    2616.8911   -43536.755    15.359438   0.97230966 
    8200     206.4546    2.7785726    128435.32   -40922.563    2568.6877    -43491.25    15.402455   0.97242327 
    8300    209.26929    267.79843    128502.49   -40910.112    2603.7078    -43513.82     15.48345   0.97191498 
    8400    207.12747    185.29792    128472.69   -40869.599    2577.0595   -43446.658    15.564811    0.9721404 
    8500    212.69665    264.05638    128451.87    -40812.35    2646.3508   -43458.701    15.810569   0.97229796 
    8600     208.6573     48.47187    128504.87   -40843.994    2596.0935   -43440.087    15.982345   0.97189692 
    8700    210.17292    146.78368    128574.82   -40838.683    2614.9507   -43453.634    16.043712   0.97136822 
    8800    209.75864    145.61543    128600.88   -40883.415    2609.7963   -43493.211    16.180301   0.97117139 
    8900    204.43074    368.81916    128471.32   -40944.716    2543.5071   -43488.223     16.29362   0.97215073 
    9000    206.09005    81.391349    128602.99    -40899.51    2564.1521   -43463.662    16.308922   0.97115542 
    9100    208.64409    215.62315    128571.98   -40969.791    2595.9291    -43565.72    16.464418   0.97138965 
    9200    210.16097    252.87871    128865.63   -40896.309     2614.802   -43511.111    16.639284   0.96917612 
    9300    208.34309    197.37036    128939.88   -40973.859    2592.1841   -43566.043    16.668882   0.96861799 
    9400    213.70411    213.24683    128880.21   -40948.023    2658.8855   -43606.909    16.757388   0.96906646 
    9500    209.66376    212.65851     128925.9   -40970.558    2608.6158   -43579.174    16.874759   0.96872302 
    9600    211.37937    377.14573    129006.22   -40938.536    2629.9612   -43568.497    16.834772   0.96811993 
    9700    209.46164    310.69559    129072.65   -40876.786     2606.101   -43482.887    16.996397   0.96762168 
    9800    211.18466    278.42149    129116.66   -40943.376    2627.5386   -43570.915    17.329057   0.96729184 
    9900    209.11677    240.39215    129012.45   -40998.228    2601.8102   -43600.039    17.418839   0.96807315 
   10000    206.97402    201.30297    129111.49   -40998.795    2575.1503   -43573.946    17.389366   0.96733054 
   10100    213.42203     280.0106    129277.83   -40966.677    2655.3758   -43622.053    17.462208   0.96608593 
   10200    208.07073    255.70401     129229.7   -41012.933    2588.7954   -43601.728    17.741654   0.96644569 
   10300    207.20933    239.46456    129132.84   -41003.764     2578.078   -43581.842    17.962499   0.96717063 
   10400    208.30193    45.350354    129207.27   -40957.753    2591.6721   -43549.425    18.043104   0.96661353 
   10500    208.80745     310.4314    129437.19   -40932.942    2597.9617   -43530.904    18.215609   0.96489648 
   10600     210.0272    225.67078    129401.93   -40877.507    2613.1377   -43490.644    18.270756   0.96515944 
   10700    212.68185    178.21155    129300.79   -40860.348    2646.1666   -43506.514    18.352956   0.96591439 
   10800    213.95978    268.54613    129319.49   -40857.757    2662.0664   -43519.823    18.508454   0.96577473 
   10900    209.82118    137.98465    129315.63   -40884.899    2610.5744   -43495.473    18.445969    0.9658035 
   11000    213.53775    175.47359    129171.59   -40892.396    2656.8156   -43549.211     18.46566   0.96688052 
   11100    207.29643    213.32025    129225.46   -40937.034    2579.1617   -43516.196    18.638493    0.9664774 
   11200    211.81056    270.78106    129242.29    -40931.56     2635.326   -43566.886    18.697293   0.96635157 
   11300    211.58019    174.46863    129125.28   -40943.924    2632.4599   -43576.384    18.805201   0.96722729 
   11400    207.03544    299.50249    129231.88   -40958.356    2575.9144    -43534.27    19.048651   0.96642942 
   11500    207.70199    256.60219    129413.01   -40979.508    2584.2076   -43563.716    19.142684   0.96507682 
   11600    205.70749    74.663111     129279.6   -40990.355    2559.3923   -43549.748    19.361924   0.96607265 
   11700    214.70372    187.85815    129368.16   -40887.282    2671.3224   -43558.605     19.47942   0.96541135 
   11800    211.42115    195.52342    129449.49   -40960.333    2630.4811   -43590.814    19.499618   0.96480483 
   11900    205.99745    240.50229    129491.14   -40984.809    2562.9999   -43547.809    19.597214   0.96449451 
   12000    210.06405    25.031137    129460.69   -40987.214    2613.5961    -43600.81     19.72559   0.96472133 
   12100    214.65993    272.30007    129490.95   -40945.548    2670.7776   -43616.326    19.560984   0.96449592 
   12200    212.04933    215.58766    129396.34   -40948.293    2638.2969    -43586.59    19.807572   0.96520114 
   12300    210.89154    232.73541    129470.71   -40968.109    2623.8917   -43592.001    19.931923   0.96464666 
   12400    213.44093    183.14617    129533.93   -40953.241     2655.611   -43608.852    20.087673   0.96417589 
   12500    201.59792    186.29461    129631.57   -41041.924    2508.2614   -43550.185    20.084192   0.96344967 
   12600    206.34111    152.95125       129582   -40962.452    2567.2757   -43529.727     20.19158   0.96381822 
   12700    212.39954     194.5812    129533.45   -40946.113    2642.6541   -43588.767    20.278803   0.96417947 
   12800    213.74059    194.42858    129333.79   -40927.553    2659.3393   -43586.892    20.467661   0.96566793 
   12900    209.77426     170.7584    129400.07   -40976.712    2609.9905   -43586.703    20.712734   0.96517327 
   13000    212.79424    323.14467    129405.06    -40910.51    2647.5649   -43558.075    20.834259   0.96513606 
   13100    211.84281    43.090237    129426.16   -40908.996    2635.7273   -43544.724    20.948272   0.96497875 
   13200    215.42152    415.50731    129474.36   -40837.445    2680.2532   -43517.698    21.123363   0.96461949 
   13300    211.34456    369.52113    129507.02   -40876.663    2629.5281   -43506.191     21.32528   0.96437621 
   13400    208.76276    10.912281     129289.2   -40966.056    2597.4057   -43563.462    21.286088     0.966001 
   13500    210.91352    20.070393    129252.59   -40982.224    2624.1652   -43606.389    21.235509   0.96627461 
   13600     209.1395    229.66559    129153.39   -41011.875     2602.093   -43613.968    21.298521   0.96701675 
   13700    208.04683    81.137289    129153.35   -41012.519    2588.4981   -43601.017    21.565312   0.96701704 
   13800    212.65577    267.44334    129176.14   -40925.269     2645.842   -43571.111    21.690851   0.96684643 
   13900    212.56753    299.10755    129291.15   -40959.889    2644.7442   -43604.633    21.795889   0.96598641 
   14000    212.62716    278.42987    129497.61   -40946.591    2645.4861   -43592.077    21.741486   0.96444629 
   14100    211.07657     124.8849    129831.47   -40960.851    2626.1938   -43587.045    21.881465   0.96196624 
   14200    207.80997    232.99006    129588.01   -41006.365    2585.5512   -43591.916    22.062995   0.96377353 
   14300    203.16446    126.01145    129508.23   -41061.934    2527.7522   -43589.686    22.292971    0.9643672 
   14400    209.74711    109.27888    129815.06   -41033.816    2609.6528   -43643.468    22.367583   0.96208785 
   14500    211.78308    259.61275    129857.87   -40991.121    2634.9841   -43626.106    22.490597    0.9617707 
   14600    209.30159    92.556966    129880.86   -40993.885    2604.1097   -43597.995    22.644835    0.9616004 
   14700     208.0491    186.59339    129713.34   -41034.684    2588.5263    -43623.21    22.827929    0.9628423 
   14800    206.05316    197.36467    129681.49    -41061.99     2563.693   -43625.683    23.066236   0.96307879 
   14900    206.32263    187.05838    129676.04   -41121.912    2567.0458   -43688.958    23.213588   0.96311924 
   15000    207.70324    204.93883    129601.26   -41133.278    2584.2232   -43717.501    23.221798   0.96367495 
   15100    203.25924    142.73726    129520.09   -41155.349    2528.9314    -43684.28    23.270752   0.96427892 
   15200    206.30886    137.28882    129579.18   -41077.396    2566.8744   -43644.271    23.383917    0.9638392 
   15300    208.77423    209.31039    129515.41   -41089.505    2597.5483   -43687.053    23.523809   0.96431376 
   15400    203.29432    149.74883     129568.4   -41085.431    2529.3679   -43614.799    23.552262   0.96391938 
   15500    211.12271    211.88457    129723.97   -41078.657    2626.7679   -43705.425    23.629737    0.9627634 
   15600    210.32116    174.24826    129762.22   -41015.202     2616.795   -43631.997    23.628754   0.96247964 
   15700    207.70784    199.01831     129769.8   -41103.114    2584.2804   -43687.394    23.709453   0.96242343 
   15800     209.3511    151.91048    129843.07   -41106.959    2604.7257   -43711.685    23.874204    0.9618803 
   15900    207.98579    287.98798    129723.83   -41162.169    2587.7386   -43749.908    23.908296   0.96276445 
   16000    208.18202    292.51928    129686.72   -41105.053    2590.1801   -43695.234    23.721112   0.96303997 
   16100    210.59154    125.47951    129874.42   -41061.605    2620.1591   -43681.764    23.768753   0.96164813 
   16200    208.89974    373.65813    129963.86   -41110.458    2599.1099   -43709.568    23.945598   0.96098628 
   16300    204.52832    222.32381       130109   -41115.366    2544.7212   -43660.087    24.021316   0.95991429 
   16400    212.01367    204.20572    130079.36   -41028.325    2637.8532   -43666.179    24.068226   0.96013302 
   16500    212.40548    149.78046    130086.54   -41027.581    2642.7279   -43670.309    24.221195   0.96008003 
   16600    208.95165    32.802241    129976.62   -41024.258    2599.7558   -43624.013    24.353513   0.96089201 
   16700    210.27368     232.2286    129788.21    -41058.24    2616.2043   -43674.444    24.247909   0.96228686 
   16800    214.70289    184.33658    129781.89   -41054.767    2671.3122   -43726.079    24.200831   0.96233374 
   16900     215.7961    263.11629    129805.35   -41034.388    2684.9137   -43719.301    24.306894   0.96215978 
   17000    213.07044    211.11984    129747.67   -41057.398    2651.0014   -43708.399    24.370941   0.96258755 
   17100    213.22848    232.70702    129723.17   -40978.121    2652.9677   -43631.088    24.644779   0.96276931 
   17200    210.36406    314.90278    129730.95   -40995.722    2617.3289    -43613.05    24.717788   0.96271163 
   17300     211.4814    357.76231     129697.1   -41047.401    2631.2307   -43678.632    24.809855   0.96296288 
   17400    210.62104     183.2916    129863.65   -41076.476    2620.5261   -43697.002    24.868844   0.96172789 
   17500    214.23462    77.445165    129820.54   -41073.221    2665.4859   -43738.707    24.895567    0.9620472 
   17600     209.4672    202.49292    129704.54   -41054.438    2606.1702   -43660.608    24.930961   0.96290766 
   17700    210.26573    168.52794    129704.99   -41078.759    2616.1054   -43694.864    25.007709   0.96290433 
   17800    206.99113    193.75261    129656.16   -41087.909    2575.3631   -43663.272    25.262022    0.9632669 
   17900    212.90314    249.21591    129740.19    -41052.48    2648.9198   -43701.399    25.221007   0.96264305 
   18000    215.48615    232.19015    129827.32   -41009.779    2681.0574   -43690.836    25.288329   0.96199702 
   18100    214.26067    141.49307    129757.82   -41124.547    2665.8101   -43790.357    25.460894   0.96251223 
   18200    210.05019    269.36576    129914.75   -41130.623    2613.4237   -43744.047    25.586306   0.96134961 
   18300    213.10575    202.63171    130158.03   -41058.578    2651.4407   -43710.018    25.695132   0.95955275 
   18400    211.80277    109.93079    130064.62   -41132.613    2635.2291   -43767.843     25.68683   0.96024183 
   18500    208.99095    92.828505    129893.26   -41100.954    2600.2447   -43701.199    25.711449   0.96150864 
   18600    209.12538    347.87558    129781.09   -41139.548    2601.9173   -43741.465    25.659004   0.96233967 
   18700    210.50345    457.15413    129946.71   -41104.893    2619.0631   -43723.956    25.878438   0.96111311 
   18800    209.41119    8.6460846    129841.66   -41081.278    2605.4733   -43686.752    25.974126   0.96189075 
   18900    210.80005    239.95503    129789.63   -41105.799    2622.7533   -43728.553    26.082556   0.96227637 
   19000    211.93574    240.80779    129861.14   -41087.562    2636.8836   -43724.446    26.162078   0.96174645 
   19100     210.7301    59.052266    129926.81   -41145.477     2621.883    -43767.36    26.336695   0.96126035 
   19200    212.62169   -46.951557    129788.18   -41125.105    2645.4181   -43770.523    26.391441   0.96228712 
   19300    214.15284    186.83257    129928.54   -41078.971    2664.4685   -43743.439    26.426787   0.96124758 
   19400    215.49566    157.74798    129863.15   -41082.164    2681.1757    -43763.34    26.449829   0.96173157 
   19500    214.67937    231.18095    129712.46   -41062.271    2671.0195    -43733.29     26.66185   0.96284881 
   19600    208.77929    233.59956    129775.93   -41086.844    2597.6112   -43684.455    26.740475   0.96237791 
   19700    214.12125    245.76365     129710.2   -41064.803    2664.0755   -43728.878     26.87824   0.96286558 
   19800    209.17642    204.63081    129669.01    -41096.28    2602.5523   -43698.833    26.788532   0.96317144 
   19900    212.18202    316.85696    129847.16   -41093.494    2639.9477   -43733.442    26.885322   0.96184999 
   20000    209.37159    219.16073    129865.47   -41138.287    2604.9806   -43743.268    26.974363    0.9617144 
   20100    212.01329    89.323351    129866.45   -41115.946    2637.8484   -43753.795    27.129358   0.96170716 
   20200    208.58159    170.10752    130030.76   -41167.037    2595.1515   -43762.188    27.267931   0.96049189 
   20300     211.5157    166.72981     130104.5   -41205.653    2631.6574   -43837.311    27.508661   0.95994751 
   20400    209.13946     249.6967    130149.97    -41220.49    2602.0925   -43822.582    27.424729   0.95961211 
   20500    210.43909    188.63334    130071.24   -41206.994    2618.2624   -43825.257    27.552199   0.96019299 
   20600    207.21966    115.77676    130074.54   -41236.942    2578.2066   -43815.149    27.831108   0.96016861 
   20700    211.35557    167.88877    130122.31   -41177.847    2629.6652   -43807.512    27.768851   0.95981612 
   20800     210.4127    97.224552    130300.63   -41184.587     2617.934   -43802.521    27.851867   0.95850261 
   20900    209.51001    394.61328    130415.46   -41221.299    2606.7029   -43828.002    27.832285    0.9576586 
   21000    209.32964    125.48619    130444.45   -41306.716    2604.4587   -43911.174    27.727645   0.95744579 
   21100    206.27133    161.58788    130187.14   -41320.675    2566.4075   -43887.082    27.892072   0.95933816 
   21200    205.55488    278.01635     130322.5   -41284.164    2557.4935   -43841.657    27.887842   0.95834176 
   21300    206.18272     224.5977    130485.21   -41291.178     2565.305   -43856.483    27.872182   0.95714669 
   21400    207.07189   -15.287455    130284.62   -41267.654     2576.368   -43844.022    28.047213   0.95862037 
   21500    211.83105    260.85769    130206.44   -41256.483     2635.581   -43892.064    28.014806   0.95919597 
   21600    209.62858     227.3861    130252.96   -41209.398     2608.178   -43817.576    28.194435   0.95885339 
   21700    210.26832     33.65037    130219.04   -41178.105    2616.1376   -43794.242    28.171724   0.95910316 
   21800     210.2444    89.898367    130263.47   -41157.421    2615.8401   -43773.261    28.264049   0.95877605 
   21900     211.5285    144.23185    130043.59   -41162.689    2631.8166   -43794.506    28.370516   0.96039716 
   22000    210.21342    70.037697    130279.54   -41203.731    2615.4546   -43819.185    28.285895   0.95865776 
   22100    211.49926     313.2375    130252.66   -41144.933    2631.4529   -43776.386    28.527876   0.95885556 
   22200    211.95966    207.33592    130422.21   -41185.405    2637.1812   -43822.586    28.479872    0.9576091 
   22300    211.25045     152.3372    130441.56   -41177.438    2628.3572   -43805.796    28.510672   0.95746701 
   22400    216.11917    243.93705    130382.84   -41161.311    2688.9334   -43850.244    28.552018    0.9578982 
   22500    210.47628    321.28876    130566.77   -41175.993    2618.7251   -43794.718    28.715087   0.95654884 
   22600    215.80986    30.398469    130584.14   -41145.834     2685.085   -43830.919    28.706404   0.95642159 
   22700    211.92788   -54.057275    130399.02   -41156.218    2636.7857   -43793.004    28.714055    0.9577794 
   22800     214.9603    365.34187    130525.32   -41128.323    2674.5148   -43802.838     28.77042   0.95685257 
   22900    212.83984    285.23187    130290.26   -41168.067    2648.1322     -43816.2    28.942983   0.95857887 
   23000    209.70868    83.516845    130269.27   -41152.345    2609.1746    -43761.52    29.000283   0.95873335 
   23100    210.34781    192.97499    130351.72   -41255.622    2617.1266   -43872.748    29.127186   0.95812688 
   23200    208.49563    144.45109    130142.57   -41201.279     2594.082   -43795.361    29.181199    0.9596667 
   23300    208.79221    152.68462    130232.93   -41238.332    2597.7721   -43836.104    29.067356   0.95900084 
   23400    211.44892    258.84353    130441.81   -41183.217    2630.8265   -43814.044    29.307761   0.95746519 
   23500    210.56886    137.51413    130610.84   -41227.965    2619.8769   -43847.842    29.280659   0.95622611 
   23600    210.73081    194.11277    130717.94   -41216.911    2621.8919   -43838.803    29.278003   0.95544264 
   23700    208.16015    283.05181    130693.88   -41264.223     2589.908   -43854.131    29.143242   0.95561852 
   23800    208.64388    162.98303    130648.58   -41319.349    2595.9265   -43915.276    29.276302   0.95594983 
   23900    206.27293    119.39883    130427.33   -41330.091    2566.4274   -43896.518    29.340938   0.95757147 
   24000    211.37967    102.50436    130341.74   -41258.081    2629.9649   -43888.046    29.443925   0.95820028 
   24100    211.82895    133.82473    130478.01   -41253.756    2635.5549   -43889.311    29.511413   0.95719956 
   24200    205.96375    139.42156    130609.82   -41310.936    2562.5806   -43873.517     29.53769   0.95623353 
   24300    205.82161    348.22547    130662.64   -41274.448    2560.8121    -43835.26    29.684223   0.95584701 
   24400    210.02245    318.24212    130872.55   -41307.924    2613.0785   -43921.003    29.676413    0.9543139 
   24500    213.26468    309.37805    130825.43   -41267.663     2653.418   -43921.081    29.720499   0.95465762 
   24600    209.21541    173.40298    130801.88   -41267.989    2603.0375   -43871.027    29.827666   0.95482944 
   24700    207.72419    266.46412    130984.04   -41286.184    2584.4838   -43870.668     29.88944   0.95350159 
   24800    207.39971    18.748075    130880.64   -41286.959    2580.4467   -43867.406    29.960851   0.95425488 
   24900    210.31846    239.24091    130909.06   -41237.834    2616.7615   -43854.595    29.925601   0.95404775 
   25000     213.1043    154.08127    130867.76   -41226.912    2651.4226   -43878.335    30.179425   0.95434882 
   25100    210.75302    204.50448    130859.03   -41223.092    2622.1683   -43845.261     30.07233   0.95441245 
   25200    210.16296    328.68703    130598.58   -41251.304    2614.8268   -43866.131    30.185699   0.95631587 
   25300    212.84629     371.9098    130743.29   -41259.773    2648.2125   -43907.985    30.216838   0.95525739 
   25400    208.41941    148.19189    130689.14   -41259.991    2593.1338   -43853.125    30.300192    0.9556532 
   25500     211.9439    117.38369    130688.94    -41224.44     2636.985   -43861.425    30.449886   0.95565465 
   25600    210.38897    379.58782    130660.48   -41305.561    2617.6387     -43923.2     30.49975   0.95586276 
   25700    209.68648    351.70655    130796.81   -41335.891    2608.8985   -43944.789     30.61172    0.9548665 
   25800    205.34369    90.604602    130611.53    -41334.08    2554.8659   -43888.945    30.479131   0.95622099 
   25900    211.70336    160.14821    130767.83   -41296.316    2633.9923   -43930.308    30.493537   0.95507812 
   26000    210.59629    293.77532    130734.22   -41230.032    2620.2182   -43850.251    30.625712   0.95532362 
   26100    206.18335    210.76615    130736.39   -41301.587    2565.3129     -43866.9    30.769711   0.95530778 
   26200    210.70652    169.94471    130907.03   -41295.907    2621.5896   -43917.497    31.015937   0.95406252 
   26300    209.92419    325.51295    130887.01     -41268.3     2611.856   -43880.156    31.112817   0.95420846 
   26400    211.96026    121.33108     131076.6   -41255.171    2637.1886   -43892.359     31.12916   0.95282828 
   26500     209.3434    172.99067    130871.59   -41310.986    2604.6299   -43915.616    31.073505   0.95432088 
   26600    211.39819    345.91101    131133.89   -41354.569    2630.1954   -43984.764    31.281968     0.952412 
   26700    205.75188    219.05801    131103.72   -41378.727    2559.9445   -43938.671      31.3529   0.95263116 
   26800    208.82568    187.95976    131094.76   -41307.517    2598.1885   -43905.705    31.455081   0.95269629 
   26900    208.09508    280.28123    130982.02   -41307.891    2589.0984   -43896.989    31.543358   0.95351633 
   27000    208.22062    235.28457    130971.96   -41346.054    2590.6604   -43936.714    31.481933   0.95358952 
   27100    209.78023    220.60068     130937.6   -41346.192    2610.0649   -43956.257    31.634708   0.95383981 
   27200    204.99687    134.57556    130896.41   -41357.278    2550.5508   -43907.828    31.794225    0.9541399 
   27300    208.43643    294.87828    130973.12   -41368.436    2593.3454   -43961.782    31.688242   0.95358111 
   27400    208.87919    163.96691    130934.43   -41300.893    2598.8543   -43899.747    31.723831   0.95386286 
   27500     212.8891    89.171488    130999.95   -41246.428    2648.7452   -43895.173    31.618502   0.95338577 
   27600    212.35385    329.45166    130975.34   -41274.275    2642.0856   -43916.361    31.631596   0.95356493 
   27700    211.54429    187.67033     131001.3   -41279.956    2632.0132    -43911.97    31.713115   0.95337594 
   27800    209.97643    164.76639    130988.48   -41224.553     2612.506   -43837.059    31.976601   0.95346925 
   27900    214.64165    228.32801    130942.65   -41250.839    2670.5501    -43921.39    31.878917   0.95380298 
   28000    211.98349    112.74964    130929.39   -41295.215    2637.4776   -43932.692    31.852768   0.95389955 
   28100    207.38259    174.87458    130848.86   -41283.509    2580.2336   -43863.742    31.798788   0.95448667 
   28200    210.45707     223.4464    130946.03   -41324.601    2618.4861   -43943.087    31.850582   0.95377836 
   28300    207.65474    231.02225    130981.38   -41319.716    2583.6197   -43903.336     32.05122   0.95352095 
   28400    209.27918     98.54823    131023.16   -41354.661    2603.8309   -43958.492    32.154154   0.95321687 
   28500    206.80026    310.98938    130911.52   -41366.084    2572.9884   -43939.072    32.102237   0.95402982 
   28600    209.54591    244.92207    130819.07   -41309.096    2607.1495   -43916.245    32.083707   0.95470403 
   28700    206.68225    145.34044    131006.36   -41317.934    2571.5201   -43889.454    32.162797   0.95333913 
   28800    209.78831    218.84263    130904.77   -41280.485    2610.1655   -43890.651    32.180138   0.95407902 
   28900    211.29048    219.92653    130966.55   -41249.739    2628.8553   -43878.594    32.283093    0.9536289 
   29000    212.90541     268.0553    130898.05   -41334.919    2648.9481   -43983.867    32.287792   0.95412801 
   29100    210.48316    35.447986     130950.6   -41289.166    2618.8107   -43907.977    32.393997   0.95374509 
   29200    212.68024    310.88193    130921.05   -41261.396    2646.1465   -43907.542     32.19395   0.95396036 
   29300    209.83522    230.60919    130905.88   -41322.128     2610.749   -43932.877    32.228821   0.95407089 
   29400    207.62051    144.52852    130856.06   -41373.024    2583.1939   -43956.218     32.24279   0.95443412 
   29500    207.43968    274.11706    130779.11   -41408.784    2580.9439   -43989.728    32.355186   0.95499573 
   29600    211.51189    311.23593    130842.82   -41328.633    2631.6101   -43960.244    32.475831   0.95453074 
   29700     208.0061    59.773426    131036.66   -41378.922    2587.9913   -43966.914    32.593876   0.95311872 
   29800     209.6294    147.54463    131100.12   -41372.577    2608.1882   -43980.765     32.52093   0.95265737 
   29900    207.75953    210.28279    131158.52   -41402.732    2584.9236   -43987.655      32.5247   0.95223317 
   30000    210.72427    153.05704    131074.28   -41390.115    2621.8106   -44011.926    32.738515   0.95284512 
   30100    207.78305    125.09602    131205.21   -41394.531    2585.2161   -43979.747    32.841517   0.95189432 
   30200    209.22906    137.01674     131305.9   -41400.741    2603.2073   -44003.949    32.917527   0.95116433 
   30300    210.81608    220.36382    131119.47   -41376.353    2622.9528   -43999.306    32.911498   0.95251675 
   30400    209.38666    191.91361    131108.19   -41350.579    2605.1681   -43955.747    32.795259   0.95259873 
   30500    210.31178    107.01026     131204.2   -41348.689    2616.6784   -43965.367    32.810395   0.95190159 
   30600    212.35866    194.57523    131183.06   -41338.899    2642.1455   -43981.044    32.940521   0.95205506 
   30700    211.13038    243.23542    131268.83   -41351.988    2626.8633   -43978.852    33.079717   0.95143292 
   30800    215.76686    13.686312    131292.67   -41302.141    2684.5499   -43986.691    33.087953    0.9512602 
   30900    207.60526    206.55923    131227.74   -41405.303    2583.0041   -43988.307    33.141433   0.95173084 
   31000     207.2306    221.37652    131294.75   -41444.209    2578.3427   -44022.552    32.998433   0.95124512 
   31100    208.62165    199.10198    131242.38   -41451.698    2595.6499   -44047.348    33.151695   0.95162474 
   31200    206.96275    132.47199       131152   -41463.987    2575.0101   -44038.997    33.175487   0.95228047 
   31300    206.44789     236.2899    131244.99   -41424.988    2568.6042   -43993.592    33.205225   0.95160578 
   31400    205.60508     266.3371    131288.08    -41383.44    2558.1181   -43941.558    33.231142   0.95129345 
   31500    211.07399    206.49011    131355.24   -41432.231    2626.1617   -44058.392    33.336349   0.95080706 
   31600    212.80195    283.56833    131491.83   -41374.311    2647.6608   -44021.971    33.300156   0.94981943 
   31700    209.97507    236.13929    131550.47     -41418.9    2612.4891   -44031.389    33.374576   0.94939604 
   31800    213.45529    203.90913    131621.75   -41367.674    2655.7896   -44023.463    33.398587   0.94888184 
   31900    210.02726    163.91665    131607.58   -41370.471    2613.1384   -43983.609    33.607193   0.94898406 
   32000    211.93061    97.287083    131492.01   -41372.772    2636.8197   -44009.592    33.643729   0.94981814 
   32100      211.883    154.89374    131393.17   -41383.067    2636.2274   -44019.294    33.783946   0.95053256 
   32200    210.88139    144.89757    131417.24   -41374.713    2623.7654   -43998.478    33.633357   0.95035853 
   32300     211.4755     98.14035    131496.67   -41358.521    2631.1572   -43989.679    33.562868   0.94978442 
   32400    209.18762    9.8353598    131374.24   -41415.204    2602.6917   -44017.896    33.588701   0.95066956 
   32500    212.49074    199.00368    131441.51   -41427.161    2643.7888   -44070.949    33.820864   0.95018305 
   32600    212.13381    143.43321    131522.46   -41367.546    2639.3478   -44006.894    33.885544   0.94959819 
   32700    210.66226    241.12837    131686.17   -41429.194     2621.039   -44050.233    34.047272   0.94841768 
   32800    207.59813    234.92117    131787.87   -41467.581    2582.9154   -44050.496    34.071349   0.94768581 
   32900    210.76943    304.17777    131667.08   -41467.921    2622.3724   -44090.294    34.294592   0.94855519 
   33000    209.39826    203.21555    131723.88   -41529.309    2605.3124   -44134.621    34.009595   0.94814613 
   33100    209.15781    250.52298    131885.36   -41465.629    2602.3208    -44067.95    34.151462   0.94698524 
   33200    211.38029    198.17339    131888.51   -41503.297    2629.9726   -44133.269    34.157949   0.94696264 
   33300      209.898    161.26443    131672.95   -41439.007    2611.5302   -44050.537    34.174519   0.94851292 
   33400    210.53399    302.61863    131595.39   -41524.047    2619.4431    -44143.49    34.076144   0.94907194 
   33500    206.21423     166.1217    131642.65   -41494.836    2565.6971   -44060.533    34.069608   0.94873123 
   33600    208.89751    96.874736    131558.54   -41463.008    2599.0822    -44062.09    34.121485   0.94933774 
   33700    209.64822    279.31103    131562.94    -41453.36    2608.4224   -44061.783    34.120115   0.94930601 
   33800     212.9472    238.55271       131605   -41444.036    2649.4681   -44093.504    33.996019   0.94900265 
   33900    211.99871    321.85911    131641.77   -41448.321     2637.667   -44085.988    34.035691   0.94873752 
   34000    212.08425    293.62494    131586.54   -41410.304    2638.7313   -44049.035    34.229746   0.94913578 
   34100    208.48525    173.27083    131616.02   -41442.047    2593.9529       -44036    34.276127   0.94892317 
   34200    206.24283    304.60828    131703.97   -41436.365    2566.0529   -44002.418    34.310295   0.94828947 
   34300    207.57787    116.75261    131630.05   -41498.431    2582.6633   -44081.094    34.281128   0.94882201 
   34400    211.99778    273.15405    131645.06   -41423.496    2637.6554   -44061.151     34.26966   0.94871382 
   34500     209.9055    261.87749    131636.52   -41433.058    2611.6234   -44044.681    34.147944   0.94877538 
   34600    212.20231    381.92615    131739.24   -41415.527    2640.2002   -44055.727    34.229148   0.94803564 
   34700     208.8259    200.08671    131664.36   -41490.443    2598.1912   -44088.634    34.241321   0.94857475 
   34800    207.66051    132.32373    131740.94   -41475.249    2583.6915   -44058.941    34.398759    0.9480234 
   34900    211.00496    141.76961    131738.19   -41493.262    2625.3029   -44118.565    34.338749   0.94804315 
   35000    203.95186    103.34889     131570.1   -41565.869    2537.5489   -44103.418    34.312525   0.94925437 
   35100    205.80581     150.2359    131664.92   -41506.108    2560.6156   -44066.724    34.365111   0.94857071 
   35200    209.20539    72.355501    131607.69   -41493.145    2602.9127   -44096.057     34.39907   0.94898324 
   35300    210.51497    78.237886    131525.86   -41484.275    2619.2064   -44103.482     34.44909   0.94957368 
   35400    205.56426    226.31044    131478.68   -41508.372    2557.6102   -44065.982    34.591974   0.94991437 
   35500    214.10972    312.20275    131529.99   -41416.168     2663.932     -44080.1    34.754306   0.94954382 
   35600     211.3411     196.3614    131537.59   -41466.284    2629.4851   -44095.769    34.598443   0.94948898 
   35700    211.01693    214.09861    131493.49   -41426.035    2625.4518   -44051.487    34.479016   0.94980739 
   35800    209.30004    345.65869     131584.9   -41464.597    2604.0903   -44068.687    34.680851    0.9491476 
   35900    211.41073    262.86602    131822.22   -41411.181    2630.3514   -44041.532    34.820324   0.94743884 
   36000    210.99158    133.07024    131766.31   -41379.099    2625.1364   -44004.236    34.744625   0.94784088 
   36100    213.23374    256.78445    131661.76   -41397.175    2653.0332   -44050.208    34.841353   0.94859349 
   36200    208.95015      309.372     131900.8   -41422.788    2599.7371   -44022.525    34.990187   0.94687443 
   36300    205.99546    306.29519    131854.77   -41483.871    2562.9751   -44046.846     35.06279   0.94720499 
   36400    212.15739    44.548154    131806.26    -41427.25    2639.6413   -44066.891    35.172628    0.9475536 
   36500    211.81475    206.87963    131803.27    -41421.67    2635.3782   -44057.049    35.070917   0.94757503 
   36600    206.95506    203.72077    131934.09   -41539.797    2574.9144   -44114.712    35.165373   0.94663551 
   36700    208.18925    151.24584    131858.21   -41485.442      2590.27   -44075.712    35.090156   0.94718027 
   36800    209.94979    228.36676    131963.44   -41476.328    2612.1746   -44088.503    35.170832   0.94642497 
   36900    205.12311    248.07757    131946.79   -41495.362    2552.1214   -44047.483    35.396223   0.94654436 
   37000    207.65201    184.48301    131911.92   -41444.188    2583.5858   -44027.774    35.440071   0.94679459 
   37100    213.13704    175.54824    131817.94   -41435.659      2651.83   -44087.489    35.475578   0.94746959 
   37200    209.63303     52.97974    131896.64   -41493.554    2608.2334   -44101.788    35.448973   0.94690424 
   37300    206.58463     239.4548    131796.48   -41502.042    2570.3056   -44072.347    35.426047   0.94762388 
   37400    207.78568    32.247559    131785.14    -41529.99    2585.2489   -44115.239     35.42653   0.94770545 
   37500    208.95481    321.50743    131611.86   -41535.377    2599.7951   -44135.172    35.430171   0.94895316 
   37600    212.43903    224.91935    131591.76   -41485.239    2643.1454   -44128.384     35.36903   0.94909808 
   37700     207.7415    155.20308    131565.42   -41499.516    2584.6993   -44084.216    35.482708   0.94928813 
   37800    206.15133    71.965914    131509.09   -41594.119    2564.9145   -44159.034    35.309039   0.94969478 
   37900    209.31702    240.45945    131425.77   -41548.181    2604.3017   -44152.483    35.416858   0.95029682 
   38000    203.46197    245.80252     131444.8   -41512.401    2531.4537   -44043.854    35.610268   0.95015925 
   38100    210.23709    232.25245    131661.58   -41481.924     2615.749   -44097.673    35.808127   0.94859481 
   38200    208.39822    18.024338    131588.18   -41504.009    2592.8701   -44096.879    35.584401   0.94912393 
   38300    212.47502    233.63972    131474.71   -41458.231    2643.5932   -44101.824     35.71447   0.94994305 
   38400    208.32364    305.94213    131555.13   -41529.523    2591.9421   -44121.465      35.6609   0.94936239 
   38500    206.66129    208.21932    131579.93   -41549.377    2571.2594   -44120.637    35.793798   0.94918347 
   38600    206.74838    196.04529    131573.81   -41505.628    2572.3429   -44077.971    35.658877   0.94922756 
   38700    210.27839    219.27449    131396.04   -41516.807     2616.263    -44133.07     35.57209   0.95051181 
   38800    209.00427    171.41413     131340.9   -41540.864    2600.4105   -44141.275    35.639676   0.95091092 
   38900    207.36588    197.68147    131465.74    -41495.91    2580.0258   -44075.936    35.624594    0.9500079 
   39000    209.14131    30.783898    131317.56   -41542.699    2602.1155   -44144.814    35.842933   0.95107987 
   39100    211.26869    289.29641    131531.81   -41499.689    2628.5841   -44128.273    36.013397   0.94953072 
   39200    207.84853      273.517    131513.31   -41530.163    2586.0308   -44116.194    36.044088   0.94966428 
   39300    207.05056     286.5223       131599   -41518.747    2576.1026   -44094.849    36.008871   0.94904592 
   39400    209.52966    100.59161    131593.85    -41484.38    2606.9473   -44091.327    36.082198   0.94908302 
   39500    210.28338    346.92695    131417.29   -41456.569     2616.325   -44072.894    36.111081   0.95035816 
   39600    212.89752    205.69762    131519.66   -41494.788    2648.8499   -44143.638    36.108688   0.94961844 
   39700    209.73869    120.05093    131536.72   -41451.401    2609.5481   -44060.949    36.269706   0.94949526 
   39800    213.22071    247.81129    131572.67   -41502.074     2652.871   -44154.945    36.153546    0.9492358 
   39900    210.16392    275.63021    131689.46   -41546.808    2614.8387   -44161.647    36.322203     0.948394 
   40000    203.14974    195.27268    131699.15   -41569.518     2527.569   -44097.087    36.370955    0.9483242 
   40100      211.103    213.77023    131674.87    -41473.59    2626.5226   -44100.113     36.40768   0.94849908 
   40200     210.2351    109.15133    131771.15   -41498.477    2615.7243   -44114.202      36.4477   0.94780605 
   40300    212.88722    94.683067    131624.47   -41484.555    2648.7217   -44133.277    36.323342   0.94886222 
   40400    209.08698     332.7396    131687.54   -41395.728    2601.4395   -43997.168    36.371356   0.94840779 
   40500    214.92034    226.98319    131855.24   -41426.719    2674.0176   -44100.736    36.435031   0.94720157 
   40600    210.95663    140.24227     131831.2   -41469.132    2624.7015   -44093.834    36.523041   0.94737428 
   40700    208.26984    260.18757     131947.1   -41520.798    2591.2728   -44112.071    36.510206   0.94654215 
   40800    207.38963    236.72566    131981.26   -41573.011    2580.3212   -44153.332    36.479168   0.94629713 
   40900    207.77306    108.76739    131934.12   -41602.337    2585.0918   -44187.429    36.570715   0.94663524 
   41000    210.47955    200.82214    131813.32   -41514.522    2618.7657   -44133.288    36.487373   0.94750282 
   41100    211.95067    242.63706    131586.39   -41483.129    2637.0692   -44120.198    36.417105   0.94913686 
   41200    210.40556    198.75938    131588.81   -41487.106    2617.8452   -44104.951    36.490845    0.9491194 
   41300    204.95359    379.90445    131605.92   -41634.186    2550.0124   -44184.198    36.642062   0.94899599 
   41400     204.5329    219.11412    131742.94   -41570.798    2544.7781   -44115.576    36.662213   0.94800898 
   41500    206.00013    206.90746     131792.5   -41569.399    2563.0332   -44132.432    36.752839   0.94765251 
   41600    210.01232    239.47828    131676.54   -41518.475    2612.9525   -44131.428    36.693044   0.94848707 
   41700    205.75536    181.13592    131695.97   -41485.403    2559.9878   -44045.391     36.75862   0.94834708 
   41800    207.30062    235.65059    131788.09   -41491.663    2579.2139   -44070.877    36.850622   0.94768419 
   41900     211.7421    198.79103    131594.17   -41471.912    2634.4742   -44106.386    36.896979   0.94908073 
   42000    208.21222    110.85601    131682.74   -41461.857    2590.5558   -44052.413    36.676632   0.94844239 
   42100    213.40053    228.42238    131583.46   -41461.797    2655.1083   -44116.906    36.828566   0.94915794 
   42200    215.53998     197.7836    131622.06   -41427.916    2681.7271   -44109.643    36.752955   0.94887961 
   42300    211.33247    307.60651    131743.79    -41408.14    2629.3777   -44037.517    37.059115   0.94800287 
   42400    212.36892    23.180953    131643.53   -41429.835    2642.2731   -44072.109    37.091866   0.94872487 
   42500    211.32816     131.6748    131666.61   -41435.917     2629.324   -44065.241    36.920203   0.94855857 
   42600    211.43001    214.49704    131609.45   -41443.505    2630.5912   -44074.096    37.013848   0.94897052 
   42700    211.98417    375.39183    131538.34   -41456.951    2637.4861   -44094.437    37.132891   0.94948353 
   42800    212.12529    240.92291    131567.52   -41407.297    2639.2419   -44046.539    37.289748   0.94927295 
   42900    211.69199    253.97009    131537.02    -41483.63    2633.8508   -44117.481    37.534713   0.94949312 
   43000    213.32607    94.008049    131367.36   -41511.333    2654.1819   -44165.515    37.395063   0.95071938 
   43100    209.14686      239.725    131303.64   -41494.551    2602.1846   -44096.736    37.470194   0.95118072 
   43200    209.69304    349.02013    131470.25   -41464.593      2608.98   -44073.573    37.546735    0.9499753 
   43300    212.41394    176.15617    131480.67    -41472.09    2642.8333   -44114.923     37.53619   0.94989999 
   43400    212.65662     258.5471    131524.76   -41437.303    2645.8526   -44083.156    37.426025   0.94958159 
   43500    209.76248    110.24511    131596.06   -41439.469     2609.844   -44049.313    37.702391   0.94906707 
   43600    218.97644    147.96871    131633.98   -41347.768    2724.4832   -44072.251    37.937572   0.94879371 
   43700     213.9219    157.33969    131555.17   -41375.484    2661.5951   -44037.079    37.956227   0.94936206 
   43800    211.28446    86.762633    131543.44   -41383.635    2628.7804   -44012.416    38.075169   0.94944678 
   43900    215.00339    190.68071    131466.84    -41420.16    2675.0509   -44095.211    38.090091   0.94999996 
   44000    210.47627    247.83198     131436.5   -41441.864     2618.725   -44060.589     37.97833   0.95021927 
   44100    209.25682    293.39865    131310.55   -41458.924    2603.5526   -44062.477    37.962422   0.95113067 
   44200    211.67542    353.95824    131431.36   -41494.931    2633.6446   -44128.575    38.007677   0.95025639 
   44300    206.69641     282.9659    131488.16   -41505.067    2571.6963   -44076.763    37.953842   0.94984591 
   44400    213.57944    43.270048    131503.82   -41470.195    2657.3343   -44127.529     38.20361   0.94973282 
   44500    212.61212    233.60387    131534.08   -41502.692     2645.299   -44147.991    38.233411   0.94951429 
   44600     209.4026    79.936634    131516.11   -41569.075    2605.3664   -44174.442    38.295181   0.94964408 
   44700    205.35413    223.44116    131453.52    -41543.78    2554.9957   -44098.776    38.305213   0.95009624 
   44800    208.79108    244.56428    131562.03    -41511.53     2597.758   -44109.288     38.14468   0.94931262 
   44900    210.83369    64.321837    131551.87   -41471.159    2623.1719   -44094.331     38.18599   0.94938592 
   45000       207.45     227.9321    131428.95   -41469.005    2581.0724   -44050.077    38.222007   0.95027381 
   45100    211.19564    155.59307       131357   -41404.612    2627.6753   -44032.288    38.475959   0.95079432 
   45200    209.01037    203.52739    131375.14   -41460.588    2600.4863   -44061.075    38.374236   0.95066305 
   45300    210.14569    334.94958       131620   -41476.507    2614.6119   -44091.119    38.416399   0.94889451 
   45400      212.795    196.94117    131539.64     -41457.8    2647.5743   -44105.375    38.558116   0.94947418 
   45500     212.2616    44.929053    131572.98   -41470.486    2640.9378   -44111.424    38.750484   0.94923355 
   45600    215.72541    218.85716    131764.39   -41467.568    2684.0342   -44151.602    38.867795   0.94785463 
   45700    207.96254     103.7071    131626.15   -41486.453    2587.4494   -44073.902    38.816423   0.94885015 
   45800    211.07751    148.71701    131615.04   -41433.005    2626.2055   -44059.211      38.8335   0.94893025 
   45900     214.2283    183.80167    131760.64   -41380.594    2665.4073   -44046.002    38.808348   0.94788162 
   46000    210.91457    262.47035    131590.34   -41365.171    2624.1783   -43989.349    39.103261   0.94910835 
   46100    211.11638    263.90708    131554.61   -41311.387    2626.6891   -43938.076    39.185053   0.94936615 
   46200    211.28233    260.31835    131560.99   -41295.834    2628.7538   -43924.588     39.22879   0.94932007 
   46300    212.47066    203.01547    131607.26   -41314.666     2643.539   -43958.205    39.254582   0.94898634 
   46400    215.68549    297.15223    131528.47   -41353.205    2683.5375   -44036.743    39.098816   0.94955481 
   46500    211.36356    289.54486    131588.78   -41357.191    2629.7645   -43986.955    39.105232   0.94911963 
   46600    214.31498    299.56546    131664.46   -41355.302    2666.4858   -44021.787    39.362495   0.94857409 
   46700    210.44201    152.03725    131820.98   -41454.257    2618.2986   -44072.556    39.302929   0.94744774 
   46800    208.84926    295.74645    131845.71   -41492.892    2598.4819   -44091.374    39.557885   0.94727007 
   46900    211.84709     98.10639    131921.34   -41422.637    2635.7805   -44058.417    39.602074   0.94672697 
   47000    214.15719    188.03503    131928.04   -41412.969    2664.5226   -44077.492    39.498115   0.94667893 
   47100     211.2891    196.16511    131927.95   -41396.344     2628.838   -44025.182    39.365251   0.94667956 
   47200    211.87708    208.47799    131963.61   -41445.292    2636.1537   -44081.446    39.481732    0.9464237 
   47300    207.19114    137.65983    132014.94   -41478.788    2577.8516    -44056.64    39.524147   0.94605576 
   47400    212.09209    281.64395    132025.49    -41443.23    2638.8288   -44082.059    39.687189   0.94598012 
   47500      208.905   -4.0933878    131907.06   -41395.636    2599.1753   -43994.811    39.668555   0.94682947 
   47600    215.25508    92.139469     131635.2   -41357.409    2678.1825   -44035.592     39.33761   0.94878489 
   47700     214.3456    231.23933    131753.85   -41406.322    2666.8667   -44073.189    39.647161   0.94793046 
   47800    213.65143    186.31981    131683.16   -41429.918      2658.23   -44088.148    39.578692   0.94843937 
   47900    206.34672    110.79962    131725.23   -41509.542    2567.3455   -44076.887    39.595875   0.94813647 
   48000    208.54431    209.94066    131614.65   -41532.223    2594.6877    -44126.91    39.717724   0.94893306 
   48100    213.15052    181.30365    131630.65   -41505.401    2651.9977   -44157.399    39.934217    0.9488177 
   48200    211.29229    239.52511    131609.33   -41530.148    2628.8777   -44159.026    39.894685   0.94897143 
   48300    211.49345    136.65763    131712.06   -41514.092    2631.3807   -44145.473    40.099759   0.94823122 
   48400    215.46218    203.91778    131574.29   -41449.724    2680.7592   -44130.483    40.172751   0.94922414 
   48500    209.40135    217.70164    131544.32   -41513.349    2605.3508     -44118.7     40.24446    0.9494404 
   48600    211.06081    172.83002    131548.12   -41514.292    2625.9977    -44140.29    40.230891   0.94941295 
   48700    211.22639     75.73851    131688.14   -41481.706    2628.0579   -44109.764    40.048656   0.94840345 
   48800    209.58343    204.38888    131634.19   -41504.538    2607.6164   -44112.154    40.005293   0.94879216 
   48900     212.5343    17.308506     131669.1   -41492.702    2644.3307   -44137.033    40.340963   0.94854064 
   49000    212.50525    249.99514    131564.07   -41529.214    2643.9693   -44173.183    40.251577   0.94929783 
   49100    207.14119     118.0133    131612.41   -41530.249    2577.2302   -44107.479    40.392775   0.94894922 
   49200    206.50416    93.601158    131649.24   -41542.953    2569.3044   -44112.257    40.551164   0.94868374 
   49300    210.47716    239.80528    131730.11   -41470.279     2618.736   -44089.015    40.646542   0.94810134 
   49400    211.87379    108.64349    131658.51   -41463.259    2636.1127   -44099.372    40.841459   0.94861694 
   49500    213.52665    217.62364    131512.17   -41481.664    2656.6775   -44138.341    40.671165   0.94967247 
   49600    212.40271    231.06233    131424.85    -41497.09    2642.6935   -44139.783    40.569803   0.95030345 
   49700    211.37032     259.3688    131539.17   -41510.411    2629.8486    -44140.26    40.747634   0.94947753 
   49800    206.23244    271.20602    131395.74   -41558.143    2565.9236   -44124.067    40.691337   0.95051403 
   49900    214.22823    204.83906    131411.03   -41441.691    2665.4065   -44107.098    40.901266   0.95040344 
   50000    212.71656    200.80969    131292.92   -41470.695    2646.5985   -44117.293    41.008134    0.9512584 
   50100    209.91277    170.60741    131518.32   -41475.379    2611.7139   -44087.093    41.026712   0.94962807 
   50200    211.53357      276.218    131480.85   -41518.999    2631.8797   -44150.878    40.927065   0.94989869 
   50300    214.45481    199.38946    131695.07   -41497.947    2668.2255   -44166.173    41.007979   0.94835359 
   50400    210.69379    270.73875    131698.07   -41534.292    2621.4313   -44155.723    41.181867   0.94833201 
   50500    205.30456    35.197512    131569.16   -41571.949    2554.3791   -44126.328    41.090918   0.94926117 
   50600    203.83527    225.23965    131572.72   -41577.247    2536.0983   -44113.345    41.007154   0.94923547 
   50700    206.74644    126.09122    131525.49   -41582.895    2572.3188   -44155.214     40.97341   0.94957635 
   50800      206.387    196.96721    131834.46   -41595.537    2567.8467   -44163.384    41.321919   0.94735087 
   50900    212.92733    87.201551     131819.1   -41504.648    2649.2207   -44153.869     41.22596   0.94746129 
   51000    211.94958    166.87958    131642.11   -41532.892    2637.0557   -44169.948    41.181693   0.94873512 
   51100    209.29147    179.20195    131611.22   -41562.468    2603.9838   -44166.452     41.09763   0.94895778 
   51200    209.95168     150.8221    131412.67   -41537.508    2612.1981   -44149.706    41.303366   0.95039152 
   51300    206.54574    318.60918    131598.22   -41600.502    2569.8217   -44170.323    41.345184   0.94905156 
   51400    206.56479    264.15561    131806.76   -41604.165    2570.0587   -44174.224    41.342112   0.94754997 
   51500    210.31904    184.09318    131914.96   -41618.433    2616.7687   -44235.202    41.262837   0.94677276 
   51600    206.35372    329.02447    132067.42   -41575.639    2567.4326   -44143.072    41.359348   0.94567977 
   51700    211.14973    238.00397    132047.22     -41579.1    2627.1041   -44206.204    41.514398   0.94582449 
   51800    210.37717    257.14523    132080.43    -41617.32     2617.492   -44234.812    41.691812   0.94558662 
   51900    209.84482    189.76077     132115.2   -41656.224    2610.8684   -44267.093    41.665761   0.94533781 
   52000    209.37268    127.82393    132263.65   -41691.513    2604.9942   -44296.507    41.616398   0.94427679 
   52100    208.02813    194.55485     132409.8   -41649.873    2588.2654   -44238.138    41.540624   0.94323448 
   52200    208.76316    228.71706    132367.48   -41666.627    2597.4105   -44264.037    41.495778   0.94353608 
   52300    211.05962     228.6357    132240.77   -41649.807    2625.9829    -44275.79    41.584715   0.94444013 
   52400    211.14167    147.23804    132174.08   -41595.302    2627.0038   -44222.306    41.500955    0.9449167 
   52500    207.30861    182.29093    132240.81   -41591.443    2579.3132   -44170.756     41.54774   0.94443982 
   52600    209.24558      157.248    132384.46   -41623.604    2603.4129   -44227.017    41.693371   0.94341505 
   52700    209.01565    199.05863    132272.72   -41626.981     2600.552   -44227.533    41.764638   0.94421199 
   52800    211.46166     184.1954    132329.35   -41578.447    2630.9851   -44209.432    41.891817   0.94380792 
   52900     209.1315    83.341943    132341.63   -41566.938    2601.9935   -44168.931    41.861123   0.94372039 
   53000    211.49869    285.15751    132504.36   -41557.921    2631.4457   -44189.366    41.753238    0.9425614 
   53100    209.25118    166.75304    132546.34   -41613.019    2603.4825   -44216.501    41.871065   0.94226284 
   53200    210.95442    105.55541    132640.93   -41611.466    2624.6741    -44236.14    42.017011   0.94159086 
   53300    212.24773    142.67707    132420.09   -41607.913    2640.7653   -44248.678    42.080904   0.94316118 
   53400     208.8534    34.743256    132456.32   -41669.186    2598.5334    -44267.72    41.864731   0.94290325 
   53500    207.03518    141.60788    132252.58   -41677.909    2575.9113   -44253.821    41.761832   0.94435578 
   53600    208.22893    257.52147    132290.09   -41679.746    2590.7638    -44270.51    42.010637   0.94408802 
   53700    206.77902    177.26114    132177.36   -41708.196    2572.7242    -44280.92     42.08729   0.94489324 
   53800    207.74488    149.45932     132369.6    -41599.96    2584.7412   -44184.701    42.023775   0.94352099 
   53900    208.19556    318.69614    132551.35   -41645.839    2590.3486   -44236.188    42.046173   0.94222721 
   54000    206.30432     305.6446    132545.81   -41609.708     2566.818   -44176.526    42.271844   0.94226663 
   54100    210.32102    229.34173    132543.88   -41625.915    2616.7934   -44242.709    42.275477   0.94228032 
   54200    208.77824     101.7173    132519.15   -41609.841    2597.5982   -44207.439    42.467819   0.94245617 
   54300    214.21773    241.30219    132610.61   -41592.437    2665.2758   -44257.712    42.297506   0.94180619 
   54400    206.93374    272.58539    132739.73   -41617.101    2574.6491    -44191.75    42.406551   0.94089002 
   54500    208.68949    276.90627    132648.27   -41600.653     2596.494   -44197.147    42.303818   0.94153882 
   54600    216.07233    273.64195    132736.49   -41521.637    2688.3506   -44209.988    42.261613     0.940913 
   54700    210.78955    303.31611    132712.53   -41546.521    2622.6227   -44169.144      42.3531   0.94108289 
   54800    208.39173    163.86413    132631.26   -41600.916    2592.7893   -44193.705    42.310091   0.94165952 
   54900    207.10505     111.8001    132524.56   -41641.771    2576.7806   -44218.551    42.536527    0.9424177 
   55000    206.55556    231.59451    132777.57   -41698.823    2569.9439   -44268.767    42.431881   0.94062189 
   55100    207.35351    164.00146    132691.88   -41668.544    2579.8718   -44248.415    42.474859   0.94122933 
   55200    203.98343    275.15797    132626.65   -41674.424    2537.9417   -44212.365     42.54755   0.94169228 
   55300    208.77737    290.19627     132623.8    -41624.47    2597.5874   -44222.057    42.364368    0.9417125 
   55400    211.67729    202.87259    132809.86   -41602.967     2633.668   -44236.635    42.389091   0.94039321 
   55500    210.02768    141.63407    132666.92   -41537.695    2613.1436   -44150.838    42.523149   0.94140646 
   55600    208.95469    151.75785    132589.21   -41575.739    2599.7935   -44175.532    42.662102   0.94195819 
   55700    208.47813    275.96244    132452.15   -41569.816    2593.8643    -44163.68    42.775512   0.94293293 
   55800    212.06184    191.40831    132488.62   -41580.119    2638.4524   -44218.571    42.562935   0.94267336 
   55900    211.36736    140.84338    132481.13   -41566.042    2629.8118   -44195.854    42.651087   0.94272664 
   56000    211.45005    269.48592    132407.68   -41562.866    2630.8406   -44193.707    42.366872   0.94324963 
   56100    212.14858    297.83242     132621.8   -41547.714    2639.5316   -44187.246    42.727399    0.9417267 
   56200    213.44989    215.58085     132619.6   -41553.809    2655.7224   -44209.531    42.755685   0.94174232 
   56300    208.97844    212.48086    132723.75   -41591.904    2600.0891   -44191.993    42.826426   0.94100332 
   56400    211.82763    278.30119    132672.01   -41576.746    2635.5384   -44212.284    42.871182   0.94137033 
   56500    207.60565    265.71419    132615.34   -41653.584     2583.009   -44236.593    42.737934   0.94177255 
   56600    207.13438    204.11313     132696.5   -41665.003    2577.1455   -44242.148    42.760497   0.94119655 
   56700    204.55439    338.37897    132637.04   -41694.526    2545.0456   -44239.571    42.558416   0.94161849 
   56800    210.31113    232.95092    132593.34    -41627.29    2616.6703    -44243.96    42.710518   0.94192886 
   56900    208.34994    119.61074    132561.09   -41612.588    2592.2693   -44204.857    42.780104   0.94215797 
   57000    211.30889    154.13368       132559   -41567.315    2629.0843   -44196.399    42.799228   0.94217284 
   57100     207.2801    125.37635    132514.42   -41629.042    2578.9585   -44208.001    42.769204   0.94248983 
   57200    206.63248    292.08711    132600.03   -41677.652    2570.9009   -44248.553    42.657633   0.94188133 
   57300    207.13951    69.428414    132561.42     -41717.1    2577.2093   -44294.309    42.629662   0.94215565 
   57400    206.35474    35.940863    132607.11   -41724.981    2567.4453   -44292.427    42.639919   0.94183106 
   57500    206.75028    176.73935    132495.01   -41761.642    2572.3666   -44334.008    42.680598   0.94262785 
   57600    206.35689    247.60208    132442.28   -41724.136     2567.472   -44291.608    42.743957   0.94300317 
   57700      210.048    110.11313    132483.91    -41766.88    2613.3965   -44380.276    42.814693   0.94270689 
   57800    206.03682    191.78377    132424.52   -41785.017    2563.4898   -44348.507    42.961609   0.94312963 
   57900    207.24984    315.37407    132479.06   -41757.167     2578.582   -44335.749    42.975472   0.94274137 
   58000     202.8455     218.5438    132394.45   -41757.529    2523.7836   -44281.312    42.794167   0.94334386 
   58100    208.49049    312.94246    132436.24   -41699.765    2594.0181   -44293.783    42.830101    0.9430462 
   58200     209.6302    141.15826    132324.42   -41647.071    2608.1982    -44255.27    42.882596    0.9438431 
   58300    213.33551    331.22735    132375.18   -41590.528    2654.2994   -44244.828     42.99115   0.94348116 
   58400     212.2543    292.86696    132336.44   -41592.473     2640.847    -44233.32    43.055593   0.94375736 
   58500    210.21678    169.05343    132404.87   -41596.895    2615.4964   -44212.392    43.171825   0.94326961 
   58600    214.58378    154.12271    132472.57   -41570.689    2669.8302   -44240.519    43.164649   0.94278756 
   58700     213.4038     133.8018    132517.42   -41581.839     2655.149   -44236.988    43.065207   0.94246846 
   58800     209.8478    143.08583    132472.21   -41635.507    2610.9055   -44246.412    43.041009   0.94279012 
   58900    208.84849    341.26762    132569.27   -41677.424    2598.4723   -44275.896    43.170387   0.94209988 
   59000    206.50788    176.16176    132471.04   -41664.588    2569.3507   -44233.939    43.049968   0.94279846 
   59100    211.58663    216.24185    132666.22   -41664.813      2632.54   -44297.353    43.071922   0.94141141 
   59200    210.57674    290.25685    132676.71   -41687.932     2619.975   -44307.907    43.194296   0.94133695 
   59300    206.08081    122.63061    132680.34   -41681.748    2564.0371   -44245.785    43.244422   0.94131118 
   59400     204.6944    77.117129    132660.21   -41718.457    2546.7875   -44265.245    43.338125   0.94145404 
   59500    208.91745    251.74388     132736.3   -41684.109    2599.3303   -44283.439    43.311416   0.94091435 
   59600    210.57714    170.59819    132711.37   -41673.689    2619.9799   -44293.669    43.398348   0.94109109 
   59700     209.8692    236.64779    132709.59    -41697.34    2611.1718   -44308.512    43.606705   0.94110374 
   59800    210.23635    250.31263    132628.82   -41699.432    2615.7399   -44315.172    43.386466   0.94167685 
   59900    209.48527    209.51923    132818.44   -41677.251     2606.395   -44283.646    43.417324   0.94033248 
   60000    210.68723     255.9563    132815.21    -41708.49    2621.3497    -44329.84    43.475887   0.94035531 
   60100    211.50429    237.30861    132773.74   -41667.133    2631.5154   -44298.649    43.782605   0.94064902 
   60200    210.75054    190.17503    132775.55   -41653.707    2622.1374   -44275.845    43.451719   0.94063619 
   60300    213.05715    167.08358     132794.1   -41619.481     2650.836   -44270.317    43.379574   0.94050481 
   60400    211.39125    232.67547    132665.34   -41583.613     2630.109   -44213.722    43.176234   0.94141762 
   60500    210.77196    190.18685    132685.17   -41619.233    2622.4038   -44241.637    43.355025   0.94127692 
   60600    210.69337    223.46908    132682.92   -41685.642     2621.426   -44307.068    43.512472   0.94129293 
   60700    204.49183    194.25681    132671.57    -41721.28    2544.2671   -44265.547    43.554543   0.94137346 
   60800    208.92919    188.73183    132730.09    -41682.73    2599.4763   -44282.206    43.590368   0.94095837 
   60900    204.82573    252.37578    132641.79   -41671.689    2548.4214   -44220.111    43.410249   0.94158481 
   61000    210.39455    315.44636    132694.15   -41710.265    2617.7082   -44327.973     43.59636   0.94121326 
   61100    209.28673    263.12861    132697.71   -41729.367    2603.9248   -44333.292    43.531141     0.941188 
   61200    209.49712    78.520322    132766.88   -41724.547    2606.5425   -44331.089    43.524567   0.94069767 
   61300    206.75413    127.62223    132712.11   -41709.453    2572.4144   -44281.867    43.410906   0.94108588 
   61400    207.16904    37.040984    132499.27   -41748.121    2577.5767   -44325.698    43.446212   0.94259756 
   61500    205.32005    244.22951    132449.41   -41742.904    2554.5717   -44297.475    43.664738   0.94295244 
   61600    209.20812    127.39986    132566.31   -41712.555    2602.9467   -44315.501    43.642338    0.9421209 
   61700    200.23419    78.550717    132548.65   -41780.563     2491.294   -44271.857    43.753664   0.94224639 
   61800    207.15289    206.34827    132546.18   -41843.429    2577.3757   -44420.805    43.707278   0.94226397 
   61900    205.96652    224.82715     132546.4   -41768.762    2562.6151   -44331.377    43.560196   0.94226243 
   62000    208.47605    191.76325    132474.91   -41725.398    2593.8384   -44319.237    43.366038   0.94277093 
   62100    209.64427    240.82318    132448.88   -41743.478    2608.3733   -44351.851    43.533312   0.94295616 
   62200    209.57656    304.30562    132447.74   -41702.903    2607.5308   -44310.433    43.686548   0.94296428 
   62300    209.88693    180.57109     132374.5    -41747.76    2611.3924   -44359.152    43.670357   0.94348606 
   62400    212.89716    210.53065    132390.25   -41692.408    2648.8454   -44341.254    43.478394   0.94337377 
   62500    204.09664    217.70286    132392.77   -41707.004    2539.3502   -44246.354    43.434877   0.94335584 
   62600     207.3829    82.618879    132394.75   -41704.769    2580.2375   -44285.007    43.415464   0.94334174 
   62700    207.60853    103.86227    132245.47   -41730.644    2583.0448   -44313.689     43.44233   0.94440658 
   62800    207.32663    227.60397    132268.96   -41709.009    2579.5374   -44288.546     43.34938   0.94423886 
   62900    209.80754    138.06996     132277.7   -41647.604    2610.4047   -44258.009    43.490752   0.94417648 
   63000    214.97159     335.3759    132201.65   -41596.769    2674.6552   -44271.424    43.499089   0.94471963 
   63100    211.93966    266.01648    132345.52   -41585.528    2636.9324   -44222.461    43.536264   0.94369265 
   63200    211.92299    255.08232     132490.8   -41616.428    2636.7249   -44253.153    43.534324   0.94265784 
   63300    213.18178    269.84047    132355.12   -41660.806    2652.3867   -44313.192    43.552812   0.94362418 
   63400    211.50391    205.54858    132272.02   -41573.935    2631.5107   -44205.446    43.573371   0.94421702 
   63500    206.90148    113.19804    132450.66   -41657.193    2574.2477   -44231.441    43.527375   0.94294349 
   63600    208.44355    169.59971    132381.77   -41650.389     2593.434   -44243.823    43.621919   0.94343419 
   63700     208.2051    160.68499    132298.63   -41653.899    2590.4673   -44244.367    43.675187    0.9440271 
   63800    207.38221    259.76112    132410.03   -41760.918     2580.229   -44341.147    43.786061   0.94323287 
   63900    207.65121    233.52869     132470.1   -41754.234    2583.5758    -44337.81    43.771594   0.94280514 
   64000     207.9985    144.86509    132591.65   -41747.175    2587.8967   -44335.072    43.786569   0.94194082 
   64100    210.59575    291.41499    132599.92   -41670.025    2620.2115   -44290.236    44.044437   0.94188207 
   64200    208.43579    215.37501     132560.5   -41670.536    2593.3375   -44263.873    44.065636   0.94216217 
   64300    216.07462    80.422128    132636.93   -41581.558    2688.3791   -44269.937     43.83534    0.9416193 
   64400    211.68458    210.56571    132607.91   -41609.043    2633.7586   -44242.802    43.792662   0.94182537 
   64500    213.28137    162.86066    132550.98    -41596.52    2653.6257   -44250.146    43.794743   0.94222985 
   64600    211.21045    236.71782    132574.51   -41656.337    2627.8595   -44284.197    44.000544   0.94206266 
   64700    210.19098    196.32771    132691.84   -41672.503    2615.1754   -44287.679    44.116844   0.94122962 
   64800    210.48279    242.20156    132613.83   -41689.612    2618.8061   -44308.418    44.136525   0.94178331 
   64900    209.80925    250.21842    132757.46   -41684.311    2610.4259   -44294.737    44.200751   0.94076438 
   65000    208.08847    180.58391     132826.1    -41668.16    2589.0161   -44257.176    43.995705   0.94027826 
   65100    217.61745    137.18228    132821.92   -41688.957    2707.5748   -44396.532    43.964727   0.94030783 
   65200    211.90506    179.71779    132773.85   -41681.247    2636.5018   -44317.749    44.045563   0.94064828 
   65300    214.65105    131.96335    132807.48   -41685.923    2670.6671   -44356.591    44.239374   0.94041004 
   65400     212.7702    202.85988    132801.55   -41631.367    2647.2658   -44278.633    44.181487   0.94045207 
   65500    211.84296    161.55009    132770.28   -41700.545    2635.7292   -44336.274    43.911028   0.94067355 
   65600     208.8931    72.014166    132597.59   -41732.059    2599.0273   -44331.087    44.175639   0.94189862 
   65700    210.65878    140.78411    132673.53    -41773.25    2620.9957   -44394.246    44.186987   0.94135955 
   65800    213.78998     100.4418    132638.43   -41781.295    2659.9538   -44441.249    44.391625   0.94160865 
   65900    208.99858    211.20451    132548.75   -41748.465    2600.3397   -44348.805    44.379238   0.94224571 
   66000    210.64614    254.20547     132620.4   -41649.926    2620.8384   -44270.764    44.334693   0.94173667 
   66100    213.61813    240.30349    132629.44   -41599.905    2657.8157   -44257.721    44.283472   0.94167243 
   66200    215.54455    198.11561    132631.71   -41588.509    2681.7839   -44270.293    44.287403   0.94165633 
   66300    214.13998    191.07683    132771.06   -41640.444    2664.3085   -44304.753    44.113468   0.94066799 
   66400    213.61307    154.45985    132635.29   -41683.196    2657.7527   -44340.949    44.200096    0.9416309 
   66500    209.45653    198.87996    132604.61   -41706.452    2606.0375    -44312.49    44.466298   0.94184881 
   66600    209.24504    203.05286    132650.26   -41715.472    2603.4061   -44318.879    44.392484   0.94152463 
   66700    209.39435    228.88339    132794.52   -41736.503    2605.2639   -44341.766    44.228407   0.94050182 
   66800    208.48629    191.68481    132789.21   -41685.227    2593.9658   -44279.192    44.493564   0.94053949 
[...]
   84600    207.50883    248.06445    132673.29   -41796.564    2581.8043   -44378.368    48.550375   0.94136126 
   84700     208.8329    304.01041    132644.78   -41809.999    2598.2783   -44408.277     48.57399   0.94156356 
   84800    210.07972    151.65105    132776.15   -41790.912    2613.7911   -44404.703    48.781281   0.94063194 
   84900       211.49    188.46074    132788.52   -41785.058    2631.3377   -44416.396    48.800459   0.94054435 
   85000     209.6282    118.18401    132672.42   -41736.695    2608.1734   -44344.869    48.942736    0.9413674 
   85100      206.374    215.70258    132791.27   -41743.832    2567.6849   -44311.517    48.841243   0.94052485 
   85200    209.77781    152.97526    132725.73   -41753.552    2610.0348   -44363.587    48.787172   0.94098929 
   85300    205.58241    248.35537    132799.69   -41786.541     2557.836   -44344.377     48.92905   0.94046521 
   85400    207.42697    231.73073    132783.62   -41774.219    2580.7858   -44355.005    48.978319   0.94057902 
   85500    211.09958     115.2602    132787.35   -41753.074    2626.4801   -44379.554    49.027908   0.94055266 
   85600    210.53845    278.02526       132614    -41729.42    2619.4986   -44348.918    48.709493   0.94178212 
   85700    209.15292    247.56645    132587.72   -41776.317    2602.2599   -44378.577    48.678745   0.94196875 
   85800    209.34335    161.37368    132663.27   -41774.896    2604.6292   -44379.525    48.961333    0.9414323 
   85900    214.10683    266.91289    132616.18   -41681.421    2663.8961   -44345.317      48.9259   0.94176659 
   86000    212.09387    166.28669    132655.43   -41735.362     2638.851   -44374.213    48.767965   0.94148797 
   86100    211.57724    212.33312    132774.36   -41710.138    2632.4231   -44342.561    49.142944   0.94064466 
   86200    210.26459    166.78973    132706.36   -41673.433    2616.0912   -44289.524     49.08866   0.94112664 
   86300    208.07025    200.02723    132639.32   -41714.729    2588.7895   -44303.518    48.924899   0.94160234 
   86400    206.21585    182.13569    132639.58   -41721.295    2565.7173   -44287.012    49.382869    0.9416005 
   86500    208.62704    246.75135    132645.11   -41711.781     2595.717   -44307.498    49.325678   0.94156125 
   86600    212.67193    159.82842    132531.83   -41656.546    2646.0431   -44302.589    49.365285   0.94236603 
   86700    211.05453    189.94159    132521.33   -41651.963    2625.9196   -44277.883    49.064345   0.94244067 
   86800    208.54741    121.12751    132531.12   -41723.478    2594.7263   -44318.204    49.152331   0.94237103 
   86900    209.81228    139.95787    132494.75    -41696.38    2610.4637   -44306.844    49.202108   0.94262974 
   87000    210.25752    351.80501    132499.29   -41703.143    2616.0033   -44319.146    49.378843   0.94259742 
   87100    209.56714    261.52334    132561.37   -41741.771    2607.4136   -44349.185    49.329509   0.94215601 
   87200    211.14284    128.80028    132472.22   -41732.815    2627.0183   -44359.834    49.346077   0.94279005 
   87300    210.09949    332.41341    132437.44   -41739.674     2614.037   -44353.711    49.207771   0.94303766 
   87400    211.49929    113.24607    132417.17   -41744.392    2631.4532   -44375.845    49.305309   0.94318198 
   87500    206.42635    100.25408    132441.88   -41758.148    2568.3362   -44326.484    49.368315   0.94300602 
   87600    208.39167    167.61003    132491.22   -41762.012    2592.7885   -44354.801    49.463255   0.94265488 
   87700    209.10952     56.92713    132427.01   -41775.593      2601.72   -44377.313    49.385571   0.94311194 
   87800    207.60883    59.655139    132447.12   -41753.262    2583.0486    -44336.31    49.371845   0.94296869 
   87900    208.32378    191.58725    132363.92   -41767.667    2591.9439   -44359.611    49.420639   0.94356147 
   88000     211.2614    248.00211    132328.84   -41792.623    2628.4934   -44421.117    49.454508   0.94381155 
   88100    211.17423    258.15797    132484.71   -41731.068    2627.4088   -44358.477    49.475275   0.94270119 
   88200    209.99243    281.46694    132422.89   -41713.644    2612.7051   -44326.349    49.583009   0.94314123 
   88300    208.70125    166.84721    132260.44   -41739.049    2596.6403    -44335.69     49.38301   0.94429965 
   88400    206.92753    163.13694     132462.4   -41847.869    2574.5719   -44422.441    49.524613   0.94285998 
   88500    213.94586     229.2804    132374.03   -41746.597    2661.8932    -44408.49    49.585621   0.94348941 
   88600     211.7253     115.7421    132382.21     -41706.8    2634.2652   -44341.065    49.708634   0.94343109 
   88700    209.58084    234.13075    132380.57    -41682.17    2607.5841   -44289.754    49.749746   0.94344274 
   88800    213.45638    130.13557    132491.55   -41627.055    2655.8032   -44282.858    49.821928   0.94265252 
   88900    212.67583    335.51692    132714.75   -41675.544    2646.0917   -44321.636    50.032123   0.94106718 
   89000    212.25203    216.10754    132664.78   -41670.287    2640.8187   -44311.106    49.659416   0.94142159 
   89100    207.41039    124.18827    132621.24     -41764.2    2580.5796    -44344.78    49.668451   0.94173072 
   89200    205.62575    130.15773    132611.01   -41794.311    2558.3753   -44352.686    49.734958   0.94180333 
   89300     207.2628    228.18099    132701.67    -41810.45    2578.7432   -44389.193    49.904739    0.9411599 
   89400     209.0654    197.83414    132580.54   -41835.451     2601.171   -44436.622    49.978807    0.9420198 
   89500    200.77053    23.834029    132709.99   -41866.135    2497.9671   -44364.102    50.028933   0.94110089 
   89600     202.2593    78.684691    132488.03   -41904.208    2516.4902   -44420.698    50.029502   0.94267757 
   89700    206.19811    327.79714    132349.25   -41864.254    2565.4965    -44429.75    49.952092   0.94366602 
   89800    207.70434    194.81567    132476.05   -41818.459    2584.2368   -44402.696    50.019529   0.94276278 
   89900     204.5412    195.95956    132389.29   -41873.888    2544.8814   -44418.769    50.031354   0.94338064 
   90000    206.95261    132.78512    132466.75    -41791.02     2574.884   -44365.904    49.980374     0.942829 
   90100    206.67649    225.07522    132568.01   -41802.573    2571.4484   -44374.022    50.004836   0.94210878 
   90200    210.82007    204.70735    132683.32   -41841.545    2623.0025   -44464.547    50.347401   0.94129008 
   90300    207.49475    113.93994    132587.52   -41850.558    2581.6291   -44432.187    50.174745   0.94197021 
   90400    208.32899    289.85343    132524.19   -41845.766    2592.0087   -44437.775    50.279507   0.94242031 
   90500    208.66433    61.316045     132493.1   -41814.849    2596.1809    -44411.03    50.339358   0.94264145 
   90600    211.39061    319.86351    132665.75   -41720.816    2630.1011   -44350.917    50.328333   0.94141472 
   90700    209.84423    226.31367    132653.43   -41725.794    2610.8612   -44336.656    50.303688   0.94150215 
   90800    209.88752    144.32199    132564.49   -41764.933    2611.3998   -44376.333    50.583116   0.94213385 
   90900    205.53815    308.08924    132535.17   -41850.443    2557.2853   -44407.728    50.629272   0.94234223 
   91000    204.34728    116.69422    132574.02   -41865.342    2542.4687   -44407.811    50.494746   0.94206609 
   91100    204.46222    129.52449    132690.78    -41838.44    2543.8987   -44382.338    50.697791   0.94123716 
   91200    210.67219    266.42716     132656.9   -41796.714    2621.1626   -44417.877    50.789645   0.94147756 
   91300    214.67561    265.63563    132676.47   -41708.052    2670.9727   -44379.025    50.700584   0.94133867 
   91400    212.35032    158.46828    132593.08   -41680.095    2642.0417   -44322.136    50.527839    0.9419307 
   91500    213.73247    288.01296     132658.6    -41681.69    2659.2383   -44340.929    50.557468   0.94146547 
   91600    211.69827    22.030525    132586.44   -41718.882    2633.9289   -44352.811    50.585605   0.94197787 
   91700    209.10454    135.91765    132442.06   -41779.134     2601.658   -44380.792    50.715553   0.94300478 
   91800    206.83312    229.81727    132471.05   -41727.596    2573.3972   -44300.993     50.80785   0.94279841 
   91900    205.19457    224.48149     132571.5   -41711.378    2553.0106   -44264.388    50.849107   0.94208404 
   92000    213.77334    235.79387    132593.41   -41716.644    2659.7467    -44376.39    50.814838   0.94192835 
   92100    207.94895    323.53194    132669.36   -41764.881    2587.2803   -44352.161    50.741708    0.9413891 
   92200     211.2306    217.51313    132608.89   -41705.258    2628.1103   -44333.368    50.897316   0.94181839 
   92300    213.62855    161.35333    132545.57     -41635.1    2657.9453   -44293.045    51.065916   0.94226835 
   92400    211.33658    193.28297    132487.83   -41649.415    2629.4289   -44278.844    51.096682   0.94267899 
   92500     213.7472    302.26997    132607.42   -41696.301    2659.4216   -44355.722    51.061875    0.9418288 
   92600     212.6807    177.21577    132583.83   -41673.919    2646.1523   -44320.071    51.099603   0.94199641 
   92700    214.72308    117.88627    132572.17   -41658.156    2671.5633    -44329.72    51.166644   0.94207923 
   92800    210.19724    300.10546    132477.04   -41705.292    2615.2532   -44320.545    51.271799   0.94275577 
   92900    211.26292    157.82432    132368.89     -41666.6    2628.5123   -44295.112    50.983958   0.94352599 
   93000     209.7447    205.42811    132413.88   -41683.626    2609.6228   -44293.249    51.137087   0.94320546 
   93100    208.78255     147.0452    132392.23   -41618.783    2597.6519   -44216.435    51.329608   0.94335965 
   93200    211.24353    268.90701    132306.79   -41618.723    2628.2711   -44246.994    51.239729   0.94396886 
   93300    208.78166    238.49488    132472.88   -41639.537    2597.6407   -44237.178    51.070875   0.94278539 
   93400    208.86052    54.768673     132480.6   -41664.972     2598.622   -44263.594    51.230806   0.94273043 
   93500    208.74415    51.154333    132446.62    -41715.08    2597.1741   -44312.254    51.183764   0.94297229 
   93600    204.76004    70.953631    132375.29   -41772.765    2547.6042   -44320.369    51.200744    0.9434804 
   93700    209.25583    129.26295    132447.46   -41736.843    2603.5404   -44340.384    51.221511   0.94296629 
   93800    210.16007    119.70989     132428.9   -41710.645    2614.7908   -44325.436    51.373669   0.94309844 
   93900    210.70339     217.4616    132350.42   -41698.353    2621.5507   -44319.903     51.36449    0.9436577 
   94000    208.72129    393.15367    132311.64   -41712.117    2596.8897   -44309.007    51.192423   0.94393427 
   94100    208.02375    140.99373    132336.69   -41719.885    2588.2109   -44308.096    51.206114   0.94375556 
   94200    209.27271    282.85904    132401.27   -41717.227    2603.7503   -44320.977    51.293504   0.94329528 
   94300    209.92922    308.13064    132566.89   -41669.644    2611.9185   -44281.562    51.510574    0.9421168 
   94400    210.30928    97.150938    132513.28   -41662.107    2616.6473   -44278.755    51.454605    0.9424979 
   94500    214.13622    159.91845    132534.48    -41613.24    2664.2617   -44277.502    51.471011   0.94234716 
   94600    210.66053     266.7183    132663.48   -41636.257    2621.0174   -44257.274     51.58788   0.94143082 
   94700    209.28107    144.87023    132704.95    -41672.97    2603.8543   -44276.825    51.640572   0.94113665 
   94800    206.91216    278.13973    132722.25   -41655.472    2574.3806   -44229.853    51.690764   0.94101399 
   94900    210.90642    227.50576    132622.67   -41623.348    2624.0768   -44247.425     51.69762   0.94172053 
   95000    211.98193    67.288853    132595.43   -41610.511    2637.4582   -44247.969    51.523415   0.94191399 
   95100    214.26031    192.44038    132387.34   -41603.872    2665.8056   -44269.678    51.541704   0.94339453 
   95200    212.80617    61.208516    132430.84   -41634.743    2647.7134   -44282.456    51.732769   0.94308461 
   95300    217.24671    217.47279    132560.42   -41552.615    2702.9621   -44255.577    51.684354   0.94216273 
   95400    209.04109    230.71934    132611.38    -41611.84    2600.8686   -44212.709    51.812651   0.94180071 
   95500      208.349    222.55888    132761.89   -41619.982    2592.2577    -44212.24    51.804544     0.940733 
   95600    216.36099    194.05753    132610.93   -41616.821    2691.9421   -44308.763    51.585411   0.94180387 
   95700    210.65826    59.605352    132584.23   -41677.995    2620.9893   -44298.984    51.636659   0.94199355 
   95800    208.55945    129.45243    132729.04   -41726.646     2594.876   -44321.522    51.979586   0.94096582 
   95900    209.77977    41.993513     132697.8   -41671.245    2610.0592   -44281.304    51.865936   0.94118734 
   96000    204.20606    124.41619    132532.73   -41740.243    2540.7116   -44280.954    51.817345   0.94235958 
   96100    208.83085    98.566982    132416.86    -41690.56    2598.2527   -44288.812     51.63979    0.9431842 
   96200    206.08955    82.519697    132462.62   -41727.809    2564.1458   -44291.954    51.876787   0.94285838 
   96300    210.79893     178.3903    132497.74   -41678.589    2622.7395   -44301.328    51.997911   0.94260847 
   96400    213.05834    103.21453    132520.02   -41662.609    2650.8508    -44313.46    52.011282   0.94245001 
   96500    207.07226     208.6393     132534.7   -41702.618    2576.3727    -44278.99    51.928882   0.94234561 
   96600    209.95921     145.0519    132536.79   -41698.192    2612.2917   -44310.484    51.754897    0.9423307 
   96700    204.08783    108.62566    132448.55   -41774.566    2539.2406   -44313.807    51.806362   0.94295857 
   96800    207.49313    239.78266    132547.77   -41819.664     2581.609   -44401.273    52.105338   0.94225264 
   96900     208.6284    256.47365    132644.43   -41765.264    2595.7339   -44360.998    52.323997   0.94156604 
   97000    206.71632    90.973946    132586.22   -41770.325     2571.944   -44342.269    52.198329   0.94197944 
   97100    208.89678    189.76099    132586.74   -41764.908    2599.0731   -44363.981    52.139979   0.94197575 
   97200    208.58235     193.6851    132519.97   -41771.671     2595.161   -44366.832    52.045044   0.94245031 
   97300    209.88954    146.44174    132375.78   -41767.397    2611.4249   -44378.822    51.872165    0.9434769 
   97400    206.54791    223.85905    132589.98   -41763.268    2569.8486   -44333.116    52.060195   0.94195268 
   97500    209.34741    141.23474    132582.85   -41672.672    2604.6797   -44277.352    52.073091   0.94200334 
   97600    207.44161    187.70667    132544.68   -41740.325    2580.9681   -44321.293    52.067196   0.94227461 
   97700    212.59969    199.47793    132584.55   -41678.449    2645.1444   -44323.594    52.253252   0.94199129 
   97800     213.2771     207.3422    132582.13   -41650.822    2653.5726   -44304.395    52.164472   0.94200852 
   97900    212.49179    135.86172    132662.23   -41626.468    2643.8018    -44270.27    52.378039   0.94143969 
   98000    215.22306    340.29883    132594.38   -41653.221     2677.784   -44331.005    52.353136   0.94192147 
   98100     207.5263    231.88164    132543.97   -41735.486    2582.0217   -44317.507    52.128486   0.94227971 
   98200    210.74845    284.52155    132524.34   -41714.142    2622.1114   -44336.253     52.16137   0.94241926 
   98300    210.27893    310.53081    132529.25   -41732.298    2616.2697   -44348.568    52.235645   0.94238434 
   98400    207.05944    44.728822    132596.69   -41737.985    2576.2131   -44314.199    52.221303   0.94190506 
   98500     206.2391    243.91645    132515.99   -41739.079    2566.0065   -44305.085    52.355601   0.94247866 
   98600    210.96346    267.67722    132586.76    -41753.78    2624.7865   -44378.567    52.337232   0.94197557 
   98700    205.23227    277.37459    132626.64   -41803.217    2553.4796   -44356.697     52.44271   0.94169236 
   98800    206.93539    215.78301    132634.63    -41770.24    2574.6697    -44344.91    52.455478   0.94163561 
   98900    204.75308    84.998011    132553.74   -41776.607    2547.5176   -44324.125    52.565474   0.94221027 
   99000    204.80328    78.742046     132396.4   -41816.781    2548.1421   -44364.923    52.385407   0.94332994 
   99100    208.98866    61.720161     132491.4   -41744.566    2600.2162   -44344.782    52.464421   0.94265357 
   99200    208.08657      311.326    132627.39   -41736.976    2588.9926   -44325.969     52.50867   0.94168699 
   99300    212.94852    177.48153    132663.04   -41693.762    2649.4844   -44343.247    52.630732   0.94143399 
   99400    214.34185    283.64418    132649.89   -41673.661    2666.8201   -44340.481    52.908946   0.94152728 
   99500    210.97008    168.61727    132650.25   -41568.823    2624.8688   -44193.692    52.923303   0.94152471 
   99600    215.76411    182.77987    132632.06   -41592.562    2684.5157   -44277.077    52.867832   0.94165389 
   99700     212.3216    254.44162    132602.07   -41607.909    2641.6844   -44249.593    52.914962   0.94186685 
   99800    211.12976    86.634104    132557.07   -41632.938    2626.8556   -44259.794    53.003922   0.94218654 
   99900    210.00348    300.30942    132503.13    -41696.62    2612.8425   -44309.463    52.922805   0.94257009 
  100000     213.5884    168.48432     132467.2    -41701.39    2657.4458   -44358.836    52.986446   0.94282581 
  100100    211.43538    199.86914     132464.6   -41639.285    2630.6581   -44269.943    53.118181   0.94284428 
  100200    214.02359    152.66651     132503.4   -41648.508    2662.8604   -44311.369    52.928953   0.94256821 
  100300    205.32792    233.20489    132371.27   -41637.772    2554.6696   -44192.442    52.970553   0.94350904 
  100400     212.2268     210.4602    132523.13   -41665.701    2640.5049   -44306.206    52.984101   0.94242784 
  100500    212.11526    85.847707    132541.02   -41588.092    2639.1171   -44227.209    53.113681   0.94230068 
  100600    214.52565    328.65445    132707.26   -41669.761     2669.107   -44338.868    53.123442   0.94112025 
  100630    209.96977    71.986533    132682.39   -41657.374    2612.4231   -44269.797     53.24903   0.94129663 
Loop time of 77.1949 on 6 procs for 100000 steps with 4175 atoms

Performance: 559.623 ns/day, 0.043 hours/ns, 1295.423 timesteps/s
98.3% CPU use with 6 MPI tasks x no OpenMP threads

MPI task timing breakdown:
Section |  min time  |  avg time  |  max time  |%varavg| %total
---------------------------------------------------------------
Pair    | 60.908     | 62.816     | 64.627     |  14.4 | 81.37
Neigh   | 4.8508     | 4.9245     | 5.0296     |   3.3 |  6.38
Comm    | 4.9716     | 6.8822     | 8.8423     |  46.1 |  8.92
Output  | 0.15947    | 0.16029    | 0.16397    |   0.4 |  0.21
Modify  | 1.7528     | 1.7737     | 1.785      |   0.9 |  2.30
Other   |            | 0.6381     |            |       |  0.83

Nlocal:        695.833 ave         708 max         684 min
Histogram: 1 1 0 0 1 0 1 1 0 1
Nghost:        1454.67 ave        1471 max        1440 min
Histogram: 1 1 0 1 0 1 0 1 0 1
Neighs:        0.00000 ave           0 max           0 min
Histogram: 6 0 0 0 0 0 0 0 0 0
FullNghs:      19080.7 ave       19374 max       18711 min
Histogram: 1 0 1 0 1 0 0 0 2 1

Total # of neighbors = 114484
Ave neighs/atom = 27.421317
Neighbor list builds = 5222
Dangerous builds = 0

undump              1
unfix               2
unfix               3
unfix               4


################################################
#######         Run Simulation         #########
################################################

reset_timestep      0
log                 log.run_${NAME}
log                 log.run_liquid_density_MLmW
