
# Create simulation box of size 50 x 50 x 50 Angstrom
#
lattice	            sc 1
Lattice spacing in x,y,z = 1.0000000 1.0000000 1.0000000
region 	            all block 0 50 0 50 0 50 units box
create_box          1 all
Created orthogonal box = (0.0000000 0.0000000 0.0000000) to (50.000000 50.000000 50.000000)
  1 by 2 by 3 MPI processor grid

# fill box with 4175 randomly distributed atoms
#
create_atoms        1 random 4175 63782 all
Created 4175 atoms
  create_atoms CPU = 0.001 seconds
mass                1 18.015

# Define potential
#
pair_style          sw
pair_coeff          * * ML_mW.sw mW
Reading sw potential file ML_mW.sw with DATE: 2019-02-27

# Run minimization
#
minimize            1.0e-8 1.0e-8 10000 1000
WARNING: Using 'neigh_modify every 1 delay 0 check yes' setting during minimization (../min.cpp:187)
Neighbor list info ...
  update every 1 steps, delay 0 steps, check yes
  max neighbors/atom: 2000, page size: 100000
  master list distance cutoff = 6.0032907
  ghost atom cutoff = 6.0032907
  binsize = 3.0016454, bins = 17 17 17
  1 neighbor lists, perpetual/occasional/extra = 1 0 0
  (1) pair sw, perpetual
      attributes: full, newton on
      pair build: full/bin/atomonly
      stencil: full/bin/3d
      bin: standard
Per MPI rank memory allocation (min/avg/max) = 4.255 | 4.258 | 4.261 Mbytes
Step Temp E_pair E_mol TotEng Press 
       0            0    7792709.3            0    7792709.3    5898794.3 
     630            0   -45180.336            0   -45180.336   -154.07449 
Loop time of 1.16461 on 6 procs for 630 steps with 4175 atoms

98.2% CPU use with 6 MPI tasks x no OpenMP threads

Minimization stats:
  Stopping criterion = max force evaluations
  Energy initial, next-to-last, final = 
      7792709.32924461  -45180.0188663597   -45180.336116598
  Force two-norm initial, final = 2.0191930e+08 4.9721331
  Force max component initial, final = 1.0948746e+08 0.73126211
  Final line search alpha, max atom move = 0.053306038 0.038980685
  Iterations, force evaluations = 630 1000

MPI task timing breakdown:
Section |  min time  |  avg time  |  max time  |%varavg| %total
---------------------------------------------------------------
Pair    | 0.87261    | 0.98473    | 1.0687     |   6.5 | 84.55
Neigh   | 0.023753   | 0.024445   | 0.02491    |   0.3 |  2.10
Comm    | 0.050708   | 0.13474    | 0.24801    |  17.7 | 11.57
Output  | 0          | 0          | 0          |   0.0 |  0.00
Modify  | 0          | 0          | 0          |   0.0 |  0.00
Other   |            | 0.02069    |            |       |  1.78

Nlocal:        695.833 ave         704 max         685 min
Histogram: 1 1 0 0 1 0 0 1 0 2
Nghost:        1494.17 ave        1515 max        1468 min
Histogram: 1 1 0 0 0 0 1 1 1 1
Neighs:        0.00000 ave           0 max           0 min
Histogram: 6 0 0 0 0 0 0 0 0 0
FullNghs:      19997.0 ave       20462 max       19320 min
Histogram: 1 1 0 0 0 0 0 2 0 2

Total # of neighbors = 119982
Ave neighs/atom = 28.738204
Neighbor list builds = 26
Dangerous builds = 0

# Add velocity/set timestep
#
velocity            all create ${TEMP} 120598 rot yes dist gaussian
velocity            all create 230 120598 rot yes dist gaussian
timestep            5.0

# Define output
#
compute	            1 all msd
thermo	            100
thermo_style        custom step temp press vol etotal ke pe c_1[4] density

# Neighbor lists
#
neigh_modify        delay 0 every 1 check yes

# Set fixes
#
fix                 1 all momentum 10 linear 1 1 1 rescale
fix                 2 all nve
fix                 3 all temp/csvr ${TEMP} ${TEMP} 500.0 928347
fix                 3 all temp/csvr 230 ${TEMP} 500.0 928347
fix                 3 all temp/csvr 230 230 500.0 928347
fix                 4 all press/berendsen iso ${PRES} ${PRES} 1000.0 modulus 20000
fix                 4 all press/berendsen iso -450 ${PRES} 1000.0 modulus 20000
fix                 4 all press/berendsen iso -450 -450 1000.0 modulus 20000

# Run 0.5 ns equilibration
#
dump                1 all custom 1000 eq.${NAME}.dump id type x y z vx vy vz
dump                1 all custom 1000 eq.liquid_density_MLmW.dump id type x y z vx vy vz
run                 100000
Per MPI rank memory allocation (min/avg/max) = 3.506 | 3.508 | 3.511 Mbytes
Step Temp Press Volume TotEng KinEng PotEng c_1[4] Density 
     630          230    892.42114       125000   -42318.699    2861.6373   -45180.336 2.7295415e-33   0.99914793 
     700    146.25494   -387.46829    125898.82   -41434.244    1819.6895   -43253.934   0.27539786   0.99201481 
     800    181.38771   -590.40411    126120.53   -40625.036     2256.808   -42881.844   0.63699354   0.99027092 
     900    198.69582   -413.27618    126094.73   -40175.043    2472.1537   -42647.196    1.1052197   0.99047349 
    1000    211.37595   -195.61741    126307.49   -39880.769    2629.9187   -42510.688    1.5038337   0.98880513 
    1100     219.2483   -350.50898    126483.21   -39686.273    2727.8657   -42414.138    1.9326079   0.98743137 
    1200    222.07304   -421.77816    126598.29   -39704.324    2763.0108   -42467.335    2.3877783    0.9865338 
    1300    225.77397   -413.20973    126912.05   -39691.858    2809.0575   -42500.915    2.7570939   0.98409484 
    1400    223.44386   -544.56745    127082.52   -39707.433    2780.0664     -42487.5    3.1193842   0.98277477 
    1500    231.21681   -386.24689    127325.71   -39648.601    2876.7767   -42525.378    3.4434423   0.98089767 
    1600    232.16525   -411.09431     127515.1   -39573.649    2888.5771   -42462.226    3.8807201   0.97944079 
    1700    231.54924   -344.06274    127493.55   -39609.454    2880.9128   -42490.367    4.2454262   0.97960638 
    1800     228.1386   -359.41582    127678.63   -39712.455     2838.478   -42550.933    4.6073044   0.97818635 
    1900    228.29113   -541.88524    127692.78   -39703.924    2840.3757     -42544.3    4.8787325   0.97807796 
    2000    230.66533   -395.94678     127894.5   -39652.464    2869.9153   -42522.379    5.2706695   0.97653524 
    2100     231.8067   -312.03448    128169.55   -39601.913    2884.1161   -42486.029    5.7242502   0.97443967 
    2200    232.21849    -733.6248    128291.36   -39620.384    2889.2395   -42509.623    5.9738863   0.97351445 
    2300    232.24925   -375.71566    128221.79   -39614.003    2889.6222   -42503.625    6.4396603   0.97404262 
    2400    231.33869   -360.92575    128508.38   -39631.662    2878.2931   -42509.955    6.6735409   0.97187038 
    2500    234.39211    -495.2836     128323.8   -39608.321    2916.2834   -42524.605    6.8960723   0.97326834 
    2600    235.27268    -432.1279    128485.63   -39568.905    2927.2395   -42496.144    7.2925388   0.97204249 
    2700    232.36326   -511.59961    128561.45   -39594.054    2891.0407   -42485.094    7.6130549   0.97146919 
    2800    231.89336   -560.74327    128461.93   -39574.909    2885.1942   -42460.104    8.0007978   0.97222179 
    2900    232.32781   -478.81111    128433.55   -39655.342    2890.5996   -42545.942    8.3292388   0.97243667 
    3000    236.62774    -196.9877    128588.98   -39704.042    2944.0989   -42648.141    8.5912075   0.97126126 
    3100     235.3807   -622.94513    128634.98   -39682.361    2928.5834   -42610.944    8.9358782   0.97091394 
    3200    232.24719   -385.87279    128508.04   -39753.123    2889.5966    -42642.72    9.2568581   0.97187294 
    3300    233.19187    -496.4279    128510.05   -39749.348    2901.3502   -42650.698    9.5369167   0.97185781 
    3400     227.3112   -344.85601     128606.2   -39789.971    2828.1835   -42618.154    9.8662539   0.97113119 
    3500    227.78204   -499.87078     128528.6   -39827.804    2834.0417   -42661.845     9.952722    0.9717175 
    3600    226.84021   -317.12533    128544.55   -39859.252    2822.3234   -42681.576    10.230051   0.97159697 
    3700     223.1436   -603.54051    128552.49   -39904.327    2776.3306   -42680.658    10.549564   0.97153693 
    3800    227.66294   -346.86792    128612.01   -39839.368    2832.5598   -42671.928    10.775943   0.97108733 
    3900    228.86903   -475.83919    128653.54   -39872.564    2847.5658   -42720.129    11.157721   0.97077386 
    4000    227.56442   -269.26392    128641.65   -39869.902    2831.3341   -42701.236    11.409632    0.9708636 
    4100    229.32351   -243.67493    128930.12   -39868.259    2853.2204    -42721.48     11.95815   0.96869134 
    4200    227.09271   -224.56148     129003.9   -39877.295     2825.465    -42702.76    12.275698   0.96813731 
    4300    227.50879   -298.50404    129081.75   -39885.197    2830.6419   -42715.839    12.505827   0.96755341 
    4400    229.62691   -601.73163    128982.73   -39886.555    2856.9954    -42743.55    12.828848   0.96829624 
    4500    230.23588   -405.76382    129126.43   -39888.267    2864.5721   -42752.839    13.045077   0.96721865 
    4600    230.28632   -353.94527    129192.16   -39940.094    2865.1997   -42805.293    13.271109   0.96672657 
    4700    234.89317   -452.50228    129541.02   -39866.964    2922.5176   -42789.482    13.480348   0.96412313 
    4800    227.54709   -339.82805     129394.8   -39927.745    2831.1184   -42758.864    13.627581   0.96521259 
    4900    232.85908   -468.41328    129513.04   -39791.939    2897.2096   -42689.149    13.875944    0.9643314 
    5000    230.67614   -266.39052    129464.58   -39743.234    2870.0498   -42613.284    14.150187   0.96469233 
    5100    234.47149   -513.30838    129435.08   -39812.512    2917.2712   -42729.783    14.441888   0.96491225 
    5200    227.53484   -569.83023     129559.5   -39870.473     2830.966   -42701.439    14.805704   0.96398562 
    5300    227.92159    -305.6226    129672.35   -39840.252    2835.7778    -42676.03    14.984828   0.96314666 
    5400    228.59283   -612.52307    129687.27   -39886.734    2844.1294   -42730.863    15.209454   0.96303585 
    5500    232.33233   -394.63722    129697.33    -39899.47    2890.6559   -42790.126    15.542982   0.96296116 
    5600    232.79927   -466.20537    129590.76   -39908.903    2896.4655   -42805.369     15.83238   0.96375307 
    5700    228.52166    -600.7151    129623.86   -39912.225    2843.2439   -42755.469    16.244415   0.96350694 
    5800     227.0725   -561.35783    129719.18   -39952.888    2825.2136   -42778.102    16.339777   0.96279893 
    5900    230.05091   -513.03551    129468.68   -40002.974    2862.2706   -42865.244    16.364324   0.96466182 
    6000    228.78953   -418.25213    129358.58   -40007.108    2846.5768   -42853.685    16.550415   0.96548284 
    6100    233.28217   -453.79134    129545.27   -39929.631    2902.4736   -42832.105     16.85155   0.96409151 
    6200    228.28526   -496.08579    129559.92   -39999.817    2840.3026   -42840.119    17.203734   0.96398246 
    6300     230.5654   -63.087921    129893.52   -39971.546    2868.6719   -42840.218    17.485536   0.96150668 
    6400    229.79277   -299.30497     129921.9   -39951.631    2859.0589    -42810.69    17.661773   0.96129666 
    6500    231.15826   -498.13424    129800.05   -39916.354    2876.0483   -42792.402    17.805518    0.9621991 
    6600    228.03836   -407.72338    129712.64   -40007.781    2837.2307   -42845.012    18.055347   0.96284753 
    6700    224.00489   -430.91616    129502.87   -40083.853    2787.0467     -42870.9    18.394809   0.96440711 
    6800    231.40175   -423.59255    129807.25    -39986.24    2879.0777   -42865.318    18.625211   0.96214574 
    6900     234.2912    45.244499    129953.14   -39924.939    2915.0279   -42839.967    18.894141   0.96106557 
    7000    233.77005   -340.88165    130494.95   -39933.242    2908.5438   -42841.786    19.215553   0.95707527 
    7100    231.58054   -508.39389    130267.93   -39975.279    2881.3022   -42856.581    19.320001   0.95874321 
    7200    232.23537   -574.76105    130225.49    -40029.16    2889.4495    -42918.61    19.573581   0.95905563 
    7300    228.29825   -502.47386    130169.55   -40089.986    2840.4643   -42930.451    19.871696   0.95946781 
    7400    229.47363   -461.21481    130071.93   -40116.786    2855.0882   -42971.874    19.964702    0.9601879 
    7500    223.66267   -347.45327    130250.46   -40082.992    2782.7888   -42865.781    20.285757   0.95887182 
    7600    222.73495   -439.55135    130277.81   -40158.453    2771.2462   -42929.699    20.419873   0.95867045 
    7700    228.61156   -357.58116    130377.34   -40041.449    2844.3625   -42885.811    20.443527   0.95793865 
    7800    232.80246   -321.81347    130247.95   -40023.901    2896.5052   -42920.407    20.665534    0.9588903 
    7900    228.50401   -392.19275    130432.02   -40091.422    2843.0242   -42934.446    20.945163   0.95753704 
    8000    232.74932   -259.53608    130357.57   -40074.071     2895.844   -42969.915    20.950455   0.95808388 
    8100    223.75567   -297.76919     130398.6   -40148.899    2783.9459   -42932.845    20.992123   0.95778246 
    8200    222.31357   -470.23558    130266.74   -40156.052    2766.0035   -42922.055    21.294522   0.95875194 
    8300    225.50891   -453.85589    130146.78   -40137.989    2805.7596   -42943.748    21.454704   0.95963562 
    8400    227.62243   -442.53841    130081.57   -40091.904    2832.0558    -42923.96      21.7228   0.96011671 
    8500    232.83049   -455.36126    130154.15   -40026.532     2896.854   -42923.385    21.797592   0.95958131 
    8600    227.50731   -213.71312    130399.87   -40054.354    2830.6234   -42884.977    21.823805   0.95777309 
    8700    229.71003   -534.58563    130636.67   -40038.144    2858.0294   -42896.174    22.000138     0.956037 
    8800    229.98702   -391.32638    130781.18   -40078.916    2861.4758   -42940.391    22.107543   0.95498058 
    8900    225.57788   -323.58456    130658.45   -40158.227    2806.6176   -42964.844    22.199207   0.95587763 
    9000    228.82838   -496.02324    130600.45   -40116.697      2847.06   -42963.757    22.598248   0.95630216 
    9100    224.54504   -390.97033    130452.23    -40199.54    2793.7672   -42993.307    22.821748   0.95738867 
    9200    227.38128   -308.18445     130732.1   -40096.431    2829.0554   -42925.487    23.197455   0.95533913 
    9300    230.90596   -423.19285    130958.27   -40155.929    2872.9091   -43028.838    23.468336   0.95368922 
    9400    231.55589   -490.06248    131055.16   -40120.212    2880.9955   -43001.207    23.822052   0.95298415 
    9500    228.35069   -186.27491     131137.6   -40139.585    2841.1167   -42980.701     23.85462   0.95238506 
    9600    231.75164   -592.31046     131104.4   -40114.721     2883.431   -42998.152     23.85499   0.95262624 
    9700    227.28376    -603.2001    131126.69   -40051.131    2827.8421   -42878.973    23.817754   0.95246432 
    9800    231.00547   -523.34566    130896.17    -40136.42    2874.1473   -43010.567    23.972595   0.95414167 
    9900    226.02935    -436.3919    131058.13   -40221.272    2812.2348   -43033.507    24.182394   0.95296259 
   10000    228.14177   -739.35023    130688.67   -40235.455    2838.5174   -43073.973    24.408859   0.95565664 
   10100    229.48744   -498.16656    130537.83   -40197.819    2855.2601   -43053.079    24.614387    0.9567609 
   10200    225.99817   -339.20205    130737.71   -40243.806    2811.8469   -43055.653    24.893332   0.95529814 
   10300    229.28505    -524.6638    130702.48   -40225.803     2852.742   -43078.545    25.159537   0.95555566 
   10400    227.11407   -338.30188    130978.91   -40147.952    2825.7308   -42973.683    25.217898   0.95353893 
   10500    225.35013    -384.2865    131113.19   -40126.822    2803.7841   -42930.606    25.307873   0.95256234 
   10600    233.99482   -151.64267    131247.07   -40045.261    2911.3405   -42956.601     25.43242   0.95159069 
   10700    233.90591   -442.23388    131459.08   -40038.816    2910.2343    -42949.05    25.521699     0.950056 
   10800    234.14254   -660.63473    131340.24   -40035.318    2913.1784   -42948.496    25.726929   0.95091564 
   10900    230.82071   -328.10392    131187.99   -40066.221    2871.8485   -42938.069    25.861619   0.95201925 
   11000    232.17579   -482.46301    131155.59   -40069.429    2888.7083   -42958.138    26.011831   0.95225443 
   11100    225.64302   -552.86008    131178.54   -40130.674    2807.4282   -42938.102    26.261512   0.95208785 
   11200    232.65225   -422.15475    131181.29   -40131.036    2894.6363   -43025.673    26.402542    0.9520679 
   11300     229.1619   -716.28621    131091.58   -40145.343    2851.2097   -42996.553    26.663562   0.95271943 
   11400     228.1182   -325.37569    131159.82   -40147.167     2838.224   -42985.391    26.742777   0.95222373 
   11500    226.83269   -540.96281    131155.52   -40178.435    2822.2299   -43000.665    26.836549   0.95225491 
   11600    229.72477   -513.17451    131126.61   -40174.136    2858.2129   -43032.349    26.872317   0.95246488 
   11700    234.67942    -356.8598    131077.67   -40069.223    2919.8581   -42989.082    27.168569   0.95282049 
   11800      224.635   -734.15936    131021.46   -40149.633    2794.8865   -42944.519    27.793704   0.95322929 
   11900    235.01862   -444.54626    131115.76   -40157.999    2924.0785   -43082.077    28.092404   0.95254373 
   12000    225.66572   -429.44206    131064.97   -40159.507    2807.7106   -42967.217    28.296536   0.95291281 
   12100    234.02542   -407.65456    131098.79   -40108.266    2911.7211   -43019.987    28.515627     0.952667 
   12200    230.30457   -545.66324     130940.9   -40115.816    2865.4267   -42981.242    28.674173   0.95381577 
   12300     231.5473   -365.52902    130972.48   -40126.119    2880.8886   -43007.007    28.778672   0.95358573 
   12400    232.75441   -487.66388    131080.61   -40116.523    2895.9074    -43012.43    28.926589    0.9527991 
   12500    223.62249   -303.99035    130818.11   -40217.866    2782.2889   -43000.155    28.881247   0.95471101 
   12600    229.59812   -473.71816    130851.41    -40119.19    2856.6371   -42975.828     28.99948   0.95446809 
   12700    232.36098   -522.15438    130900.86   -40087.105    2891.0123   -42978.117    29.292271   0.95410749 
   12800     232.8042    -337.3048    130754.69   -40077.771    2896.5268   -42974.298    29.475875   0.95517409 
   12900     233.1311   -560.14971    130634.43   -40140.395    2900.5941   -43040.989    29.733961   0.95605343 
   13000    231.08811   -649.72934    130726.45   -40081.995    2875.1754   -42957.171    29.887408   0.95538044 
   13100    239.02633   -667.31239    130734.84   -40087.986    2973.9419   -43061.928    29.908716   0.95531915 
   13200    231.85562    -614.8575    130624.27   -40002.506    2884.7247   -42887.231    30.186088   0.95612774 
   13300    230.98395   -371.47351     130724.6   -40027.253    2873.8795   -42901.133    30.290731   0.95539392 
   13400     231.8422   -709.50109     130586.7   -40121.989    2884.5577   -43006.547      30.3449   0.95640284 
   13500    229.28513   -411.37825    130406.35    -40147.62     2852.743   -43000.363    30.360212   0.95772551 
   13600    226.14187   -453.03798     130422.7   -40144.076    2813.6349   -42957.711    30.646715   0.95760549 
   13700    228.92192   -301.55086    130415.17   -40127.038    2848.2239   -42975.262    30.880126   0.95766079 
   13800    231.87971   -460.80412    130559.02    -40033.02    2885.0245   -42918.045    31.287217   0.95660559 
   13900    230.33642   -368.15979    130703.63   -40067.602     2865.823   -42933.425    31.590241   0.95554722 
   14000     231.0428   -592.07984    130527.61   -40059.709    2874.6117   -42934.321    31.795538    0.9568358 
   14100    232.30764   -467.43632    130458.02    -40069.21    2890.3486   -42959.559    31.814085   0.95734623 
   14200    228.83844    -424.4138    130540.05   -40110.849    2847.1853   -42958.034    31.764187   0.95674463 
   14300    225.43247   -434.24829    130432.71   -40164.645    2804.8085   -42969.454    31.897786   0.95753201 
   14400    227.49324   -390.89184    130512.77   -40132.245    2830.4484   -42962.694    32.176039   0.95694458 
   14500    228.99532   -503.89478    130550.83   -40076.584    2849.1371   -42925.721    32.651603   0.95666562 
   14600    235.46338   -569.07482    130449.24   -40087.684    2929.6121   -43017.296    32.813145   0.95741068 
   14700    230.20925   -383.91833    130417.43   -40154.983    2864.2407   -43019.224    33.077892   0.95764416 
   14800    228.88579   -445.15378    130619.64    -40192.76    2847.7744   -43040.535    33.183985   0.95616165 
   14900    223.42865   -406.32781    130400.12    -40255.82    2779.8771   -43035.697    33.550811   0.95777126 
   15000    222.83181   -412.72567    130437.97   -40243.342    2772.4514   -43015.793      33.6208   0.95749338 
   15100    223.91296    -394.2002     130619.6   -40259.718    2785.9029   -43045.621    33.862628   0.95616193 
   15200    230.26787   -430.20403    130530.88   -40199.262    2864.9701   -43064.232    34.021958   0.95681185 
   15300    226.93479   -425.24514    130515.59   -40220.319    2823.5002   -43043.819    34.087104   0.95692393 
   15400     228.3063   -520.62542    130610.29   -40217.883    2840.5645   -43058.447    34.511711   0.95623011 
   15500    229.42319   -526.42573    130500.26   -40191.168    2854.4606   -43045.629    34.539598   0.95703632 
   15600    232.03799   -356.09367    130589.37     -40113.1    2886.9937   -43000.094    34.838075    0.9563833 
   15700    228.80778   -528.98299     130647.7   -40205.718    2846.8038   -43052.521    35.012494   0.95595627 
   15800    224.07461    -397.5876    130493.07   -40202.809    2787.9142   -42990.723    35.212172   0.95708906 
   15900    227.41481   -520.64737    130351.52   -40241.862    2829.4726   -43071.334    35.405012    0.9581284 
   16000    226.43534   -317.10711    130549.21   -40169.215    2817.2861   -42986.501    35.604459    0.9566775 
   16100    228.32017    -531.5958    130451.16   -40108.225     2840.737   -42948.962      35.7457   0.95739657 
   16200    230.14838   -484.87754    130596.14   -40170.171    2863.4834   -43033.654    35.688361   0.95633374 
   16300    228.15551   -426.44126    130644.13     -40179.9    2838.6884   -43018.588    35.800753   0.95598241 
   16400    232.10816   -414.00915    130758.46   -40089.298    2887.8668   -42977.165    36.109122   0.95514652 
   16500    233.70821   -536.57335    130858.71   -40074.362    2907.7744   -42982.136    36.405398   0.95441484 
   16600    232.55153   -373.48283     130928.5   -40063.452    2893.3832   -42956.835    36.480161   0.95390609 
   16700    226.37571   -376.73938    130966.57   -40090.336    2816.5442   -42906.881    36.822966    0.9536288 
   16800    231.89421   -628.92809    130821.69   -40079.729    2885.2048   -42964.934    36.707358   0.95468493 
   16900    234.97994   -255.69946    130783.46   -40046.963    2923.5971   -42970.561    36.885253   0.95496394 
   17000    231.25876   -365.60232    130744.39   -40065.871    2877.2986   -42943.169    37.268594   0.95524935 
   17100    234.11618    -493.0723    130646.41   -40000.532    2912.8503   -42913.383    37.336971   0.95596571 
   17200    231.20032    -465.6837    130596.19   -40017.964    2876.5715   -42894.536      37.5316   0.95633335 
   17300    232.17714   -381.93042    130666.82   -40070.754     2888.725   -42959.479    37.999237    0.9558164 
   17400    228.80365   -500.49498    130745.77    -40112.46    2846.7524   -42959.213    38.051619   0.95523925 
   17500    227.49147   -446.04752    130664.66   -40094.805    2830.4263   -42925.232    38.092542   0.95583224 
   17600    228.57543    -339.9166    130563.48   -40057.521    2843.9129   -42901.434    38.141155    0.9565729 
   17700    228.81013   -479.81961    130629.68   -40071.269     2846.833   -42918.102    38.202933   0.95608815 
   17800    230.39743   -474.83909    130595.15   -40076.703     2866.582   -42943.285    38.493305   0.95634098 
   17900    230.29571   -489.20634    130691.98   -40040.311    2865.3165   -42905.627     39.10901   0.95563241 
   18000    233.36465   -296.37231    130823.14   -39998.111    2903.4999    -42901.61    39.625109   0.95467435 
   18100    228.20124    -436.5013    130731.63   -40109.761    2839.2572   -42949.019    39.767595   0.95534259 
   18200    229.51079   -778.64018    130689.84   -40128.483    2855.5506   -42984.033    39.894179   0.95564806 
   18300    233.17082   -559.98604    130599.41   -40053.244    2901.0883   -42954.332    39.890303   0.95630978 
   18400    230.81838   -537.43613    130526.49   -40126.765    2871.8195   -42998.585     40.02283   0.95684403 
   18500    230.81805   -662.71819    130640.19   -40079.648    2871.8154   -42951.464    40.148154   0.95601126 
   18600    229.30903    -416.1358    130865.72   -40127.035    2853.0403   -42980.076    40.442222   0.95436369 
   18700    227.66544   -595.96526    130706.74   -40103.383    2832.5908   -42935.974    40.608046   0.95552447 
   18800    232.57862   -551.87939    130938.55   -40072.954    2893.7202   -42966.674    40.786409   0.95383284 
   18900    229.56884   -504.27905    130933.98   -40112.845    2856.2728   -42969.117    41.168538   0.95386617 
   19000    229.66776   -395.95249    130949.29   -40090.536    2857.5035    -42948.04    41.261622   0.95375463 
   19100    231.78318    -499.7899    130594.56   -40159.582    2883.8234   -43043.406    41.252122   0.95634526 
   19200    232.19691   -528.55325     130441.2   -40136.818     2888.971   -43025.789    41.435797   0.95746965 
   19300    234.65428   -280.39572    130662.55    -40079.83    2919.5453   -42999.376    41.608733   0.95584766 
   19400    230.85756   -485.04676    130597.83   -40090.259     2872.307   -42962.566    41.754672   0.95632133 
   19500    230.15156   -502.66442    130771.61   -40066.239    2863.5229   -42929.762     41.73689   0.95505047 
   19600    228.38066   -436.42234    130730.13   -40107.018    2841.4896   -42948.508    41.739893   0.95535353 
   19700    235.08555   -526.73029    130755.02     -40081.1    2924.9112   -43006.011    42.036214   0.95517166 
   19800    232.84108   -561.02563    130763.16   -40127.013    2896.9857   -43023.999    42.212383   0.95511221 
   19900    234.13699   -350.56828    130678.55   -40149.974    2913.1093   -43063.083    42.264338   0.95573063 
   20000    230.35958   -514.57726    130608.45   -40203.251    2866.1111   -43069.362    42.602566    0.9562436 
   20100    230.84606   -519.56507    130247.31   -40155.709    2872.1638   -43027.872    42.820173   0.95889495 
   20200    226.55447   -533.81389    130399.28   -40188.768    2818.7683   -43007.536    43.051857   0.95777743 
   20300    230.44449   -377.71318    130306.26   -40212.365    2867.1676   -43079.533    43.239176   0.95846121 
   20400    228.80527   -463.95893    130195.92    -40210.18    2846.7725   -43056.953    43.106006   0.95927345 
   20500    229.02435   -415.60755    130293.76   -40171.618    2849.4983   -43021.117    43.284575   0.95855313 
   20600    228.40589    -405.9573    130474.29   -40196.933    2841.8035   -43038.737    43.614585   0.95722682 
   20700    227.93135     -456.272    130407.01   -40118.752    2835.8994   -42954.652    43.865345    0.9577207 
   20800    231.03062   -404.58296    130512.53   -40117.217    2874.4601   -42991.677    43.824204   0.95694638 
   20900    226.31279   -589.79434    130665.33    -40157.12    2815.7614   -42972.881    44.361396   0.95582731 
   21000    224.93383   -499.26538    130626.68   -40234.818    2798.6044   -43033.422    44.468753   0.95611013 
   21100    225.14822   -431.51373    130518.65   -40238.623    2801.2719   -43039.895     44.65392   0.95690151 
   21200    228.40086   -644.03488    130468.81   -40207.711    2841.7409   -43049.452    44.806534   0.95726706 
   21300    228.62141   -473.07836    130657.11   -40215.394     2844.485   -43059.879    44.938879   0.95588745 
   21400    230.31601   -438.50237    130694.39   -40192.084    2865.5691   -43057.654    45.150585   0.95561481 
   21500     229.2133   -386.96584    130953.53   -40200.907    2851.8492   -43052.757    45.322828   0.95372374 
   21600    232.37677   -528.01631    130969.72   -40159.445    2891.2089   -43050.654    45.404018   0.95360586 
   21700    228.85447   -458.50333    131034.46   -40158.386    2847.3847    -43005.77    45.953906   0.95313474 
   21800     232.4408   -336.17498    131070.69   -40150.398    2892.0055   -43042.404    46.038326   0.95287125 
   21900    236.51135   -304.41488    131145.22   -40187.477    2942.6509   -43130.128     46.03494   0.95232975 
   22000    228.33597   -341.88462     131073.5   -40249.795    2840.9336   -43090.729    45.944016   0.95285079 
   22100    230.78658   -563.53283    131124.08   -40195.458    2871.4238   -43066.882    46.434812   0.95248328 
   22200    231.17864   -299.54004    131138.28    -40239.48    2876.3018   -43115.782    46.590191    0.9523801 
   22300    232.14207   -455.21725    131057.18   -40217.489    2888.2886   -43105.778    46.647862   0.95296946 
   22400    232.41721   -509.65932    131024.18   -40186.538     2891.712    -43078.25    46.678347   0.95320951 
   22500    232.26986   -481.20045    131024.61   -40203.546    2889.8786   -43093.425     46.92549   0.95320633 
   22600    231.75039   -403.23327     131146.1    -40175.36    2883.4154   -43058.775    46.967907   0.95232336 
   22700    229.83413   -574.99939    131334.19   -40172.929    2859.5735   -43032.502    47.284365    0.9509595 
   22800     231.8547   -373.58364    131291.35   -40148.921    2884.7133   -43033.634    47.163251   0.95126975 
   22900     231.6819   -445.40732    131205.69   -40220.215    2882.5632   -43102.779    47.227556   0.95189079 
   23000    232.43969   -528.61904     131262.9   -40197.053    2891.9917   -43089.044    47.478629   0.95147591 
   23100    229.47005   -513.58436    131332.82   -40297.961    2855.0437   -43153.004    47.662713   0.95096937 
   23200     229.7075   -544.73371    131389.21    -40254.25     2857.998   -43112.248    47.860067   0.95056125 
   23300     229.4475   -444.83134     131100.7   -40293.863    2854.7631   -43148.626    47.812447   0.95265313 
   23400     236.0185   -367.54797     131350.2   -40220.552    2936.5188   -43157.071    48.247715   0.95084355 
   23500    232.09839   -381.73637    131382.45   -40265.578    2887.7452   -43153.323    48.738114   0.95061013 
   23600    230.63829   -470.36745    131247.39   -40254.921    2869.5789   -43124.499    48.671834   0.95158839 
   23700    228.06627   -456.44193    131357.03   -40287.625     2837.578   -43125.203    48.627895   0.95079415 
   23800    227.71033   -480.45151    131539.52   -40338.106    2833.1494   -43171.255    49.048003   0.94947503 
   23900    225.61139   -703.81563     131553.1   -40337.619    2807.0347   -43144.653    49.141913   0.94937703 
   24000    228.89026   -384.55777    131450.72   -40259.464      2847.83   -43107.294    49.271922   0.95011642 
   24100     229.7929   -352.13073    131355.48    -40252.81    2859.0605   -43111.871    49.419269   0.95080531 
   24200    225.74401   -563.13888    131157.62   -40320.871    2808.6847   -43129.556    49.715853   0.95223968 
   24300    231.56324   -412.31054    131137.16    -40292.71    2881.0869   -43173.797    49.526705   0.95238823 
   24400    227.56363   -446.21468    131298.58   -40323.069    2831.3242   -43154.393    49.532094   0.95121736 
   24500    230.88334   -431.93357    131243.36   -40273.519    2872.6277   -43146.146    49.642644   0.95161759 
   24600    227.33279   -456.80034     131111.8   -40275.364    2828.4521   -43103.816    49.606369   0.95257248 
   24700    224.83965   -348.54214    131146.74   -40290.919    2797.4327   -43088.352    49.881084   0.95231871 
   24800    228.04484   -464.50755    131061.65    -40303.81    2837.3113   -43141.121    49.911609   0.95293695 
   24900    230.78936   -457.85611    130899.75   -40263.809    2871.4584   -43135.267    50.007405   0.95411557 
   25000    232.21088   -339.63189    130939.73   -40247.986    2889.1448   -43137.131    50.122508   0.95382427 
   25100    227.39024   -322.80091    131150.37   -40267.682    2829.1669   -43096.849    50.306999   0.95229235 
   25200     230.9735   -448.35394    131227.83   -40308.917    2873.7494   -43182.666    50.216189   0.95173023 
   25300     228.4918    -527.7973    131265.96   -40310.441    2842.8724   -43153.314    50.279249   0.95145379 
   25400    231.28871   -344.92262    131242.53   -40293.784    2877.6713   -43171.455     50.51958   0.95162359 
   25500    230.91026   -499.39963    131090.35    -40242.54    2872.9626   -43115.503    50.551912   0.95272835 
   25600    226.79749   -423.77832    131072.07   -40329.834    2821.7919   -43151.626    50.723363   0.95286123 
   25700    223.87674   -268.58266     131026.4    -40345.19    2785.4523   -43130.642     50.93436   0.95319333 
   25800    230.68401   -490.30514    131143.52   -40323.578    2870.1476   -43193.725    51.243302   0.95234209 
   25900    227.84865   -489.40779     131128.4   -40276.451    2834.8704   -43111.322    51.436154   0.95245188 
   26000    234.06643   -442.19904    131089.88   -40215.578    2912.2314   -43127.809     51.55772   0.95273175 
   26100    237.82549   -307.78419    131099.05   -40313.179    2959.0013    -43272.18    51.675993   0.95266514 
   26200    230.95025   -640.61771    131063.69   -40305.008    2873.4602   -43178.468    52.218011   0.95292217 
   26300    233.61624   -502.90538    131213.52   -40277.439    2906.6302    -43184.07     51.89188   0.95183404 
   26400    235.00016   -411.40187    131209.31    -40258.13    2923.8487   -43181.978    52.102518   0.95186455 
   26500    232.09487   -319.93591    131226.52   -40323.679    2887.7014    -43211.38    52.418489   0.95173972 
   26600    227.66572   -463.98736    131270.36   -40362.824    2832.5944   -43195.418    52.760577   0.95142185 
   26700    221.44602   -437.07711    131236.09   -40369.711    2755.2095   -43124.921    52.926655   0.95167033 
   26800    229.79066   -490.34918    131302.69   -40291.854    2859.0326   -43150.886     52.89356   0.95118762 
   26900    228.56582    -646.5647    131257.56   -40287.112    2843.7933   -43130.906     53.17061   0.95151468 
   27000    227.02627   -378.06367    131155.56   -40328.487    2824.6384   -43153.125     53.24317   0.95225466 
   27100     231.1212   -260.66325    131276.53   -40341.145    2875.5871   -43216.732    53.476611   0.95137712 
   27200    231.79223   -438.66953    131408.47   -40367.768     2883.936   -43251.704     53.25423   0.95042192 
   27300    224.81054   -371.02882    131415.45   -40400.009    2797.0705    -43197.08    53.246864   0.95037144 
   27400    229.92705   -362.62852    131537.95   -40336.774    2860.7296   -43197.504    53.666516   0.94948634 
   27500    229.22601   -359.64188    131813.84   -40256.139    2852.0074   -43108.146    53.996552   0.94749909 
   27600     229.9251   -543.36898    131694.11    -40301.05    2860.7053   -43161.755     53.81031   0.94836052 
   27700    229.81688   -378.26692    131754.32   -40290.879    2859.3589   -43150.238    54.051964   0.94792712 
   27800    235.74881   -494.00478    131835.88   -40235.228    2933.1633   -43168.392    54.238912   0.94734068 
   27900    233.33841   -450.75858    131762.62   -40274.896    2903.1734   -43178.069     54.47989   0.94786736 
   28000    232.42528   -360.59884    131611.65     -40337.3    2891.8124   -43229.112    54.626437   0.94895467 
   28100    232.87997   -642.11721    131601.81   -40329.586    2897.4695   -43227.056    54.953484   0.94902562 
   28200    227.77735   -380.87298    131429.75   -40360.557    2833.9832   -43194.541    54.930704   0.95026802 
   28300    232.59566   -493.39464    131397.66   -40351.559    2893.9322   -43245.491    54.868601   0.95050014 
   28400    228.15587   -322.76393    131281.09   -40391.762    2838.6928   -43230.454     55.04094   0.95134407 
   28500    221.73162   -631.76453    131134.91   -40412.557    2758.7629    -43171.32    55.324259   0.95240461 
   28600    230.34346   -381.97744    131256.03   -40352.436    2865.9106   -43218.346    55.470636   0.95152577 
   28700    226.18598   -275.31848    131451.43   -40358.323    2814.1836   -43172.507    55.794854   0.95011132 
   28800    230.98893   -576.99554    131666.11   -40322.426    2873.9415   -43196.367    56.025494   0.94856218 
   28900    232.03414   -463.19545     131637.4   -40280.323    2886.9459   -43167.269    56.217771   0.94876906 
   29000    234.11481    -529.7582    131763.13   -40357.989    2912.8333   -43270.822    56.172141   0.94786375 
   29100    230.40445   -735.18707    131637.04   -40299.337    2866.6694   -43166.006    56.421968   0.94877163 
   29200    225.09749   -500.57015    131632.37    -40250.52    2800.6407   -43051.161    56.945031   0.94880532 
   29300    231.67511    -569.9038    131585.63   -40310.382    2882.4788   -43192.861     56.89689    0.9491423 
   29400    222.25965   -531.19165    131358.25   -40350.606    2765.3326   -43115.938    57.012876   0.95078525 
   29500    227.49849   -452.79526    131303.86   -40381.681    2830.5137   -43212.195    57.165248   0.95117913 
   29600    228.73222   -373.01452    131217.43   -40294.954    2845.8637   -43140.818    57.233727   0.95180568 
   29700    230.46126   -497.20389    131190.83   -40351.952    2867.3762   -43219.328    57.338205   0.95199867 
   29800    227.18449   -396.68251    131324.09   -40327.451     2826.607   -43154.058    57.623671   0.95103259 
   29900    227.77133   -438.36315    131358.66   -40345.509    2833.9084   -43179.417    58.006155    0.9507823 
   30000    228.73933   -315.66309    131326.79   -40299.173    2845.9522   -43145.125    58.079863   0.95101308 
   30100     230.3769   -437.66229     131399.4    -40298.48    2866.3266   -43164.807    58.375635   0.95048756 
   30200    229.70027   -549.90098    131317.78   -40309.424    2857.9081   -43167.332    58.363947   0.95107831 
   30300    226.82684   -414.71085    131320.44    -40278.87    2822.1571   -43101.027    58.289833   0.95105906 
   30400    231.51024   -419.65393    131283.09   -40244.879    2880.4276   -43125.306    58.815451   0.95132965 
   30500    230.23354   -450.23159    131158.79   -40239.951     2864.543   -43104.494    58.931804   0.95223122 
   30600    230.49254     -468.937    131031.47   -40211.472    2867.7654   -43079.237    59.034897   0.95315645 
   30700     230.3043   -406.69566    130810.93    -40219.15    2865.4233   -43084.573    59.512552   0.95476345 
   30800    234.17628   -442.20146    130760.57   -40150.843    2913.5981   -43064.441    59.475525   0.95513114 
   30900    229.67019   -293.59162    130895.33   -40268.011    2857.5338   -43125.545    59.469366   0.95414779 
   31000    224.85166   -599.20821    131064.79    -40297.15    2797.5822   -43094.732    59.849815   0.95291411 
   31100    227.70565   -681.35726    130845.39   -40292.148    2833.0912   -43125.239    59.754113   0.95451198 
   31200    230.52913   -349.32292    130947.65   -40293.269    2868.2206    -43161.49    59.931459    0.9537666 
   31300    228.57045    -365.3561    130955.12   -40250.208    2843.8509   -43094.059    59.924623   0.95371214 
   31400    232.04808   -374.66509    130892.34   -40220.466    2887.1193   -43107.586    60.315553   0.95416958 
   31500    223.49488   -495.45748    130859.96   -40275.325    2780.7012   -43056.027    60.696981    0.9544057 
   31600    234.97284   -472.37929    130582.37   -40211.012    2923.5088    -43134.52    60.691526   0.95643457 
   31700    224.07727   -481.85674    130544.53     -40240.6    2787.9473   -43028.547    60.695059   0.95671178 
   31800    236.09617   -531.54254    130752.92   -40168.543    2937.4853   -43106.028    61.001634   0.95518698 
   31900    230.50492   -389.18334    130744.88   -40156.457    2867.9195   -43024.376    61.064703   0.95524577 
   32000    227.16662   -520.98106    130610.53   -40138.561    2826.3846   -42964.946    61.147099   0.95622835 
   32100    229.92228   -461.32159    130577.86   -40135.604    2860.6703   -42996.274    61.350773   0.95646758 
   32200    228.60092   -389.05515    130660.79   -40117.833      2844.23   -42962.063    61.563996   0.95586051 
   32300    235.71418   -533.29246    130667.92   -40102.532    2932.7326   -43035.265    61.876676   0.95580834 
   32400     228.2353   -493.36862    130607.67   -40161.285     2839.681   -43000.966    61.892339   0.95624929 
   32500    227.87646    -512.7229    130553.34   -40171.849    2835.2164   -43007.065    62.349869   0.95664724 
   32600    232.52059   -457.94968    130780.59   -40110.976    2892.9982   -43003.974    62.418365   0.95498495 
   32700    229.15739   -608.97542    130846.71   -40161.018    2851.1536   -43012.171     63.04125   0.95450233 
   32800    225.62038   -534.14108    131054.62   -40211.101    2807.1465   -43018.248    63.257296   0.95298807 
   32900    228.45037   -379.19435     131000.7   -40221.529    2842.3569   -43063.886    63.439314   0.95338035 
   33000    229.52682   -525.06652    131192.83   -40272.877      2855.75   -43128.627    63.461044   0.95198412 
   33100    233.53431   -437.68714    130904.71   -40209.206    2905.6108   -43114.816    63.318619   0.95407943 
   33200    229.98806   -441.98046    131035.29   -40250.033    2861.4888   -43111.522    63.487179   0.95312866 
   33300    228.67704   -414.97639    130974.78   -40181.847    2845.1772   -43027.025    63.674283   0.95356903 
   33400    230.19912    -349.2318    131151.11     -40271.6    2864.1147   -43135.715     64.07091   0.95228694 
   33500       228.54   -328.33699    131097.19   -40239.876     2843.472   -43083.348    64.350507   0.95267861 
   33600    233.22388   -463.03204    131049.96   -40227.218    2901.7485   -43128.967     64.30584   0.95302198 
   33700    227.41349   -401.14783    130975.39   -40224.658    2829.4562   -43054.115    64.095942   0.95356456 
   33800    234.93313   -370.37522    131040.33   -40215.227    2923.0148   -43138.242    64.343372   0.95309197 
   33900    228.49673   -333.75316    131064.86   -40230.432    2842.9337   -43073.366    64.675183   0.95291362 
   34000    231.62315   -448.34528    130846.72   -40196.666    2881.8323   -43078.498    64.666832   0.95450225 
   34100    227.70771   -615.15418    130639.94   -40219.656    2833.1168   -43052.772     64.90204   0.95601307 
   34200     221.9344   -350.14804    130627.46   -40210.684    2761.2859    -42971.97    65.035646    0.9561044 
   34300    221.70813   -452.26181    130833.36    -40246.81    2758.4706   -43005.281    65.226921   0.95459976 
   34400     229.1379    -513.4736    130748.49   -40167.913    2850.9111   -43018.824    65.400164    0.9552194 
   34500    231.97221   -346.40509    130940.71   -40183.826    2886.1753   -43070.001    65.765117   0.95381715 
   34600    233.62034   -435.37094    131183.24   -40159.967    2906.6812   -43066.649     66.30112   0.95205371 
   34700    225.37114   -429.63475    131171.64   -40245.075    2804.0454   -43049.121    66.371963   0.95213794 
   34800    228.05353   -399.32702    131265.01   -40239.532    2837.4194   -43076.951    66.569457   0.95146064 
   34900    230.67157   -476.34081    131219.45   -40249.508    2869.9928   -43119.501     66.45101     0.951791 
   35000    223.93067   -514.32549    131150.83    -40336.01    2786.1233   -43122.134    66.571148   0.95228898 
   35100    228.75645   -405.76531    130999.47   -40274.378    2846.1651   -43120.543    66.460217   0.95338927 
   35200    229.63434   -482.08756    131006.75   -40292.349    2857.0877   -43149.436     66.89318   0.95333634 
   35300    229.67204   -399.75395    130856.56   -40287.684    2857.5568   -43145.241    66.946241   0.95443051 
   35400    230.98342   -409.87998    130902.31   -40311.679    2873.8729   -43185.552    67.370803   0.95409694 
   35500    234.86223   -444.81135    131060.15   -40224.181    2922.1327   -43146.314    67.469444   0.95294791 
   35600    230.84749   -504.37113    131054.49   -40286.602    2872.1817   -43158.783    67.655486     0.952989 
   35700    230.60749   -458.07734    131002.38   -40227.746    2869.1956   -43096.942    67.604402   0.95336812 
   35800    228.65929   -281.30404    131148.01   -40259.334    2844.9563    -43104.29     67.74127   0.95230943 
   35900    229.66808   -544.74303    131051.64   -40195.118    2857.5075   -43052.625    67.695649   0.95300975 
   36000    227.38713   -367.53368    131191.83   -40157.695    2829.1282   -42986.823    68.009662   0.95199138 
   36100    230.56575   -458.50438    131258.72   -40157.833    2868.6763   -43026.509    68.210604   0.95150624 
   36200    229.82498   -456.37991    131288.98   -40179.472    2859.4597   -43038.932    68.154025   0.95128691 
   36300    230.62526   -484.83125    131323.49   -40237.379    2869.4167   -43106.796    68.207947   0.95103696 
   36400    233.20779   -410.65584    131361.26    -40179.68    2901.5483   -43081.228     68.41702   0.95076348 
   36500       231.76   -533.16368    131478.87   -40154.234     2883.535   -43037.769    68.513397     0.949913 
   36600    225.46557   -486.22332    131436.75   -40286.051    2805.2203   -43091.271    68.952941   0.95021742 
   36700    228.93322   -379.24798    131201.67   -40237.047    2848.3645   -43085.412    69.233852   0.95191998 
   36800    231.66955   -417.73728    131212.67   -40227.489    2882.4097   -43109.899    69.371427    0.9518402 
   36900    227.21171   -408.61753    131433.14   -40245.354    2826.9456     -43072.3    69.300299   0.95024351 
   37000    230.35874   -374.91233    131636.59   -40167.178    2866.1007   -43033.279    69.395633   0.94877489 
   37100    227.00037    -353.4717    131579.62   -40159.103    2824.3161    -42983.42    69.658364   0.94918566 
   37200    231.01236   -422.46168    131489.16   -40215.763     2874.233   -43089.996    69.768595   0.94983867 
   37300    230.72584   -517.74119    131336.45   -40234.265    2870.6681   -43104.933    70.049039   0.95094307 
   37400    231.62553    -402.0277    131320.62   -40286.609     2881.862   -43168.471    70.215104   0.95105775 
   37500    231.43994   -562.09948    131286.37   -40308.168    2879.5529   -43187.721     70.21111   0.95130581 
   37600    230.41428   -580.68611    131282.71   -40264.956    2866.7917   -43131.748    70.475261   0.95133237 
   37700    228.94748   -431.92235    131392.29   -40258.606     2848.542   -43107.148    70.805003   0.95053899 
   37800    225.99921    -472.0116    131554.82   -40347.268    2811.8598   -43159.127    70.907121   0.94936464 
   37900    228.64121   -511.70097    131466.72   -40309.648    2844.7313   -43154.379    70.925182   0.95000081 
   38000    229.79282   -481.25029    131449.59   -40298.559    2859.0595   -43157.619    70.837254   0.95012464 
   38100    227.58887   -272.07516    131522.76   -40264.106    2831.6382   -43095.744    70.906658   0.94959604 
   38200    227.40856   -359.14054    131731.51   -40287.269    2829.3949   -43116.664    71.347288   0.94809127 
   38300    237.46923   -571.56055    131698.65   -40240.792    2954.5687    -43195.36    71.314385   0.94832779 
   38400     229.9609   -468.00492    131872.13   -40307.919    2861.1508   -43169.069    71.542991   0.94708029 
   38500    228.38594   -560.52107    131873.38   -40330.587    2841.5553   -43172.143    72.097738   0.94707125 
   38600    233.78165   -637.20031    131790.88   -40294.929    2908.6882   -43203.617    72.212348   0.94766414 
   38700    227.33929   -491.10651    131740.67   -40293.717    2828.5329    -43122.25    72.304225    0.9480253 
   38800     229.4123   -592.68113    131673.39   -40295.634    2854.3251   -43149.959    72.267742   0.94850969 
   38900     232.0114   -435.29742    131590.33   -40243.672     2886.663   -43130.335    72.462298   0.94910842 
   39000    227.49392   -628.02932    131336.97   -40291.976    2830.4569   -43122.433    72.495403   0.95093937 
   39100    231.42673   -399.58067    131407.45    -40253.27    2879.3885   -43132.659     72.61011   0.95042932 
   39200    231.07481   -362.55711    131600.03   -40267.197    2875.0099   -43142.207    73.102101    0.9490385 
   39300    230.77969   -320.26504    131690.62   -40248.356    2871.3381   -43119.694    73.351898   0.94838562 
   39400    232.62356   -379.92046    131772.23   -40211.589    2894.2794   -43105.868    73.582796    0.9477983 
   39500    232.09742   -491.03708    131623.46   -40192.332    2887.7331   -43080.065    73.594737    0.9488695 
   39600     229.5265   -366.13095    131500.53   -40229.765    2855.7461   -43085.511    73.979966   0.94975656 
   39700     231.4598   -518.89754    131357.37   -40181.803    2879.7999   -43061.603    74.125687   0.95079167 
   39800    229.55158   -320.39662    131301.27   -40263.458     2856.058   -43119.516    74.395435   0.95119792 
   39900     228.7801   -272.40855    131147.38   -40313.075    2846.4594   -43159.535    74.422476   0.95231405 
   40000    227.91243   -572.78663    131360.88   -40329.196    2835.6639    -43164.86    74.532032   0.95076624 
   40100    234.16613   -271.57906    131337.49   -40227.228    2913.4718   -43140.699    74.489031   0.95093557 
   40200    230.67185   -399.79366    131438.71   -40243.887    2869.9963   -43113.883    74.509448   0.95020324 
   40300    228.60698   -517.12597    131507.36   -40226.827    2844.3054   -43071.132    74.660567   0.94970721 
   40400    233.82068   -231.06823    131422.63   -40135.561    2909.1738   -43044.735    74.543145    0.9503195 
   40500    234.39174   -318.32311    131310.49   -40152.069    2916.2789   -43068.348    74.627002   0.95113111 
   40600    227.80203   -534.30969    131155.05   -40206.002    2834.2904   -43040.292    74.625573   0.95225834 
   40700    225.33333   -432.10339    131236.05   -40245.125     2803.575     -43048.7    74.793078    0.9516706 
   40800     224.3458    -651.5142    130995.87   -40280.677    2791.2882   -43071.965    74.768816   0.95341549 
   40900    229.89345   -402.73288    130967.48   -40299.385    2860.3116   -43159.697    74.776533   0.95362216 
   41000    230.40386   -465.23071    131026.98   -40211.817     2866.662   -43078.479    74.711975    0.9531891 
   41100    230.27733   -491.24228    131039.41   -40188.388    2865.0877   -43053.475    75.204442   0.95309872 
   41200    231.45417   -422.88123       131213    -40192.92    2879.7299    -43072.65    75.726916   0.95183776 
   41300    228.73492   -463.42517    131544.18   -40350.952    2845.8972   -43196.849    75.579177   0.94944138 
   41400    226.40027   -473.79397    131524.33   -40303.327    2816.8498   -43120.177    75.605801   0.94958468 
   41500     228.4282   -515.61146    131488.93   -40298.902    2842.0811   -43140.984    75.533431   0.94984037 
   41600    228.40319   -454.64277    131493.73   -40274.522    2841.7699   -43116.292    75.600079   0.94980571 
   41700    228.02416   -386.81389    131436.67    -40252.78     2837.054   -43089.834    75.805682   0.95021803 
   41800    226.46673   -390.03881    131377.16   -40293.637    2817.6767   -43111.314     75.84299   0.95064841 
   41900    232.76793   -620.20324    131434.78   -40276.277    2896.0756   -43172.352    76.225995   0.95023171 
   42000    229.61807   -533.06292    131247.99    -40280.55    2856.8853   -43137.436    76.135963   0.95158405 
   42100    225.77199   -597.46524    131382.51   -40273.446    2809.0328   -43082.478    76.500868    0.9506097 
   42200    233.28085   -257.55055    131275.46   -40237.035    2902.4573   -43139.492      76.6033   0.95138491 
   42300    232.95467   -588.33911    131335.45   -40195.303    2898.3989   -43093.702    76.670123   0.95095036 
   42400    236.09105   -432.48857    131198.71   -40225.433    2937.4216   -43162.854    76.525574   0.95194149 
   42500    231.97753   -563.30261    131390.22   -40230.075    2886.2415   -43116.316    76.685149   0.95055394 
   42600    226.50637   -325.59307    131573.44   -40231.021    2818.1698   -43049.191    77.008694   0.94923023 
   42700    232.57319    -513.6863    131530.53   -40248.509    2893.6527   -43142.162    77.121104   0.94953995 
   42800    231.14797   -459.46187    131321.43   -40194.219    2875.9201   -43070.139    77.257966   0.95105185 
   42900    229.17403   -573.55137    131228.89   -40261.909    2851.3606   -43113.269    77.462208   0.95172253 
   43000    228.62073   -438.45248    131358.02   -40283.532    2844.4766   -43128.008    77.333102   0.95078694 
   43100    231.49414   -390.09164    131392.26   -40258.446    2880.2272   -43138.673    77.512627    0.9505392 
   43200    229.65157   -428.64213    131514.68   -40207.783    2857.3022   -43065.086    77.698416   0.94965436 
   43300    232.87233   -570.34587    131577.68   -40222.307    2897.3745   -43119.682     77.84241   0.94919971 
   43400    231.47107   -466.20318    131446.58   -40171.798    2879.9402   -43051.738    78.121178    0.9501464 
   43500    233.01952   -412.40431    131575.35   -40184.303    2899.2059   -43083.509    78.624504   0.94921651 
   43600    234.30888    -343.0932    131564.64   -40094.916    2915.2479   -43010.164     78.85458   0.94929378 
   43700    233.63018   -420.11069    131566.02   -40114.926    2906.8036   -43021.729     79.28688   0.94928378 
   43800    229.72998   -489.69836     131540.2   -40118.563    2858.2778   -42976.841    79.064323   0.94947015 
   43900    232.83993   -345.37246    131438.69   -40169.033    2896.9713   -43066.004    79.366672   0.95020338 
   44000    230.15228   -587.65288    131259.22   -40209.736     2863.532   -43073.268    79.591954   0.95150261 
   44100    230.82188   -495.85383    131221.47    -40215.14     2871.863   -43087.003    79.416348   0.95177636 
   44200    228.80442   -521.94799    131102.83   -40242.536     2846.762   -43089.298    79.481401   0.95263766 
   44300    230.89495   -296.86723    131351.85   -40233.869    2872.7722   -43106.641     79.75222   0.95083161 
   44400    229.15941   -250.57391    131497.99   -40198.066    2851.1787   -43049.245    79.971421   0.94977494 
   44500    225.05916   -526.24714    131371.85   -40245.457    2800.1638   -43045.621    79.876365   0.95068683 
   44600    226.42346   -493.72551    131446.96   -40314.578    2817.1383   -43131.716     80.04413   0.95014366 
   44700      229.692   -543.63818     131579.3   -40298.264    2857.8052   -43156.069    80.277203   0.94918798 
   44800    229.90961   -387.53704    131472.17   -40280.825    2860.5126   -43141.338    80.184595   0.94996145 
   44900    227.58383   -476.55957    131465.92   -40227.003    2831.5755   -43058.579    80.257551   0.95000662 
   45000    226.80798   -458.83047    131617.24   -40223.678    2821.9225   -43045.601    80.630621   0.94891435 
   45100     232.0118    -271.7907    131498.96   -40156.087    2886.6678   -43042.755    81.078653    0.9497679 
   45200    227.55936   -333.49635    131476.56   -40217.195     2831.271   -43048.466    81.192903   0.94992971 
   45300    225.54303   -390.12467     131758.7   -40231.721     2806.184   -43037.905    81.155488   0.94789558 
   45400     232.2979   -238.49699    131783.99   -40203.716    2890.2275   -43093.944    81.219669   0.94771367 
   45500    230.96385   -414.98079    131839.63   -40224.005    2873.6294   -43097.634     81.32043   0.94731373 
   45600    230.29254   -507.61726    131696.35   -40232.505     2865.277   -43097.782    81.370475   0.94834434 
   45700    226.24258   -497.14714    131533.29   -40250.664    2814.8878   -43065.552    81.405189   0.94952004 
   45800    233.94551   -474.55741    131636.65   -40197.758    2910.7269   -43108.485    81.912025   0.94877449 
   45900    235.60621   -430.06554    131507.75   -40135.952    2931.3892   -43067.342     81.89592   0.94970439 
   46000     232.0842   -407.23713    131462.81   -40102.734    2887.5687   -42990.303    81.981747   0.95002904 
   46100     233.0548   -448.05718    131212.04    -40048.01    2899.6448   -42947.655    81.889204   0.95184477 
   46200    237.14887   -364.23528    131149.02    -40022.64    2950.5827   -42973.223    81.828182   0.95230216 
   46300     234.9324   -528.96573     131074.7   -40033.142    2923.0056   -42956.148    82.397565    0.9528421 
   46400    235.56154   -414.85586    131073.94   -40063.427    2930.8334   -42994.261    82.542738   0.95284761 
   46500    235.73869   -483.61476     131025.8    -40071.36    2933.0375   -43004.397    82.408981   0.95319769 
   46600    236.48499   -372.12838    131275.77   -40082.295    2942.3228   -43024.618    82.860939   0.95138265 
   46700    228.41884   -479.67792    131330.33    -40173.47    2841.9646   -43015.434    83.144637    0.9509874 
   46800    225.98104   -462.30679     131375.8    -40221.75    2811.6338   -43033.384    83.422886   0.95065828 
   46900    230.96239   -400.76237    131447.98   -40141.265    2873.6112   -43014.876    83.684238   0.95013625 
   47000    231.47437   -481.60673    131377.54   -40122.898    2879.9812   -43002.879    83.872545   0.95064568 
   47100    235.37132   -630.16638    131240.04   -40104.109    2928.4667   -43032.576    84.147255    0.9516417 
   47200    231.16344   -370.56077    131105.18   -40162.105    2876.1127   -43038.218    84.279344   0.95262054 
   47300    230.25629   -568.99674    130843.23   -40188.915    2864.8261   -43053.741    84.196333   0.95452776 
   47400     230.7003   -691.29291    130578.66   -40135.293    2870.3503   -43005.644    84.229502   0.95646171 
   47500     230.1525   -305.82712    130736.59   -40059.919    2863.5346   -42923.453    84.604636   0.95530631 
   47600    233.56262   -502.05413    130595.94    -40011.85    2905.9631   -42917.813    84.815631   0.95633518 
   47700    229.14142   -505.11979    130713.56   -40048.231    2850.9549   -42899.186    85.006885   0.95547467 
   47800    232.64603   -335.92022    130896.14   -40073.328     2894.559   -42967.887    85.233387   0.95414187 
   47900    229.15218   -393.63566    130887.85   -40167.881    2851.0887    -43018.97    85.089569   0.95420234 
   48000    224.08295   -523.90189    130872.23   -40184.924    2788.0179   -42972.942    85.196231   0.95431624 
   48100    228.18589   -476.33409    130801.65   -40146.129    2839.0662   -42985.195    85.428483   0.95483114 
   48200    229.40101   -354.74208    130682.21   -40174.191    2854.1847   -43028.376    85.519865   0.95570388 
   48300    228.97789   -301.37029    130720.25   -40152.205    2848.9203   -43001.125    85.732658   0.95542573 
   48400    233.61616   -388.56979    130724.36   -40069.221    2906.6292    -42975.85    86.029932    0.9553957 
   48500    233.47241   -465.43786    130642.82   -40138.402    2904.8406   -43043.243    86.335245   0.95599197 
   48600    231.82466   -309.81753     130852.5   -40131.783    2884.3395   -43016.122    86.961671   0.95446008 
   48700    232.42394   -520.85612     130660.5   -40094.343    2891.7957   -42986.139    86.961717   0.95586262 
   48800    229.50568   -360.41488    130872.53   -40118.231     2855.487   -42973.718    87.263415   0.95431401 
   48900    225.54597   -413.54598    130934.97   -40105.494    2806.2206   -42911.714    87.464713   0.95385893 
   49000    230.75221   -448.23424    131062.69   -40131.009    2870.9962   -43002.005    87.494837   0.95292938 
   49100    230.12097   -441.50103    131053.71   -40122.574    2863.1424   -42985.717    87.683678    0.9529947 
   49200    226.35592   -528.93024    130915.56    -40151.72     2816.298   -42968.018    87.620904   0.95400034 
   49300    229.25503   -565.54721    131098.46   -40093.937    2852.3684   -42946.306     87.63824    0.9526694 
   49400    231.61119   -403.25597    130908.64   -40060.507    2881.6836    -42942.19    87.492632   0.95405082 
   49500    229.57606   -309.90664    130800.63    -40071.04    2856.3627   -42927.403    87.561602    0.9548386 
   49600    229.95024   -472.65778    130660.57   -40080.645    2861.0182   -42941.663    87.770658   0.95586215 
   49700    230.34405   -358.01391    130704.71   -40097.609    2865.9179   -42963.527    87.975806   0.95553932 
   49800    227.02331   -674.90931    130564.23   -40156.905    2824.6016   -42981.507    87.982418   0.95656746 
   49900    230.94213   -238.98243    130593.43   -40045.597    2873.3591   -42918.956    88.029308   0.95635357 
   50000    231.75019   -263.67524    130771.98   -40075.159    2883.4129   -42958.572    88.331283   0.95504778 
   50100    231.18098   -376.25933    130842.39   -40075.146    2876.3309   -42951.477    88.846204   0.95453388 
   50200    231.48795   -530.99451    130766.79   -40123.779    2880.1502   -43003.929    89.250437   0.95508566 
   50300    232.40317   -489.13442    130673.31    -40109.72    2891.5373   -43001.257    89.365449   0.95576892 
   50400    229.79634   -303.88383    130614.03   -40133.187    2859.1033    -42992.29    89.845015   0.95620275 
   50500    227.20811    -580.5145    130546.56   -40186.823    2826.9008   -43013.724    90.054083   0.95669688 
   50600    228.80981   -409.00734    130548.44   -40203.062    2846.8291   -43049.891    90.404346   0.95668313 
   50700    227.61154   -718.12951    130503.91   -40206.962    2831.9203   -43038.882    90.157461   0.95700956 
   50800     223.1836   -440.52499    130236.26   -40192.138    2776.8283   -42968.966    90.433078   0.95897631 
   50900    228.72376   -420.46157    130111.36   -40085.808    2845.7584   -42931.566    90.594547   0.95989693 
   51000    227.89104   -504.27826    130203.18   -40110.062    2835.3978    -42945.46    90.779487   0.95921996 
   51100    226.66324   -297.84218    130176.48   -40141.764    2820.1216   -42961.885    90.923594   0.95941673 
   51200    230.09287   -361.58789    130422.02   -40131.482    2862.7928   -42994.275    90.986187   0.95761045 
   51300    229.64721   -303.12245    130494.03   -40197.892    2857.2479    -43055.14    91.639719   0.95708203 
   51400     230.7727   -660.94919    130443.34   -40219.957    2871.2512   -43091.208    91.805842   0.95745394 
   51500    224.68218   -304.14293    130653.14   -40216.799    2795.4735   -43012.273    91.791535    0.9559165 
   51600    229.16123   -373.53207    130750.95   -40165.679    2851.2013    -43016.88    91.892222   0.95520144 
   51700    232.17043   -388.17086     130563.4   -40160.063    2888.6415   -43048.705    91.890137   0.95657354 
   51800    227.40206   -473.30258    130712.78   -40190.138     2829.314   -43019.452    91.885378   0.95548035 
   51900    225.11271   -495.64154    130710.42   -40225.809    2800.8301   -43026.639    92.097105    0.9554976 
   52000    233.82467    -400.4552    130907.69   -40262.817    2909.2234    -43172.04    92.502912   0.95405771 
   52100    227.34144   -321.93356    131048.78   -40227.038    2828.5597   -43055.598    93.017865   0.95303057 
   52200    225.04027   -513.44515     131219.3   -40242.111    2799.9288   -43042.039    93.188004   0.95179205 
   52300    229.70754   -517.53376    131250.18   -40222.069    2857.9985   -43080.067     93.36546   0.95156814 
   52400    226.09869   -569.54256    131344.04   -40156.598    2813.0976   -42969.696    93.487323   0.95088813 
   52500    228.36207   -407.95677    131135.52   -40164.816    2841.2583   -43006.074    93.472478   0.95240015 
   52600    231.66733   -643.43068    131045.41   -40180.513     2882.382   -43062.895    93.453451   0.95305507 
   52700    225.45738    -579.7215    130857.94    -40202.74    2805.1184   -43007.858    93.546589   0.95442046 
   52800    228.36715   -403.24622    130882.47   -40141.833    2841.3216   -42983.154    93.967476   0.95424153 
   52900    230.47703   -385.87404    130960.28   -40126.167    2867.5724   -42993.739    94.334808   0.95367457 
   53000    232.54514   -433.84891     131119.2   -40097.452    2893.3036   -42990.756    94.733814   0.95251868 
   53100    228.46805     -608.722       131158   -40136.244     2842.577   -42978.821      94.7939    0.9522369 
   53200    232.54878   -256.34178    131058.48   -40141.089    2893.3489   -43034.438    95.209276   0.95295998 
   53300    232.77822   -340.70778    131266.68   -40141.158    2896.2037   -43037.361    95.798165   0.95144856 
   53400    231.08466   -472.56857    131270.69   -40247.697    2875.1324   -43122.829     95.93162    0.9514195 
   53500    225.64932   -312.53724    131338.27   -40256.575    2807.5065   -43064.082    95.899955   0.95092989 
   53600    227.06872   -334.57075    131394.77   -40275.845    2825.1665   -43101.012    95.710244   0.95052099 
   53700    226.69573   -439.17537    131305.95   -40307.082    2820.5258   -43127.608    95.743888   0.95116396 
   53800    229.07257   -415.94298    131201.26   -40189.208    2850.0983   -43039.306    96.062782   0.95192295 
   53900    226.91183   -384.58449    131243.23   -40233.159    2823.2145   -43056.374    96.622669   0.95161856 
   54000    231.78696   -463.80182    131136.52   -40216.968    2883.8704   -43100.839    96.551463   0.95239288 
   54100    231.03917   -506.12512    131270.26   -40237.317    2874.5665   -43111.884    96.895892   0.95142256 
   54200    227.20229     -580.772     131240.7   -40198.625    2826.8285   -43025.454    96.825026   0.95163687 
   54300    231.65827   -508.01654    131133.45   -40168.569    2882.2693   -43050.838    96.542306   0.95241517 
   54400    232.50684   -438.57616    131125.99   -40218.801    2892.8271   -43111.628    96.763819   0.95246938 
   54500    230.85411   -427.09544    131033.34   -40217.197     2872.264   -43089.461    97.099798   0.95314285 
   54600    232.04704   -364.03929    131051.52   -40110.042    2887.1063   -42997.149    97.282085   0.95301065 
   54700    233.09756   -438.44225    131314.25   -40121.926    2900.1768   -43022.102    97.211106   0.95110387 
   54800    230.38485   -389.73269    131281.19   -40194.208    2866.4256   -43060.634    97.147178   0.95134338 
   54900    230.79066   -332.56835    131412.69    -40249.02    2871.4746   -43120.495    97.354243   0.95039138 
   55000    224.40177   -451.36577    131191.86   -40324.396    2791.9846    -43116.38    97.494469   0.95199119 
   55100    228.91451   -459.53071    131180.71   -40286.304    2848.1317   -43134.435    97.906496   0.95207209 
   55200    223.62339   -461.53515    131082.59   -40294.714    2782.3002   -43077.014    98.505571   0.95278472 
   55300    226.92997   -377.89916    131031.56   -40239.854    2823.4402   -43063.294    98.438161   0.95315578 
   55400    231.19922   -620.17191    130877.87   -40225.464    2876.5578   -43102.022    98.632715    0.9542751 
   55500     231.7545   -372.27693    130739.12   -40164.098    2883.4666   -43047.565    98.569889   0.95528781 
   55600    227.35082   -202.76453    130777.96   -40181.172    2828.6765   -43009.849    99.058086   0.95500413 
   55700     228.9218   -442.69201    130730.34   -40171.528    2848.2224   -43019.751    99.013705   0.95535201 
   55800    230.47166   -488.77618    130706.19   -40169.579    2867.5056   -43037.085    99.163197   0.95552854 
   55900    232.97181   -535.53596    130767.82   -40135.185    2898.6123   -43033.797    99.415605   0.95507817 
   56000    232.50938   -470.55287    130629.73   -40120.169    2892.8587   -43013.027    99.566399    0.9560878 
   56100    230.42625   -431.31763    130656.31   -40106.518    2866.9407   -42973.459    99.955519    0.9558933 
   56200    232.26608   -304.12147    130710.57   -40111.291    2889.8316   -43001.123    100.24104   0.95549648 
   56300    229.01717   -420.61925    130821.04   -40155.408     2849.409   -43004.817    100.67339   0.95468965 
   56400    232.49053   -404.57075    130979.18    -40139.55    2892.6242   -43032.174    100.92709   0.95353698 
   56500    228.00031   -365.56586    130772.01   -40248.078    2836.7573   -43084.836    101.13717   0.95504759 
   56600     229.8741   -451.99355    130759.84   -40258.981    2860.0709   -43119.052    101.19092   0.95513645 
   56700    227.62098   -447.62171       130851   -40297.859    2832.0378   -43129.897    101.41871   0.95447106 
   56800    228.83262   -517.95869    130705.19    -40216.45    2847.1128   -43063.563    101.32488   0.95553582 
   56900    229.53437   -373.36044    130812.42   -40202.737     2855.844   -43058.581    101.61833   0.95475257 
   57000    233.31209   -509.54932     130874.9   -40143.826     2902.846   -43046.672    101.89977   0.95429674 
   57100    229.56641   -427.60019    130912.48   -40196.234    2856.2425   -43052.477     101.9336   0.95402281 
   57200    225.34865   -547.71242    130948.44   -40245.808    2803.7657   -43049.573    102.12801   0.95376079 
   57300    226.47584   -345.66855    131057.51   -40288.145      2817.79   -43105.935     102.2434   0.95296708 
   57400    228.38206   -363.05442    131096.66   -40300.335     2841.507   -43141.842    102.50259   0.95268245 
   57500    225.37347   -462.52558    131165.65   -40333.466    2804.0744   -43137.541    102.67133    0.9521814 
   57600    227.01702   -531.54425    131271.04    -40298.36    2824.5234   -43122.884    103.06678   0.95141692 
   57700    228.42744   -361.04676    131234.75   -40351.554    2842.0716   -43193.625    103.41203   0.95168001 
   57800    221.62731   -589.83409    131246.61   -40378.971    2757.4651   -43136.437    103.60999   0.95159401 
   57900    227.39034   -624.93777    131257.55   -40366.458    2829.1681   -43195.626    103.66336   0.95151476 
   58000    226.73489   -425.96671    131225.94   -40381.793    2821.0131   -43202.806    103.59341   0.95174392 
   58100    231.84157   -523.13541    131417.92   -40311.311    2884.5499   -43195.861    103.77447   0.95035355 
   58200    231.43115   -556.75573    131258.19   -40264.625    2879.4435   -43144.068    103.61764   0.95151007 
   58300    229.93805   -432.16326    131144.64   -40200.279    2860.8665   -43061.145    103.62895   0.95233396 
   58400    235.15137   -515.07138    131136.57   -40209.855    2925.7301   -43135.585    103.93006   0.95239253 
   58500    232.87748    -363.0333    131152.52   -40212.665    2897.4386   -43110.103    104.49337   0.95227673 
   58600    232.66683    -353.0688    131329.75   -40176.681    2894.8177   -43071.499    104.88016    0.9509916 
   58700    235.34593   -357.79395    131386.54   -40176.183    2928.1509   -43104.333    105.19862   0.95058056 
   58800    230.28994   -398.60507    131647.55   -40232.627    2865.2447   -43097.871    105.60462   0.94869587 
   58900    226.88407   -324.64705    131616.44   -40269.458    2822.8691   -43092.327    105.48542   0.94892011 
   59000    229.30771   -362.87219    131450.41   -40247.444    2853.0238   -43100.468    105.50631   0.95011865 
   59100    226.92034   -540.46193    131303.08   -40235.883    2823.3205   -43059.204    105.35412   0.95118475 
   59200     229.3698   -526.56457    131257.66   -40255.186    2853.7964   -43108.983    105.68093   0.95151392 
   59300    227.83323    -620.7809    131102.43   -40246.835    2834.6785   -43081.513    105.88005   0.95264058 
   59400    228.03208   -493.35233    131011.57   -40284.943    2837.1525   -43122.095    105.92352   0.95330123 
   59500    228.09084   -395.99352    131060.94   -40237.145    2837.8837   -43075.029    106.18394   0.95294215 
   59600    229.13794   -380.15328    131109.46   -40226.333    2850.9116   -43077.244     105.9733   0.95258949 
   59700    230.31557   -429.73083    131282.15   -40251.286    2865.5635   -43116.849    106.12747   0.95133643 
   59800    232.35467   -527.95877    131060.86   -40267.837    2890.9338    -43158.77    106.15325   0.95294272 
   59900    233.13168   -292.87629    131078.33    -40242.41    2900.6014   -43143.012     106.3909   0.95281569 
   60000    232.08789   -558.78788    131334.06   -40300.743    2887.6146   -43188.357    106.70434   0.95096039 
   60100    230.75473   -489.65083    131477.06   -40265.536    2871.0276   -43136.564    107.20419   0.94992612 
   60200    228.02578   -328.18682    131187.83   -40255.386    2837.0743    -43092.46    106.92951   0.95202039 
   60300    228.58177   -590.34837    131227.98   -40215.852    2843.9918   -43059.844    107.06651   0.95172912 
   60400    232.95865   -562.36855    131193.52   -40167.399    2898.4485   -43065.848    107.19458   0.95197912 
   60500    231.31631   -561.92578    131045.89   -40197.624    2878.0147   -43075.639    107.23768   0.95305154 
   60600    233.27045   -344.82894    130903.04   -40241.824    2902.3279   -43144.152    107.33915   0.95409158 
   60700    228.42358   -426.18157    131037.23   -40255.888    2842.0236   -43097.912      107.569   0.95311459 
   60800     231.8996   -468.36724    131024.28   -40205.063    2885.2719   -43090.335    108.05394   0.95320875 
   60900      228.377   -419.49656    131090.19   -40192.057     2841.444   -43033.501     108.3099   0.95272947 
   61000    231.47741   -543.58449    131242.38   -40224.668     2880.019   -43104.687    108.24678   0.95162469 
   61100    230.90277   -446.56708     131060.8   -40265.013    2872.8694   -43137.882    108.36838   0.95294317 
   61200    229.30192   -342.37427    131188.61   -40259.755    2852.9519   -43112.707    108.50724   0.95201476 
   61300    229.69251   -602.81656    130971.98   -40253.185    2857.8115   -43110.996    108.56861    0.9535894 
   61400    231.73974   -302.45839    131153.13   -40285.583    2883.2829   -43168.866     108.6232   0.95227228 
   61500    225.25176   -304.82894    131225.36    -40303.88    2802.5601    -43106.44    109.12358   0.95174814 
   61600    227.81253   -479.25951    131296.29   -40255.433     2834.421   -43089.854    108.97115   0.95123397 
   61700    229.85534   -404.04017    131285.54   -40328.981    2859.8374   -43188.818    109.33734   0.95131184 
   61800    225.46261   -318.70645    131159.34   -40414.954    2805.1835   -43220.138    109.10491   0.95222722 
   61900    229.25735     -493.436    131341.81   -40367.347    2852.3973   -43219.744    109.14641   0.95090427 
   62000     231.1646   -406.72893    131275.35   -40336.088    2876.1271   -43212.215    109.42824   0.95138571 
   62100     226.1813   -503.00787    131289.09   -40351.536    2814.1253   -43165.661    109.62007   0.95128614 
   62200    231.99306   -362.55205     131333.8   -40301.881    2886.4348   -43188.316    110.22962    0.9509623 
   62300    225.52013   -574.85918    131393.86   -40350.747    2805.8991   -43156.647     110.5736    0.9505276 
   62400    227.87944   -422.20197     131388.4    -40286.28    2835.2535   -43121.533    110.56238   0.95056709 
   62500    233.70922   -420.96663    131581.96   -40309.927     2907.787   -43217.714    111.06227   0.94916882 
   62600    227.75573   -235.21602    131766.24   -40312.513    2833.7142   -43146.227    111.51188   0.94784132 
   62700    228.72157   -556.46845    131886.73   -40342.894    2845.7311   -43188.626    111.76131   0.94697543 
   62800    226.62275   -540.37615    131825.92   -40327.308    2819.6178   -43146.926    111.33682   0.94741225 
   62900    233.31026   -526.06542    131696.03   -40278.457    2902.8231    -43181.28    111.34312   0.94834664 
   63000    235.90367   -507.02854    131623.52   -40265.877    2935.0902   -43200.967    111.47954   0.94886909 
   63100     234.5077   -278.52706    131542.37   -40251.686    2917.7216   -43169.407    111.93868   0.94945449 
   63200    230.10953   -393.38085    131667.62    -40289.04         2863    -43152.04     112.2076    0.9485513 
   63300    229.67375   -568.68871    131782.39   -40310.952    2857.5781    -43168.53    112.37804   0.94772521 
   63400    234.14374   -465.96386    131787.42   -40220.207    2913.1933     -43133.4     112.3997   0.94768902 
   63500    227.45091   -330.81043     131685.8   -40319.134    2829.9217   -43149.056    112.64121   0.94842034 
   63600    235.52337   -294.64641    131854.53   -40323.891    2930.3585    -43254.25    112.65193   0.94720666 
   63700    234.74613   -383.10682    131915.22   -40340.364    2920.6881   -43261.052    112.99375   0.94677088 
   63800    226.50092    -511.9902     132022.6   -40456.894    2818.1021   -43274.996    113.80928   0.94600081 
   63900    226.39788   -382.53109    131950.88   -40431.854    2816.8201   -43248.674    113.75617   0.94651502 
   64000    231.76551   -327.18902     131860.1   -40424.109    2883.6035   -43307.712     113.5053   0.94716663 
   64100    229.53543   -405.96353    131833.79   -40340.727    2855.8571   -43196.584    113.47058   0.94735573 
   64200    231.84926   -283.91751    131871.58   -40336.153    2884.6456   -43220.798    113.75069   0.94708419 
   64300    230.65789   -462.45842    131960.93   -40235.935    2869.8227   -43105.758     114.0847   0.94644292 
   64400    231.97039    -482.5131    132133.84   -40270.151    2886.1526   -43156.304    114.84705   0.94520446 
   64500    233.33418   -391.08723    131819.39   -40253.418    2903.1208   -43156.539     114.5564   0.94745915 
   64600    229.05673   -518.69674    131837.24   -40312.283    2849.9012   -43162.185     114.7687   0.94733089 
   64700    227.32663   -500.90601    131646.59   -40335.877    2828.3754   -43164.253     114.8349   0.94870281 
   64800    231.26391   -269.04152     131672.9   -40354.383    2877.3627   -43231.746    114.94151   0.94851325 
   64900    228.69313   -461.38506    131652.91   -40327.739    2845.3773   -43173.116    115.16463   0.94865724 
   65000     233.6741   -301.61706    131769.91   -40281.271    2907.3501   -43188.621    115.64968   0.94781499 
   65100    231.97768   -476.87482    131746.21   -40307.732    2886.2434   -43193.975    115.57479   0.94798545 
   65200    229.63924   -591.96273    131735.97   -40295.066    2857.1488   -43152.214    115.67052   0.94805912 
   65300    231.42419   -341.97294    131754.23   -40297.268    2879.3569   -43176.625    116.01337   0.94792776 
   65400    233.44844   -424.68939    131690.31    -40234.37    2904.5424   -43138.912    116.02693   0.94838785 
   65500    231.11304   -324.16184    131347.27   -40295.108    2875.4856   -43170.593    115.94646   0.95086478 
   65600    230.10011   -268.41738    131544.91   -40341.523    2862.8828   -43204.406    116.09233   0.94943615 
   65700    225.67404   -460.09743    131405.63   -40384.223    2807.8141   -43192.037    116.32691   0.95044249 
   65800    228.57261   -530.15808     131472.3   -40391.947    2843.8779   -43235.825    116.53965   0.94996047 
   65900    224.61765   -280.91057    131372.14   -40358.331    2794.6706   -43153.002    116.76385   0.95068478 
   66000    230.80782   -468.50409     131617.4   -40242.935     2871.688   -43114.623    117.03236   0.94891325 
   66100    231.04337   -445.26417    131418.56   -40177.506    2874.6187   -43052.124    117.05695   0.95034896 
   66200    232.35993   -262.81935     131700.3   -40139.538    2890.9993   -43030.537    117.06132   0.94831593 
   66300    230.66063   -453.79221    131558.56   -40173.063    2869.8568    -43042.92    117.40804   0.94933766 
   66400     235.1328   -485.05429    131418.66   -40229.769    2925.4991   -43155.268    117.58565    0.9503482 
   66500    228.12178   -476.93467    131412.55   -40251.544    2838.2686   -43089.812    117.67275   0.95039243 
   66600    229.66063    -358.0718    131493.04    -40271.27    2857.4148   -43128.685    117.93168   0.94981066 
   66700    228.12183   -389.74789    131183.74   -40297.786    2838.2692   -43136.055      117.928   0.95205008 
   66800    230.35454   -524.78693    131274.61   -40243.629    2866.0484   -43109.678    117.76661   0.95139108 
[...]
   84600    231.06277   -351.57904    130467.77    -40200.54    2874.8601     -43075.4    145.92234   0.95727468 
   84700    226.56506   -408.43935    130382.97   -40209.579    2818.9001   -43028.479    146.56472   0.95789727 
   84800    226.43777   -371.56914    130524.28   -40166.431    2817.3164   -42983.748    146.72517   0.95686025 
   84900    227.32061   -398.75924    130535.42   -40141.476    2828.3006   -42969.776    146.99001   0.95677857 
   85000    234.59359   -460.56589    130492.88   -40089.181    2918.7903   -43007.971    147.25314   0.95709046 
   85100    228.80437   -634.95903    130516.06   -40087.335    2846.7613   -42934.096    147.04164   0.95692049 
   85200    229.13678   -436.63567    130845.11   -40080.252    2850.8971   -42931.149    147.80199     0.954514 
   85300     225.7083   -482.16424    130910.57   -40128.375    2808.2404   -42936.616    147.98145   0.95403672 
   85400    230.17939   -284.13828    130784.33   -40112.959    2863.8693   -42976.828    148.29684    0.9549576 
   85500    231.51425   -388.82155    130676.85   -40087.193    2880.4774   -42967.671    148.17717   0.95574303 
   85600    227.92982   -453.44088    130776.83   -40077.081    2835.8803   -42912.961    148.30263   0.95501235 
   85700    228.16161   -340.24924    130818.05   -40121.043    2838.7641   -42959.807    148.18286   0.95471145 
   85800    227.59116   -416.43982    130996.12   -40120.149    2831.6668   -42951.816    148.45223   0.95341367 
   85900    231.92226   -453.63563    131123.21   -40009.769    2885.5538   -42895.323    148.98768   0.95248957 
   86000    229.75332   -358.34302    131198.79   -40078.217     2858.568   -42936.785    149.59438   0.95194087 
   86100    234.93933   -543.21637    131195.04   -40086.963    2923.0919   -43010.055     149.5555   0.95196807 
   86200     230.0921   -570.12109    130919.09   -40063.749    2862.7831   -42926.532    149.78712   0.95397463 
   86300    231.28587    -387.4518    130872.01   -40107.631     2877.636   -42985.267    149.86729   0.95431779 
   86400    228.25278   -321.23624    130936.07    -40123.08    2839.8985   -42962.979    150.28676   0.95385089 
   86500    231.44091   -540.46568    130905.21   -40094.401     2879.565   -42973.966    150.37919   0.95407577 
   86600    231.35787    -514.1587    131038.75   -40032.716    2878.5318   -42911.248    150.38149   0.95310353 
   86700    230.14152   -416.33667    131043.33   -40015.401    2863.3981   -42878.799    150.83388    0.9530702 
   86800    229.62696   -511.22314    131173.54    -40088.18    2856.9959   -42945.176    151.34404    0.9521241 
   86900    235.81913   -521.20225    131186.07   -40055.852    2934.0383    -42989.89    151.50362   0.95203317 
   87000    232.29551   -330.77067    131161.41   -40066.652    2890.1978    -42956.85    151.95244   0.95221216 
   87100    231.29485   -332.90851    131468.53   -40093.474    2877.7476   -42971.221    152.47821   0.94998771 
   87200    231.64042   -209.50039    131535.87   -40104.335    2882.0472   -42986.382    152.45123   0.94950142 
   87300    230.82859   -616.78161    131517.65   -40111.351    2871.9465   -42983.297    152.16868   0.94963291 
   87400    228.56219   -606.86808    131274.18   -40136.959    2843.7481   -42980.707    152.11781   0.95139416 
   87500    228.95984   -400.20056    131252.17   -40148.476    2848.6958   -42997.172    152.61224   0.95155373 
   87600    230.95158   -453.21154    131175.55   -40161.568    2873.4767   -43035.045    152.66615   0.95210952 
   87700    230.82226   -424.20336    131289.85     -40180.8    2871.8677   -43052.668    152.82911   0.95128061 
   87800     228.9382   -507.10989    131001.14   -40155.364    2848.4265   -43003.791    152.76345   0.95337714 
   87900    226.96481   -548.95226    130922.33   -40169.305    2823.8737   -42993.179     152.9418   0.95395101 
   88000    228.88246   -410.76535    131003.69   -40180.345    2847.7329   -43028.078    153.41945   0.95335855 
   88100    233.90568   -451.71537    131207.93   -40119.215    2910.2313   -43029.447    153.52899   0.95187456 
   88200    235.02455   -319.92263    131256.34   -40101.711    2924.1522   -43025.863    153.36938   0.95152349 
   88300    228.89497   -509.40388       130959   -40137.843    2847.8886   -42985.731    153.30529   0.95368387 
   88400      223.447   -565.48584    130609.12   -40264.943    2780.1055   -43045.049    153.11701    0.9562387 
   88500    231.39261   -475.87128    130697.79   -40175.645     2878.964   -43054.609    153.33276   0.95558991 
   88600    232.22653   -552.92057    130714.24   -40108.587    2889.3395   -42997.926    153.50098   0.95546968 
   88700    229.86222   -405.87146    130671.18   -40083.346     2859.923   -42943.269    153.99735   0.95578456 
   88800    234.16212   -340.06296    130452.99   -40015.463    2913.4219   -42928.885    154.17888   0.95738316 
   88900    232.50382   -304.85152    130819.01   -40044.249    2892.7895   -42937.039    154.59383   0.95470446 
   89000    239.77459   -573.20075    130905.04   -40022.462    2983.2518   -43005.714    154.89142   0.95407702 
   89100    223.86668    -357.0847    130945.73   -40114.389    2785.3272   -42899.716    155.13514   0.95378053 
   89200    225.54159   -514.66136    130881.41   -40155.551    2806.1662   -42961.717    155.21543   0.95424929 
   89300    232.67422   -318.07964    131064.57   -40156.005    2894.9096   -43050.915    155.85187   0.95291572 
   89400    225.08742    -448.6332     131066.5   -40183.339    2800.5154   -42983.854    156.08361   0.95290174 
   89500    221.74844   -424.64358    131007.94   -40229.197    2758.9721   -42988.169    155.87136   0.95332768 
   89600    222.74725   -407.80112    130744.11   -40279.482    2771.3993   -43050.881    155.61827   0.95525134 
   89700    224.66848   -623.56077    130605.25   -40254.966     2795.303   -43050.269    155.83945   0.95626704 
   89800    226.57917   -277.04521    130552.54   -40226.101    2819.0757   -43045.176    155.85548   0.95665312 
   89900    229.33227   -375.07672    130434.15   -40302.018    2853.3294   -43155.347    155.80057   0.95752141 
   90000    233.34603    -416.7082    130418.31   -40225.913    2903.2683   -43129.181    155.80205   0.95763773 
   90100    228.87161   -528.26907    130762.49   -40252.021     2847.598   -43099.619    156.33855   0.95511709 
   90200    228.52956   -460.80689    130495.53   -40290.902    2843.3422   -43134.244    156.34535   0.95707102 
   90300     233.8995   -444.76974    130550.83    -40294.65    2910.1545   -43204.805    156.85077   0.95666562 
   90400    228.54496   -500.98962    130454.59   -40275.168    2843.5338   -43118.702    157.13341   0.95737139 
   90500    230.72031   -462.24438    130531.68   -40240.849    2870.5993   -43111.448    157.41816   0.95680594 
   90600    231.83479   -370.95258    130625.49   -40148.337    2884.4656   -43032.802    157.35549   0.95611886 
   90700    229.69002   -298.13259    130758.31    -40152.32    2857.7805   -43010.101     157.8354   0.95514766 
   90800    227.06708    -658.6247    130693.01   -40182.141    2825.1462   -43007.287    157.59089   0.95562486 
   90900     227.6624   -428.27756    130743.42   -40270.483    2832.5531   -43103.036    157.75939   0.95525645 
   91000    223.88903   -579.99522    130357.81   -40285.407    2785.6052   -43071.012    157.53326   0.95808218 
   91100    224.15444   -240.09449    130431.52   -40288.452    2788.9073    -43077.36    157.50546   0.95754069 
   91200    233.00327   -561.54665    130723.43   -40244.243    2899.0037   -43143.247    158.41242   0.95540251 
   91300     235.7685    -611.0607    130665.21    -40153.64    2933.4084   -43087.048    158.65421   0.95582823 
   91400     232.4785    -403.7731    130514.85   -40148.136    2892.4746   -43040.611    158.26507   0.95692932 
   91500    230.18993   -264.82419    130516.81   -40172.831    2864.0004   -43036.832    158.49534   0.95691497 
   91600    229.47774   -411.17061    130580.49   -40211.898    2855.1394   -43067.037    158.72254   0.95644833 
   91700    228.78035    -310.9367    130304.49   -40275.507    2846.4625   -43121.969    158.90277   0.95847416 
   91800    225.49618   -241.15785     130402.9    -40234.73    2805.6012   -43040.331     159.4911   0.95775085 
   91900    232.21013   -301.93555    130466.13   -40247.619    2889.1355   -43136.754    159.93891   0.95728666 
   92000    231.23509    -415.4201    130589.84   -40266.101    2877.0041   -43143.105    160.09324   0.95637987 
   92100    227.89614   -336.54618    130574.21    -40323.91    2835.4612   -43159.372     160.1945   0.95649431 
   92200    226.57717   -370.76395    130600.68   -40241.867    2819.0508   -43060.917    160.22123   0.95630046 
   92300    235.52632    -182.3265    130960.69   -40137.591    2930.3952   -43067.986    160.84677   0.95367163 
   92400    230.82333    -537.8069    130907.79   -40135.632     2871.881   -43007.513    160.83446   0.95405697 
   92500    227.78639   -264.68564    130952.52   -40182.117    2834.0957   -43016.213    160.95296   0.95373107 
   92600    235.58329   -439.38834    130946.81   -40169.733     2931.104   -43100.837    161.20786   0.95377271 
   92700    231.98354   -418.53699    131024.28   -40158.923    2886.3162   -43045.239    161.52501   0.95320876 
   92800    232.31136   -445.17567    131188.44   -40202.306     2890.395   -43092.701    161.70255   0.95201598 
   92900    235.30162   -360.00029    131075.76   -40160.807    2927.5995   -43088.407    161.68957   0.95283439 
   93000    228.89076   -179.06012    131412.16   -40199.839    2847.8363   -43047.675    162.35301   0.95039526 
   93100    234.20864   -285.39703    131252.12   -40144.912    2914.0008   -43058.913    162.58536   0.95155406 
   93200    231.81022   -565.31638    131108.34   -40185.137    2884.1599   -43069.297    162.66627   0.95259762 
   93300    229.82867   -509.47717    130899.75   -40216.145    2859.5055    -43075.65    162.59805   0.95411559 
   93400    230.67711   -642.41948    130814.93   -40244.387    2870.0618   -43114.449    163.18603    0.9547342 
   93500    224.43601   -394.48175    130698.63   -40299.694    2792.4107   -43092.105    163.38422   0.95558378 
   93600    227.20191   -615.74135     130616.2   -40365.369    2826.8237   -43192.193    163.41955   0.95618685 
   93700    224.51437   -373.31764    130719.67   -40325.071    2793.3856   -43118.457    163.18563   0.95542997 
   93800    229.22936   -349.87605    130583.46   -40275.775     2852.049   -43127.824    163.10969   0.95642659 
   93900    227.32592   -450.82333    130817.27   -40245.549    2828.3666   -43073.916    163.23096   0.95471716 
   94000    227.65757   -445.52392    131190.05   -40234.237     2832.493    -43066.73    163.57586   0.95200426 
   94100    226.38853   -427.34138    131368.87   -40243.753    2816.7038   -43060.457    164.20424   0.95070844 
   94200    223.04757   -466.89269    131090.61   -40231.408    2775.1358   -43006.544    164.36036   0.95272645 
   94300    231.06609    -339.7778    131125.52    -40164.87    2874.9014   -43039.771    164.50838   0.95247282 
   94400    235.66072   -484.15469     131152.8    -40161.38    2932.0674   -43093.448    164.49657    0.9522747 
   94500     234.5389   -430.98229    131240.04   -40100.935    2918.1098   -43019.045    164.65409   0.95164167 
   94600    237.19949    -225.8491    131314.18   -40169.626    2951.2126   -43120.839    164.58996   0.95110438 
   94700     229.3321   -626.60897    131388.01   -40226.755    2853.3273   -43080.083    164.46853    0.9505699 
   94800    231.20072   -393.77131    131397.18    -40229.22    2876.5765   -43105.797     164.6235   0.95050356 
   94900    231.09341   -463.31151    131619.81   -40202.758    2875.2414   -43077.999    165.34219   0.94889582 
   95000    233.99966   -459.36577    131702.64   -40174.029    2911.4007    -43085.43    165.54261   0.94829905 
   95100    234.34038   -508.53133    131747.18   -40180.955    2915.6399   -43096.595    165.61471   0.94797848 
   95200    225.43005   -541.90593    131579.07   -40218.115    2804.7784   -43022.893    165.98916   0.94918967 
   95300    232.71228   -390.20791    131540.55   -40120.289    2895.3832   -43015.673    166.11062   0.94946757 
   95400    235.84604   -349.26998    131643.11   -40184.558    2934.3732   -43118.931    166.23987   0.94872792 
   95500    230.37733   -504.53159    131551.57   -40196.989    2866.3319   -43063.321    165.78993   0.94938803 
   95600    231.10203   -291.65246    131729.32   -40167.184    2875.3486   -43042.532    165.85451   0.94810702 
   95700    232.81629   -424.74378    131681.54    -40230.52    2896.6772   -43127.198     166.0269   0.94845105 
   95800    230.43158   -293.38284    131607.34   -40294.459     2867.007   -43161.466    166.14555   0.94898575 
   95900    228.83703   -471.37229    131796.27     -40239.1    2847.1677   -43086.267     166.4249   0.94762542 
   96000    230.04801   -441.19797    131703.37   -40316.367    2862.2346   -43178.602    166.76539   0.94829384 
   96100    230.89924   -385.01265    131765.61   -40259.809    2872.8255   -43132.634    166.56853   0.94784589 
   96200    226.61672   -472.45908    131575.35   -40314.972    2819.5428   -43134.515    166.39851   0.94921647 
   96300    224.74999   -415.46664    131377.88   -40256.931    2796.3172   -43053.249    166.65799   0.95064324 
   96400    231.70712   -430.70889    131340.59   -40222.103    2882.8771    -43104.98    166.77347   0.95091311 
   96500    225.72713   -586.10431    131263.41   -40271.503    2808.4747   -43079.978    166.83944   0.95147222 
   96600    229.92519   -425.71287    131285.57   -40247.369    2860.7064   -43108.075     167.4363   0.95131162 
   96700    226.93363   -389.00106    131239.43   -40331.454    2823.4858    -43154.94    167.51307   0.95164609 
   96800    222.87079    -238.6199    131160.25   -40388.262    2772.9364   -43161.198    167.42761   0.95222058 
   96900    227.77381   -437.75602    131315.71   -40306.127    2833.9392   -43140.066    167.92975   0.95109327 
   97000    229.63313   -441.50571    131339.47   -40303.373    2857.0727   -43160.446    167.89615   0.95092126 
   97100    228.07754   -439.38139    131162.31   -40298.549    2837.7182   -43136.267    167.80177   0.95220567 
   97200    225.78189   -461.63186    131195.21   -40314.938     2809.156   -43124.094    168.09847   0.95196686 
   97300    228.92322   -505.96252    131219.47   -40307.384      2848.24   -43155.624    168.50218   0.95179084 
   97400    231.25861   -482.33532    131020.44   -40332.276    2877.2968   -43209.573    168.88814    0.9532367 
   97500      229.852   -362.83928    131191.37   -40235.965    2859.7958   -43095.761    169.07852   0.95199471 
   97600    229.54226   -610.70016    131277.16    -40300.12    2855.9421   -43156.062     169.2177    0.9513726 
   97700    233.22582   -359.58897    131368.93   -40230.292    2901.7726   -43132.065    169.35092   0.95070796 
   97800    235.54633   -474.15548    131342.95   -40213.634    2930.6441   -43144.278    169.18315   0.95089606 
   97900    233.17507    -593.2834    131208.02   -40178.449    2901.1412    -43079.59    169.24591   0.95187392 
   98000    233.96332   -250.33017    131381.62   -40190.163    2910.9484   -43101.111     169.5356   0.95061614 
   98100    228.21094   -575.33008    131055.96    -40280.76     2839.378   -43120.138    169.46142   0.95297832 
   98200    227.78535   -378.02856    131065.79   -40252.881    2834.0828   -43086.964     169.7594   0.95290688 
   98300    226.69942   -365.97631    131127.47   -40284.606    2820.5718   -43105.178    169.95456   0.95245862 
   98400    225.99836    -521.9162    131126.57    -40300.95    2811.8492     -43112.8    169.89983   0.95246515 
   98500    226.25067   -275.05746     131012.4   -40299.724    2814.9884   -43114.712    170.32226   0.95329517 
   98600    233.06674   -390.58236    131233.62   -40326.932    2899.7933   -43226.726    170.53229   0.95168826 
   98700    227.60343    -468.6859    130972.22   -40388.631    2831.8194    -43220.45    170.64984   0.95358766 
   98800    228.03103   -667.93078    130895.53   -40360.276    2837.1396   -43197.415    170.81749   0.95414637 
   98900    226.80428    -461.4879    130869.83   -40365.167    2821.8764   -43187.043    170.66329   0.95433375 
   99000    224.74476   -488.95398    131027.04   -40394.994    2796.2521   -43191.246    170.81334   0.95318865 
   99100    229.36457   -427.71286     131054.1   -40317.544    2853.7313   -43171.275    171.50785   0.95299186 
   99200    224.32777   -441.31481    130992.35   -40303.301     2791.064   -43094.365    171.52279   0.95344108 
   99300    226.30321   -435.00415    131062.14   -40237.796    2815.6421   -43053.438    171.73965   0.95293344 
   99400    232.85225   -617.57482    131221.69   -40200.789    2897.1246   -43097.914    172.08804   0.95177478 
   99500    233.78575   -446.95123    130968.69   -40080.923    2908.7393   -42989.662    172.28923   0.95361337 
   99600    234.77232   -490.40102    130834.45   -40099.058     2921.014   -43020.072    172.32582   0.95459176 
   99700    230.90069    -455.9689    130833.02   -40109.171    2872.8435   -42982.015     172.8527   0.95460222 
   99800    228.52214   -371.91703    130993.73   -40123.604    2843.2498   -42966.854    173.19628   0.95343106 
   99900    230.46858   -512.08299     131070.5   -40174.991    2867.4673   -43042.458    173.42552   0.95287265 
  100000    225.73051   -336.38737    131046.58   -40185.651    2808.5167   -42994.168      173.467   0.95304658 
  100100     231.7717   -308.19232    131191.05    -40105.15    2883.6805   -42988.831    174.01218   0.95199704 
  100200    236.75626   -697.75436    131198.25   -40109.432    2945.6979    -43055.13    174.12968    0.9519448 
  100300    233.48169   -555.42401    131045.95   -40115.984    2904.9561    -43020.94    174.27914   0.95305114 
  100400    232.83953   -467.86586    131255.82   -40168.685    2896.9664   -43065.652    174.56522   0.95152723 
  100500    237.30152   -442.66396    131238.08   -40111.656    2952.4821   -43064.138    174.32423   0.95165587 
  100600    233.15124   -243.19352    131131.61   -40199.023    2900.8447   -43099.867    174.78897   0.95242858 
  100630    229.34342   -344.80481    131226.98   -40185.349    2853.4682   -43038.817     174.8576   0.95173638 
Loop time of 91.835 on 6 procs for 100000 steps with 4175 atoms

Performance: 470.409 ns/day, 0.051 hours/ns, 1088.909 timesteps/s
98.5% CPU use with 6 MPI tasks x no OpenMP threads

MPI task timing breakdown:
Section |  min time  |  avg time  |  max time  |%varavg| %total
---------------------------------------------------------------
Pair    | 70.683     | 71.36      | 73.214     |  10.2 | 77.70
Neigh   | 5.4126     | 5.4348     | 5.4708     |   0.9 |  5.92
Comm    | 10.335     | 12.186     | 12.858     |  24.8 | 13.27
Output  | 0.17888    | 0.18008    | 0.18561    |   0.6 |  0.20
Modify  | 1.9397     | 1.9649     | 1.9905     |   1.2 |  2.14
Other   |            | 0.7091     |            |       |  0.77

Nlocal:        695.833 ave         711 max         687 min
Histogram: 1 2 1 0 0 0 0 1 0 1
Nghost:        1470.17 ave        1492 max        1453 min
Histogram: 2 1 0 0 0 1 0 0 0 2
Neighs:        0.00000 ave           0 max           0 min
Histogram: 6 0 0 0 0 0 0 0 0 0
FullNghs:      19250.0 ave       19670 max       18967 min
Histogram: 1 2 0 0 1 0 0 1 0 1

Total # of neighbors = 115500
Ave neighs/atom = 27.664671
Neighbor list builds = 5759
Dangerous builds = 0

undump              1
unfix               2
unfix               3
unfix               4


################################################
#######         Run Simulation         #########
################################################

reset_timestep      0
log                 log.run_${NAME}
log                 log.run_liquid_density_MLmW
