
# Create simulation box of size 50 x 50 x 50 Angstrom
#
lattice	            sc 1
Lattice spacing in x,y,z = 1.0000000 1.0000000 1.0000000
region 	            all block 0 50 0 50 0 50 units box
create_box          1 all
Created orthogonal box = (0.0000000 0.0000000 0.0000000) to (50.000000 50.000000 50.000000)
  1 by 2 by 3 MPI processor grid

# fill box with 4175 randomly distributed atoms
#
create_atoms        1 random 4175 63782 all
Created 4175 atoms
  create_atoms CPU = 0.001 seconds
mass                1 18.015

# Define potential
#
pair_style          sw
pair_coeff          * * ML_mW.sw mW
Reading sw potential file ML_mW.sw with DATE: 2019-02-27

# Run minimization
#
minimize            1.0e-8 1.0e-8 10000 1000
WARNING: Using 'neigh_modify every 1 delay 0 check yes' setting during minimization (../min.cpp:187)
Neighbor list info ...
  update every 1 steps, delay 0 steps, check yes
  max neighbors/atom: 2000, page size: 100000
  master list distance cutoff = 6.0032907
  ghost atom cutoff = 6.0032907
  binsize = 3.0016454, bins = 17 17 17
  1 neighbor lists, perpetual/occasional/extra = 1 0 0
  (1) pair sw, perpetual
      attributes: full, newton on
      pair build: full/bin/atomonly
      stencil: full/bin/3d
      bin: standard
Per MPI rank memory allocation (min/avg/max) = 4.255 | 4.258 | 4.261 Mbytes
Step Temp E_pair E_mol TotEng Press 
       0            0    7792709.3            0    7792709.3    5898794.3 
     630            0   -45180.336            0   -45180.336   -154.07449 
Loop time of 1.17269 on 6 procs for 630 steps with 4175 atoms

98.4% CPU use with 6 MPI tasks x no OpenMP threads

Minimization stats:
  Stopping criterion = max force evaluations
  Energy initial, next-to-last, final = 
      7792709.32924461  -45180.0188663597   -45180.336116598
  Force two-norm initial, final = 2.0191930e+08 4.9721331
  Force max component initial, final = 1.0948746e+08 0.73126211
  Final line search alpha, max atom move = 0.053306038 0.038980685
  Iterations, force evaluations = 630 1000

MPI task timing breakdown:
Section |  min time  |  avg time  |  max time  |%varavg| %total
---------------------------------------------------------------
Pair    | 0.87614    | 0.99259    | 1.0931     |   6.7 | 84.64
Neigh   | 0.024057   | 0.024711   | 0.025802   |   0.4 |  2.11
Comm    | 0.033822   | 0.13512    | 0.25268    |  18.3 | 11.52
Output  | 0          | 0          | 0          |   0.0 |  0.00
Modify  | 0          | 0          | 0          |   0.0 |  0.00
Other   |            | 0.02026    |            |       |  1.73

Nlocal:        695.833 ave         704 max         685 min
Histogram: 1 1 0 0 1 0 0 1 0 2
Nghost:        1494.17 ave        1515 max        1468 min
Histogram: 1 1 0 0 0 0 1 1 1 1
Neighs:        0.00000 ave           0 max           0 min
Histogram: 6 0 0 0 0 0 0 0 0 0
FullNghs:      19997.0 ave       20462 max       19320 min
Histogram: 1 1 0 0 0 0 0 2 0 2

Total # of neighbors = 119982
Ave neighs/atom = 28.738204
Neighbor list builds = 26
Dangerous builds = 0

# Add velocity/set timestep
#
velocity            all create ${TEMP} 120598 rot yes dist gaussian
velocity            all create 220 120598 rot yes dist gaussian
timestep            5.0

# Define output
#
compute	            1 all msd
thermo	            100
thermo_style        custom step temp press vol etotal ke pe c_1[4] density

# Neighbor lists
#
neigh_modify        delay 0 every 1 check yes

# Set fixes
#
fix                 1 all momentum 10 linear 1 1 1 rescale
fix                 2 all nve
fix                 3 all temp/csvr ${TEMP} ${TEMP} 500.0 928347
fix                 3 all temp/csvr 220 ${TEMP} 500.0 928347
fix                 3 all temp/csvr 220 220 500.0 928347
fix                 4 all press/berendsen iso ${PRES} ${PRES} 1000.0 modulus 20000
fix                 4 all press/berendsen iso 150 ${PRES} 1000.0 modulus 20000
fix                 4 all press/berendsen iso 150 150 1000.0 modulus 20000

# Run 0.5 ns equilibration
#
dump                1 all custom 1000 eq.${NAME}.dump id type x y z vx vy vz
dump                1 all custom 1000 eq.liquid_density_MLmW.dump id type x y z vx vy vz
run                 100000
Per MPI rank memory allocation (min/avg/max) = 3.506 | 3.508 | 3.511 Mbytes
Step Temp Press Volume TotEng KinEng PotEng c_1[4] Density 
     630          220    846.92133       125000   -42443.118    2737.2183   -45180.336 2.7295415e-33   0.99914793 
     700    140.20704    87.122233     125346.7   -41602.848    1744.4421   -43347.291   0.25835785   0.99638439 
     800    174.19642    -107.8891    125281.93   -40839.951    2167.3346   -43007.286    0.6088284   0.99689945 
     900    191.12673    116.17713    125106.93     -40421.1    2377.9799    -42799.08    1.0595665   0.99829396 
    1000    202.85844    96.791437    125336.69    -40150.91    2523.9447   -42674.854    1.4245659   0.99646396 
    1100    212.74818    339.35316    125438.59   -39971.666    2646.9918   -42618.658    1.8665937   0.99565449 
    1200     211.4155    112.27961     125425.7   -39998.393    2630.4107   -42628.804    2.3229456   0.99575675 
    1300    212.29996    40.284766    125464.47   -39981.512    2641.4152   -42622.927    2.6921671   0.99544909 
    1400    215.53429    278.82281    125548.65   -39987.639    2681.6563   -42669.296     3.073757    0.9947816 
    1500    215.50722    106.11178    125387.61   -39940.242    2681.3195   -42621.561    3.4271841   0.99605927 
    1600    222.32324     199.6168     125426.3   -39853.092    2766.1237   -42619.216    3.8279982   0.99575203 
    1700     220.0988    2.0940078    125555.67   -39884.288    2738.4475   -42622.735    4.1543409   0.99472604 
    1800    216.13018    25.470326    125542.21   -39966.088    2689.0703   -42655.158    4.5986458   0.99483268 
    1900    220.88931     42.54058    125589.15   -39947.939    2748.2829   -42696.222    4.9142466   0.99446084 
    2000     221.4468    137.45222    125703.92   -39922.002    2755.2193   -42677.221    5.3207577   0.99355291 
    2100    221.27968    140.58146    125720.95   -39893.569      2753.14   -42646.709    5.7155592   0.99341828 
    2200    222.94745    224.16073    125814.48    -39931.14    2773.8901    -42705.03      6.02989   0.99267982 
    2300    218.92429    329.62333    125812.71   -39923.262    2723.8343   -42647.096    6.3433277   0.99269375 
    2400    224.66046    197.95572    125803.49   -39960.886    2795.2032   -42756.089    6.6474059   0.99276647 
    2500    222.32227    179.71813    126053.89   -39929.861    2766.1117   -42695.973    6.9768844   0.99079446 
    2600    227.61021    36.973475    125865.75   -39902.031    2831.9037   -42733.935    7.3565178   0.99227546 
    2700    225.72878    239.26087    126010.19   -39925.143    2808.4951   -42733.638     7.706829   0.99113801 
    2800     223.2704    274.62499    125984.21   -39918.196    2777.9082   -42696.105    8.0829706   0.99134239 
    2900    219.48735    73.621167    125882.17   -39991.469    2730.8399   -42722.309    8.4797437   0.99214602 
    3000    218.79871    340.58257    125944.76   -40022.399     2722.272   -42744.671    8.8674161   0.99165297 
    3100    225.61348    96.821362    125988.49   -39989.705    2807.0606   -42796.765     9.069609   0.99130872 
    3200    221.80337    32.757363    125961.71   -40057.297    2759.6557   -42816.953    9.2771963   0.99151953 
    3300    218.57556   -19.762606    126063.86   -40057.366    2719.4955   -42776.861    9.5059186   0.99071607 
    3400    218.08886    93.354959    126379.17   -40091.981    2713.4401   -42805.421    9.8436662   0.98824431 
    3500    222.57247    194.85929    126442.79   -40133.892    2769.2247   -42903.117    10.096509   0.98774704 
    3600    216.58477    329.09214    126295.67   -40173.958    2694.7263   -42868.685    10.360072   0.98889765 
    3700    219.64855    279.10337    126484.57    -40222.79    2732.8456   -42955.636     10.64752   0.98742073 
    3800    216.82387    122.68224    126469.77   -40167.297    2697.7012   -42864.998    11.059395   0.98753632 
    3900    216.30627    179.27212     126597.6   -40180.483    2691.2612   -42871.744    11.553975   0.98653914 
    4000    216.58043    175.61989    126527.99    -40170.37    2694.6723   -42865.042    11.839983   0.98708195 
    4100     218.7419     158.6231    126433.73    -40140.37    2721.5651   -42861.935    12.052593   0.98781783 
    4200    222.63221    7.9047656    126597.91   -40157.966     2769.968   -42927.934    12.409528   0.98653672 
    4300    220.05882    79.531934    126654.43   -40162.069      2737.95   -42900.019    12.734177    0.9860965 
    4400    219.05729    182.30749    126697.41   -40166.048    2725.4892   -42891.537    12.888894   0.98576199 
    4500     220.2443    262.88698    126960.45   -40175.612    2740.2579   -42915.869     13.21777    0.9837197 
    4600    219.03039    286.67405    126967.17    -40240.55    2725.1545   -42965.704    13.373726    0.9836676 
    4700     222.9191    89.736562    126852.15   -40153.379    2773.5375   -42926.917    13.691647   0.98455952 
    4800    215.54996    150.98054    126801.98   -40219.719    2681.8513    -42901.57    14.044806   0.98494907 
    4900    221.44853    109.56885    126751.44   -40098.457    2755.2408   -42853.698     14.25177   0.98534181 
    5000    226.56519     231.1026    127153.66   -40055.303    2818.9017   -42874.205    14.452835   0.98222491 
    5100    222.70539    202.70346     127382.1   -40135.673    2770.8784   -42906.552    14.649059   0.98046342 
    5200    222.02224    180.76072    127180.09   -40217.231    2762.3788    -42979.61    14.929775   0.98202081 
    5300    222.45715    69.650839    127171.32   -40184.849    2767.7898   -42952.639    15.177378   0.98208848 
    5400    215.78416    296.30636    127200.27   -40218.171    2684.7652   -42902.936    15.324706   0.98186501 
    5500    220.18755    70.171854    127295.79   -40211.052    2739.5517   -42950.603    15.518932    0.9811282 
    5600    223.42301    358.21757    127092.84   -40212.047     2779.807   -42991.854    15.820525   0.98269497 
    5700    218.06482    111.31838    126988.24   -40216.545    2713.1409   -42929.686    16.054599   0.98350435 
    5800    217.30572    195.16434    126853.41   -40261.169    2703.6963   -42964.865    16.388239   0.98454973 
    5900    217.93678    233.14561    126965.58   -40303.037    2711.5479   -43014.585    16.685197   0.98367991 
    6000    218.94895    519.62884    127196.09    -40303.61    2724.1412   -43027.752    16.810692   0.98189721 
    6100    221.10754    68.661266    127226.88   -40246.149    2750.9981   -42997.147    16.846823    0.9816596 
    6200    223.46626    111.08585    127112.45   -40328.065    2780.3452    -43108.41    17.155375   0.98254335 
    6300    220.18653    272.61413    127067.13   -40299.905    2739.5391   -43039.444    17.378912    0.9828938 
    6400    214.89536    180.16792     126959.4   -40264.939    2673.7069   -42938.646    17.711561   0.98372783 
    6500    220.34287    284.22897    127247.25   -40193.172    2741.4843   -42934.656    18.053615   0.98150247 
    6600    219.12779    163.54549    127273.78   -40256.095    2726.3663   -42982.461    18.331892   0.98129792 
    6700    216.76632    107.99324    127233.94   -40327.205    2696.9851    -43024.19    18.572661   0.98160518 
    6800    219.64717    89.449115    127178.62   -40245.062    2732.8284   -42977.891    18.702875    0.9820321 
    6900    221.20094     85.54372    127158.52   -40177.734    2752.1603   -42929.894    18.585275   0.98218736 
    7000    224.88016    119.87566    127163.27   -40165.439    2797.9368   -42963.376    18.981776   0.98215068 
    7100    221.16069     296.0132    127084.38   -40182.176    2751.6595   -42933.835    19.202228   0.98276035 
    7200    216.20854    195.08413    127305.78   -40236.394    2690.0453   -42926.439    19.499253   0.98105123 
    7300    222.19959    121.55897    127278.62   -40307.928    2764.5853   -43072.513    19.644732    0.9812606 
    7400     220.6982    192.27079    127369.09   -40341.527    2745.9051   -43087.432    20.041405   0.98056359 
    7500    218.36473   -16.828381    127399.59   -40316.358    2716.8723    -43033.23    20.324239   0.98032885 
    7600    215.78062    85.900236    127424.53   -40415.191    2684.7211   -43099.912    20.488281   0.98013697 
    7700    222.55889    237.15284     127452.8   -40330.733    2769.0557   -43099.789    20.689327   0.97991954 
    7800    221.36409    393.09207    127631.35   -40314.315    2754.1901   -43068.505    21.166114   0.97854872 
    7900    214.91198    164.72605    127584.73   -40370.995    2673.9136   -43044.908    21.350244   0.97890627 
    8000    217.56588    44.294955    127351.21   -40325.901    2706.9331   -43032.834    21.493439   0.98070124 
    8100    218.40192    171.16888    127259.26   -40388.441    2717.3351   -43105.776    21.588898   0.98140984 
    8200     217.5068    134.08476    127673.67    -40414.51    2706.1981   -43120.708    21.989522   0.97822434 
    8300    216.74777    406.81528    127619.06   -40414.896    2696.7543    -43111.65    22.182659    0.9786429 
    8400     220.7797    293.28765    127662.89   -40376.676    2746.9192   -43123.596    22.410431   0.97830692 
    8500    223.22299     64.74404    127339.89   -40312.087    2777.3183   -43089.405    22.530881   0.98078843 
    8600      220.015     286.7673    127239.14   -40336.905    2737.4048    -43074.31    22.763584     0.981565 
    8700    220.22305    231.17742     127418.9   -40320.689    2739.9934   -43060.682    23.046088   0.98018023 
    8800    216.08188    89.623646    127664.98   -40366.006    2688.4693   -43054.476    23.283363   0.97829096 
    8900    214.32676    246.21436    127698.86    -40450.84    2666.6323   -43117.472     23.49702   0.97803135 
    9000    217.36073    97.751643    127663.64   -40392.426    2704.3807   -43096.807    23.755379    0.9783012 
    9100    211.89168   -87.757681    127567.63   -40450.001    2636.3353   -43086.336    23.813976    0.9790375 
    9200    217.85911    31.394737    127452.94   -40345.246    2710.5815   -43055.827    23.869881   0.97991852 
    9300    220.86665    134.66535    127607.57     -40387.5     2748.001   -43135.501    23.977175   0.97873106 
    9400    217.94474    155.67894     127852.7   -40350.912    2711.6469   -43062.559    24.004639   0.97685453 
    9500     217.3195    58.658514    127748.87   -40372.819    2703.8677   -43076.687    24.165795   0.97764852 
    9600    218.11514    157.72868    127771.77   -40330.369     2713.767   -43044.136    24.376147   0.97747331 
    9700    216.80051    201.10923    127715.38   -40281.455    2697.4105   -42978.865    24.382184   0.97790483 
    9800    216.53393    126.46237    127474.24   -40370.504    2694.0937   -43064.597    24.323664   0.97975477 
    9900    217.64335    251.53104    127536.54     -40440.8    2707.8971   -43148.698    24.564049   0.97927616 
   10000    215.13569    200.85056    127395.13   -40439.429     2676.697   -43116.126    24.849658   0.98036316 
   10100     221.0758    95.550776     127662.1   -40408.541    2750.6033   -43159.144    25.195098   0.97831299 
   10200    213.48538    222.67613    127764.06   -40466.386     2656.164    -43122.55    25.396214   0.97753229 
   10300    216.05891    143.42646    127803.12   -40460.404    2688.1836   -43148.587    25.616995   0.97723349 
   10400    218.69648    106.12135    127874.37    -40393.59    2720.9999    -43114.59    25.742979   0.97668903 
   10500    218.62755    203.53696    127999.37   -40372.022    2720.1424   -43092.164    25.976208    0.9757352 
   10600    217.39534    133.05396    127913.54   -40299.431    2704.8114   -43004.242    26.254285   0.97638996 
   10700    220.69752    161.99817     127915.2    -40283.41    2745.8968   -43029.306     26.36747   0.97637727 
   10800    221.11028    233.15222    127660.11   -40271.128    2751.0322    -43022.16    26.500976   0.97832821 
   10900    220.77109     190.8222    127649.97   -40311.355    2746.8121   -43058.167    26.823652   0.97840595 
   11000     225.0588    236.97509     127798.5   -40303.788    2800.1593   -43103.947    27.057245   0.97726886 
   11100     221.9827    200.33518    127813.02   -40357.866    2761.8868   -43119.753    27.309585   0.97715785 
   11200    224.38549    100.88685    127808.89   -40370.066    2791.7821   -43161.848     27.31443   0.97718935 
   11300    220.87273    271.61636    127845.26   -40375.743    2748.0767   -43123.819    27.386621   0.97691142 
   11400    216.93709    293.47628    128073.58   -40376.901    2699.1099   -43076.011    27.647947   0.97516982 
   11500    219.81004    114.95577    128046.09   -40395.306    2734.8548   -43130.161    27.929666    0.9753792 
   11600     218.0202    171.63117    128148.56   -40397.842    2712.5857   -43110.427     27.96923   0.97459929 
   11700    225.48621    55.368456       127961   -40291.916    2805.4772   -43097.393     28.13614   0.97602775 
   11800    217.63665    131.32546    127862.73   -40366.577    2707.8137   -43074.391     28.38728   0.97677792 
   11900    218.80552    87.940327    127703.57   -40382.488    2722.3566   -43104.844    28.576036   0.97799527 
   12000    218.07005    75.026381    127753.03   -40378.599     2713.206   -43091.805    28.948645   0.97761664 
   12100    223.41499    197.88711     127734.1   -40341.237    2779.7072   -43120.945    29.051733   0.97776157 
   12200    222.08372    232.10785    127850.56   -40351.187    2763.1437   -43114.331    29.410771   0.97687093 
   12300     220.9523    332.15768    128148.23   -40382.865    2749.0667   -43131.932    29.630124   0.97460173 
   12400    220.57312    184.28199    128274.35   -40378.251     2744.349     -43122.6    29.919763   0.97364353 
   12500    219.14181   -57.084504    128056.14   -40474.201    2726.5408   -43200.741    29.830954    0.9753026 
   12600    219.83669    201.22385    127949.34   -40395.054    2735.1864    -43130.24    29.911955    0.9761167 
   12700    220.10119    39.690726    128027.94   -40363.274    2738.4772   -43101.752    30.142476   0.97551745 
   12800    225.43539    235.45242    128028.33   -40335.809    2804.8448   -43140.654    30.478843    0.9755145 
   12900    221.61645    204.13556     128026.3   -40394.872      2757.33   -43152.202    30.660121   0.97552995 
   13000     223.1239    262.31907    128269.22   -40335.827    2776.0855   -43111.912    30.664532   0.97368251 
   13100    224.14157    76.138295    128284.19   -40360.374    2788.7472   -43149.122    30.672462   0.97356882 
   13200    224.33536    121.60737    128384.22   -40303.199    2791.1583   -43094.357     30.83907   0.97281031 
   13300    222.37513    154.02557    128276.51   -40359.679    2766.7694   -43126.449     30.93072   0.97362711 
   13400     218.4322    108.24904       128414   -40447.542    2717.7119   -43165.253    31.186243   0.97258472 
   13500    222.25425   -78.491936    128311.69   -40472.521    2765.2654   -43237.787    31.266584   0.97336016 
   13600    223.70536    395.62717     128445.9   -40503.551      2783.32    -43286.87    31.515502   0.97234313 
   13700    226.21158    276.07837    128483.92   -40520.198    2814.5022   -43334.701    31.756182   0.97205539 
   13800    217.94102    278.48415     128433.1   -40445.189    2711.6006   -43156.789    32.080596   0.97244004 
   13900    221.65371     230.4406    128446.62   -40478.867    2757.7935   -43236.661    32.195287   0.97233767 
   14000     223.1694    70.402943    128526.87   -40471.114    2776.6516   -43247.766    32.335352   0.97173059 
   14100    217.74739    143.64263    128532.77   -40462.142    2709.1915   -43171.333    32.562362   0.97168595 
   14200    215.86134    125.65185     128477.4   -40504.137    2685.7255   -43189.862    32.708977   0.97210477 
   14300    221.52731    328.16952     128267.6       -40556    2756.2209   -43312.221     32.87995   0.97369478 
   14400    221.54809    151.69947    128353.26   -40526.964    2756.4795   -43283.444    32.975929   0.97304496 
   14500    217.48918    65.530155    128373.71   -40480.833    2705.9789   -43186.812    33.194888   0.97288994 
   14600     223.0346    135.00611    128228.06   -40486.986    2774.9744    -43261.96    33.296632   0.97399499 
   14700    217.90223    103.22588    128319.89   -40528.924    2711.1181   -43240.042    33.378511   0.97329801 
   14800    216.84542    202.03601    128414.01   -40562.829    2697.9693   -43260.798    33.509438   0.97258464 
   14900    217.21398    197.14992    128529.74   -40641.051    2702.5549   -43343.606    33.697984    0.9717089 
   15000    217.88727    112.36089    128547.26   -40650.533    2710.9319   -43361.465    33.984955   0.97157647 
   15100    214.30304    87.246514    128541.33   -40661.751    2666.3372   -43328.088    33.881163   0.97162125 
   15200    215.66534    70.107876    128231.19   -40585.003    2683.2868    -43268.29     33.99166   0.97397127 
   15300    217.24491    254.60868    128209.74   -40568.522    2702.9396   -43271.462    34.219683   0.97413417 
   15400    219.89253    138.14578    128269.02   -40563.264    2735.8811   -43299.145    34.433501     0.973684 
   15500    216.23965    -214.2035    128215.06   -40535.024    2690.4323   -43225.456    34.483294   0.97409378 
   15600    221.74013    28.172483    128036.38   -40468.071    2758.8688    -43226.94    34.558339    0.9754532 
   15700    215.35794    242.74215    128003.13   -40559.193    2679.4623   -43238.655    34.898927   0.97570653 
   15800    217.61671     321.3877    128076.03    -40559.01    2707.5656   -43266.575    35.018092   0.97515121 
   15900    214.86171    169.67205    128297.47   -40578.269    2673.2881   -43251.557    35.250039   0.97346805 
   16000    216.72942   -28.849184    128234.55   -40511.132     2696.526   -43207.658    35.555025   0.97394573 
   16100    224.32483    65.712673    128097.88    -40460.14    2791.0273   -43251.167    35.382334   0.97498484 
   16200    220.96679    294.51116    128237.49   -40526.963     2749.247    -43276.21    35.613893   0.97392336 
   16300    219.36742    35.494827    128231.87   -40545.862    2729.3477    -43275.21    35.802199   0.97396607 
   16400    218.23805    314.24891    128210.38   -40446.669    2715.2963   -43161.965    35.856942   0.97412935 
   16500    219.29621    181.78871     128302.4   -40441.024    2728.4618   -43169.486    36.042409   0.97343066 
   16600    222.84104    283.52865    128327.95   -40413.804    2772.5662   -43186.371    36.468076   0.97323684 
   16700    221.63208    59.787742    128413.43   -40436.412    2757.5244   -43193.936     36.50302   0.97258905 
   16800    220.80386    254.61004    128401.94   -40416.709    2747.2198   -43163.929    36.539604   0.97267606 
   16900     223.6523    167.17816    128526.14   -40383.573    2782.6599   -43166.233    36.893021   0.97173612 
   17000    225.21047    35.443652     128404.4   -40413.216    2802.0465   -43215.262     37.07469   0.97265738 
   17100    222.45542    78.422188    128172.41   -40333.582    2767.7684   -43101.351    37.195472   0.97441789 
   17200    224.60053    164.67187    128236.55   -40350.767    2794.4575   -43145.225    37.179428   0.97393056 
   17300    223.37296    70.858209     128310.3   -40399.095    2779.1842    -43178.28    37.518058   0.97337071 
   17400    219.12496    301.54372     128280.5   -40411.484     2726.331   -43137.815    37.597428   0.97359682 
   17500    218.61438    233.82866    128478.87   -40403.654    2719.9785   -43123.632    37.718665   0.97209366 
   17600    224.10649    309.60053    128492.79   -40373.457    2788.3108   -43161.768      37.7954   0.97198833 
   17700    215.51655    54.078658    128513.78   -40392.468    2681.4356   -43073.903    37.820221   0.97182953 
   17800    219.64084    157.23717    128519.77   -40399.636    2732.7496   -43132.386    38.309674   0.97178426 
   17900    222.33714    203.82027     128710.8   -40367.929    2766.2967   -43134.226    38.720604   0.97034199 
   18000    223.88557    278.49899    128496.54   -40316.839    2785.5622   -43102.401    38.982434   0.97195992 
   18100    219.98598    272.29108    128474.83   -40416.001    2737.0438   -43153.045     39.16226   0.97212422 
   18200    222.09734     178.9813    128585.07    -40424.36    2763.3131   -43187.674    39.151584   0.97129077 
   18300    221.69461    178.45492    128717.61   -40337.952    2758.3024   -43096.255    39.639966   0.97029061 
   18400    222.77726    324.90146    128839.68   -40414.012    2771.7727   -43185.784    39.747498   0.96937131 
   18500    222.75066    184.63413    128801.98   -40388.207    2771.4417   -43159.649    39.714864   0.96965504 
   18600    217.07773    100.01182     128684.9   -40437.736    2700.8597   -43138.596    39.699262    0.9705373 
   18700    221.23584   -12.539066    128657.11   -40411.374    2752.5944   -43163.969     39.56891   0.97074691 
   18800    221.17522    176.36769    128809.19   -40384.297    2751.8402   -43136.137    39.938564   0.96960077 
   18900    221.92967    110.97671    128783.11   -40410.283     2761.227    -43171.51     40.14866   0.96979714 
   19000    224.87802    48.524549    128668.17   -40387.186      2797.91   -43185.097    40.255222   0.97066349 
   19100    216.91414    245.66009    128594.83   -40439.907    2698.8243   -43138.731    40.526392   0.97121706 
   19200    223.32608    236.65914    128741.78   -40406.415     2778.601   -43185.016    41.008144   0.97010847 
   19300    222.31415    252.43845    128807.48   -40377.634    2766.0106   -43143.645    40.995405   0.96961366 
   19400     219.9565     99.34065    128831.81   -40384.739     2736.677   -43121.416     41.32291   0.96943056 
   19500      222.221    147.49963    128846.43   -40374.228    2764.8517   -43139.079    41.670588   0.96932055 
   19600     221.2378    1.1755201    128645.08   -40416.763    2752.6189   -43169.381    41.669199   0.97083768 
   19700    222.99238    105.14428    128312.42   -40390.914    2774.4492   -43165.363    41.743644   0.97335464 
   19800    222.58093    186.69995    128288.26   -40415.147      2769.33   -43184.477    42.038707   0.97353794 
   19900    220.05128    10.708596    128249.24   -40413.182    2737.8562   -43151.038    42.170136   0.97383415 
   20000    216.77487    89.043883     128184.7   -40465.687    2697.0915   -43162.778    42.003766   0.97432444 
   20100    221.04371    262.77557    128339.75   -40432.002     2750.204   -43182.206    42.162358   0.97314735 
   20200    219.40724    265.65822     128519.5   -40472.886    2729.8432   -43202.729     42.26157   0.97178633 
   20300    215.24821    46.862152    128571.62   -40513.331     2678.097   -43191.428    42.641069   0.97139241 
   20400    216.76786    153.98655    128564.29   -40515.529    2697.0042   -43212.534    42.565669   0.97144775 
   20500    218.66928   -31.506078    128440.62   -40478.056    2720.6615   -43198.717    42.798029   0.97238313 
   20600    218.81869    252.40914    128384.64   -40505.007    2722.5205   -43227.527    42.850485   0.97280709 
   20700    224.83646    202.80341    128317.53   -40456.375     2797.393   -43253.768    42.827176   0.97331586 
   20800    219.45303    81.221291    128232.75   -40465.059    2730.4128   -43195.472     43.20102   0.97395941 
   20900    218.43028    47.289864    128206.55   -40488.116     2717.688   -43205.804    43.482876    0.9741584 
   21000    217.00838    116.64602     128328.2   -40563.602    2699.9968   -43263.599     43.77761   0.97323495 
   21100    214.50447    45.019241    128240.58   -40583.337    2668.8434   -43252.181    43.867618   0.97389994 
   21200    215.86433    209.86593    128279.68   -40540.235    2685.7626   -43225.998    44.030685   0.97360304 
   21300     217.0388    239.85015     128428.4   -40550.382    2700.3753   -43250.757    44.282512   0.97247567 
   21400    223.06567    124.85826    128384.13   -40509.684    2775.3611   -43285.045    44.509028   0.97281096 
   21500    215.82787    172.31477    128365.44   -40505.932     2685.309   -43191.241    44.627471   0.97295261 
   21600    221.32962     392.2374    128430.58   -40463.067    2753.7612   -43216.828    44.550737   0.97245911 
   21700    220.10998    158.57712    128356.57    -40442.75    2738.5866   -43181.337    44.859246   0.97301983 
   21800    223.52586    322.52459    128348.77   -40434.463    2781.0867    -43215.55     45.07976   0.97307896 
   21900    219.72692    261.14584    128306.65   -40450.967    2733.8206   -43184.788    45.184066   0.97339841 
   22000    219.50564    8.3071445    128280.25   -40496.217    2731.0675   -43227.285    45.283125   0.97359877 
   22100    220.21228    4.1841358    128177.84   -40441.769    2739.8594   -43181.628    45.301853   0.97437665 
   22200    217.08384    324.33297    128245.27   -40473.548    2700.9357   -43174.484    45.617773    0.9738643 
   22300    218.77488    207.56415    128252.98   -40446.231    2721.9754   -43168.206    45.734315   0.97380574 
   22400    223.44351    81.906035    128235.44   -40420.712    2780.0621   -43200.774    45.714017   0.97393899 
   22500     218.1668    233.10144    128220.61   -40429.654    2714.4098   -43144.064    46.038479   0.97405159 
   22600    222.08475    165.13212    128253.45   -40403.156    2763.1565   -43166.313    46.453888   0.97380216 
   22700    222.32642    342.94644    128291.92   -40419.483    2766.1634   -43185.646    46.689148   0.97351016 
   22800    222.45744    262.97208    128337.14    -40392.98    2767.7935   -43160.774    46.990621    0.9731672 
   22900    222.46857   -123.60367    128466.74   -40446.018     2767.932    -43213.95    47.142209   0.97218544 
   23000    220.53013    246.65706    128536.12   -40425.311    2743.8141   -43169.125     47.40901   0.97166065 
   23100    213.84623   -10.296258     128430.3   -40519.705    2660.6536   -43180.358      47.5508   0.97246123 
   23200    219.25309    51.990599    128551.15   -40465.179    2727.9252   -43193.104     47.31602   0.97154707 
   23300     217.2237    162.57125    128627.29   -40504.814    2702.6758    -43207.49    47.384701   0.97097194 
   23400    223.57898    284.11202    128548.92   -40427.504    2781.7476   -43209.251    47.559545   0.97156394 
   23500    221.11153    130.28187    128692.53   -40455.915    2751.0478   -43206.963    47.677314   0.97047973 
   23600    220.62748    139.69547    128702.28   -40426.818    2745.0253   -43171.843    47.591068    0.9704062 
   23700    217.86255    23.484345    128694.12    -40465.27    2710.6243   -43175.894    47.940046    0.9704677 
   23800     214.8626    95.367436    128783.09   -40517.528    2673.2992   -43190.827    47.957544   0.96979729 
   23900    217.68031    313.70986    128813.32    -40522.29    2708.3569   -43230.647    48.246526   0.96956972 
   24000    215.39886    43.762192    128716.25   -40439.622    2679.9713   -43119.593    48.384047   0.97030091 
   24100    223.49565    276.23942    128683.46   -40445.698    2780.7108   -43226.409    48.377236   0.97054815 
   24200    218.36892   -135.90355    128479.11   -40508.599    2716.9245   -43225.524    48.420383   0.97209181 
   24300    220.69216    227.21647     128275.8   -40475.006      2745.83   -43220.836     48.68735   0.97363256 
   24400    216.69778    246.64647       128456   -40516.716    2696.1324   -43212.848    48.556238    0.9722667 
   24500     220.0348    45.323923    128346.75   -40475.217    2737.6513   -43212.868    48.684515   0.97309428 
   24600    220.83825      352.705    128398.93   -40478.236    2747.6476   -43225.883    48.886453   0.97269882 
   24700    220.20646    62.635405    128516.05   -40509.231     2739.787   -43249.018    48.957884   0.97181237 
   24800     219.6078    286.55408    128684.66   -40509.408    2732.3386   -43241.747    49.221686   0.97053907 
   24900    221.76873    149.20685    128786.67   -40472.026    2759.2246    -43231.25    49.455016    0.9697703 
   25000    223.05183      109.579    128815.96   -40461.227    2775.1889   -43236.416    49.757301    0.9695498 
   25100    217.34188    60.971537    128628.89   -40456.111    2704.1461   -43160.257    49.684173   0.97095985 
   25200    217.79503    237.62167    128704.31    -40483.45    2709.7842   -43193.234    49.923987   0.97039091 
   25300    216.71418    100.22781    128922.92   -40469.984    2696.3364   -43166.321    50.288333   0.96874541 
   25400     219.7529    172.75002    128760.75   -40454.085    2734.1439   -43188.229    50.569796   0.96996554 
   25500    220.13788    380.22088    128841.89   -40396.362    2738.9337   -43135.296    50.630547   0.96935467 
   25600      217.909    299.17928    128971.33   -40477.396    2711.2022   -43188.598    50.669606   0.96838183 
   25700    222.91422    158.37508    129094.43   -40501.155    2773.4766   -43274.632    50.821955   0.96745838 
   25800    218.62001    179.04644    128997.51   -40500.083    2720.0485   -43220.131    50.878986    0.9681853 
   25900    217.53058    139.69939    129013.56   -40460.339    2706.4939   -43166.833    51.213917   0.96806481 
   26000     227.1613    86.947386    129236.29   -40410.804    2826.3184   -43237.122    51.569537   0.96639643 
   26100    216.09691    188.72833    129074.84   -40503.164    2688.6565    -43191.82    51.945855   0.96760521 
   26200    220.22154   -65.599434    129056.77   -40491.688    2739.9746   -43231.663    52.064534   0.96774075 
   26300    218.78906    94.590498     129004.5   -40462.224    2722.1519   -43184.376    52.002345   0.96813285 
   26400    221.23484    113.16301     128939.6   -40432.818    2752.5821     -43185.4    52.002336   0.96862011 
   26500    219.90479    180.76542    128923.88   -40478.729    2736.0337   -43214.762    52.406093   0.96873819 
   26600    220.76504    201.78838    128895.79   -40529.229    2746.7368   -43275.966    52.667344   0.96894934 
   26700    213.97868    153.89906    128761.37   -40548.711    2662.3016   -43211.013    52.848579   0.96996085 
   26800    219.75377    281.49999    128864.74   -40481.702    2734.1547   -43215.857    53.076416   0.96918282 
   26900    215.69259    104.92665    128735.45   -40482.609    2683.6259   -43166.235     52.94778   0.97015616 
   27000      214.448    207.72514    128678.88   -40515.587    2668.1408   -43183.728    53.036869   0.97058268 
   27100    216.97093    139.92992    128704.97   -40520.009    2699.5308    -43219.54    53.081573   0.97038594 
   27200    221.18895    319.96006    128725.73   -40536.634     2752.011   -43288.645    53.298466   0.97022941 
   27300    213.44017    383.56093    128888.25   -40570.971    2655.6015   -43226.572     53.68037   0.96900603 
   27400    219.99714    190.93461    128809.57   -40515.714    2737.1826   -43252.897    53.973402   0.96959792 
   27500     221.1512    118.05352       128805   -40433.491    2751.5414   -43185.033    54.072061   0.96963229 
   27600    218.25373   -77.948261    128799.41   -40467.988    2715.4914   -43183.479    54.111774    0.9696744 
   27700    218.06492    1.8283029    128983.37   -40484.115    2713.1421   -43197.258    54.273461   0.96829143 
   27800    221.57204    97.968806    128813.19   -40433.065    2756.7774   -43189.842    54.278969   0.96957069 
   27900    220.94064    173.11549    128881.93   -40458.608    2748.9216    -43207.53    54.474451   0.96905354 
   28000    220.07841     139.6466    128981.66   -40498.784    2738.1938   -43236.978    54.857469   0.96830423 
   28100      221.442    263.92696    129066.12   -40483.527    2755.1594   -43238.687    55.126461   0.96767064 
   28200    218.70856     194.0466    129142.85    -40520.03    2721.1503   -43241.181    55.105919   0.96709571 
   28300    220.66916    275.32263    129042.67   -40524.298    2745.5438   -43269.842    55.025426   0.96784648 
   28400     217.8583    19.602318    129148.36   -40577.447    2710.5715   -43288.018    55.251753   0.96705438 
   28500    215.95549    155.26302    128981.11   -40594.958    2686.8969   -43281.855    55.179536   0.96830842 
   28600    219.16929    229.21731    128974.37   -40534.291    2726.8826   -43261.174    55.454074   0.96835899 
   28700    213.86388    107.60139    129068.43   -40538.956    2660.8733   -43199.829    55.613397   0.96765326 
   28800    221.41931    118.16835     129024.6   -40496.916    2754.8772   -43251.793    55.802432     0.967982 
   28900     220.9336   0.83356826    129062.87   -40475.213     2748.834   -43224.047     56.12272   0.96769501 
   29000    220.28062    -5.037064    128996.32   -40542.858    2740.7097   -43283.567    56.172311   0.96819419 
   29100    220.00881   -59.253431    128961.34   -40478.616    2737.3279   -43215.944    56.411968   0.96845687 
   29200    218.44976    258.41522    128950.15   -40443.228    2717.9303   -43161.159    56.393655   0.96854086 
   29300    215.56122    130.06245    128729.38   -40514.958    2681.9914    -43196.95    56.534838   0.97020189 
   29400    216.12507     238.5882    128831.36   -40561.899    2689.0068   -43250.906    56.468205    0.9694339 
   29500    220.30886     297.1127    128990.76   -40595.757    2741.0611   -43336.818    56.643263   0.96823595 
   29600    221.59762    57.654313    128990.64    -40518.72    2757.0957   -43275.816    56.678236   0.96823683 
   29700    218.19409    198.56629     129113.6    -40562.09    2714.7493    -43276.84    56.983423   0.96731478 
   29800    219.61711    38.214244    128915.68   -40542.676    2732.4544    -43275.13     57.08034   0.96879986 
   29900    221.30303    171.07278    129080.61   -40582.391    2753.4305   -43335.821     57.29657   0.96756198 
   30000    218.79445    193.13913    129203.34    -40554.78     2722.219   -43276.999    57.617728   0.96664288 
   30100    216.55654    59.008348    129139.04   -40552.413    2694.3751   -43246.788    58.010709   0.96712418 
   30200    217.55516    160.13898    129155.97   -40560.412    2706.7998   -43267.212    58.049583   0.96699744 
   30300    219.33533    238.94801    129215.38   -40522.637    2728.9485   -43251.585    58.144015   0.96655281 
   30400    217.05074    101.81444    129058.73   -40509.632    2700.5239   -43210.155    58.124894   0.96772602 
   30500    222.81696    55.826458    128932.23   -40519.047    2772.2665   -43291.313    58.464265   0.96867546 
   30600    219.61257    210.34436       129042   -40506.037    2732.3979   -43238.435    58.530981   0.96785149 
   30700    220.76422    193.36363    128941.09   -40517.537    2746.7265   -43264.263    58.645314   0.96860892 
   30800    223.08357    115.10207    128994.71   -40460.837    2775.5837   -43236.421    58.559103   0.96820633 
   30900    218.77027    83.030334    128912.81   -40573.227     2721.918   -43295.146    58.613338   0.96882142 
   31000    215.34026   -52.494963    128853.52   -40607.285    2679.2423   -43286.527    58.981006   0.96926717 
   31100    215.58182    119.63502    128855.53   -40590.611    2682.2477   -43272.859     59.19164    0.9692521 
   31200    218.24178     124.3383    128772.73   -40602.995    2715.3426   -43318.338    59.693115   0.96987533 
   31300     218.9193    362.58947    128980.15   -40557.678    2723.7723    -43281.45    59.921782   0.96831557 
   31400    218.46771    131.56111    129145.37   -40526.611    2718.1537   -43244.765    59.975739   0.96707678 
   31500    219.79673    33.866889    129146.71   -40578.959    2734.6892   -43313.648    59.823937   0.96706677 
   31600      221.249    150.81734    129187.08   -40515.329    2752.7582   -43268.087    59.962183   0.96676455 
   31700    222.57961    209.86858    129188.91   -40550.905    2769.3135   -43320.218    60.119936   0.96675087 
   31800     225.1114    69.251845    129198.22    -40503.49    2800.8138   -43304.304    60.042969   0.96668118 
   31900    221.21568   -7.2563973    129158.43   -40495.989    2752.3436   -43248.332    60.375315   0.96697902 
   32000    219.99382   -5.9473029    129268.18   -40493.258    2737.1414   -43230.399    60.711923   0.96615804 
   32100     222.6953    242.61416    129032.28   -40498.148    2770.7529   -43268.901    61.055071    0.9679244 
   32200    220.55725     254.5601    129345.92   -40486.851    2744.1516   -43231.002    61.374051   0.96557732 
   32300    221.61959   -64.735117    129445.96   -40466.295     2757.369   -43223.664     61.50229    0.9648311 
   32400    218.60237    56.390948    129358.86   -40523.084    2719.8291   -43242.914    61.527844   0.96548074 
   32500    221.10358    63.452554    129172.67   -40532.924    2750.9489   -43283.872    61.901319    0.9668724 
   32600    222.42789    228.73414    129166.05    -40468.75    2767.4258   -43236.176    61.999282   0.96692196 
   32700    219.81529    159.43333    129122.47   -40546.305    2734.9201   -43281.225    62.024711   0.96724832 
   32800    216.74075   -49.625328    128984.36   -40583.526     2696.667   -43280.193    62.111738   0.96828403 
   32900    220.10678    52.700771    129088.94   -40576.906    2738.5468   -43315.453    62.181825   0.96749955 
   33000    212.23313    199.21685     128979.5   -40624.784    2640.5836   -43265.368    62.136353   0.96832047 
   33100    220.81187     239.5535     128890.5   -40555.124    2747.3194   -43302.443     62.18219   0.96898914 
   33200    222.03959   -24.505311    128805.91   -40601.052    2762.5946   -43363.646    62.456689   0.96962546 
   33300    218.70531    191.03751    129010.28   -40542.412    2721.1099   -43263.522    62.821754   0.96808947 
   33400    216.70679    146.50443    128910.48   -40639.379    2696.2445   -43335.623    62.826277   0.96883895 
   33500    221.86365    161.53844     129052.2   -40613.611    2760.4056   -43374.016    62.767927   0.96777502 
   33600     220.4678    37.633186    129125.96   -40579.026    2743.0385   -43322.064    62.981333   0.96722219 
   33700     221.9098   -43.135811    129050.74    -40573.98    2760.9798    -43334.96    62.972707   0.96778593 
   33800    221.57531    205.90046    129045.54   -40577.322    2756.8181    -43334.14    63.437682   0.96782494 
   33900    220.90741     233.9124    128993.26   -40587.616    2748.5082   -43336.124    63.482736   0.96821717 
   34000    220.79146    144.50209    128951.56    -40557.81    2747.0655   -43304.876    63.667485   0.96853031 
   34100     219.1218    189.96176    128777.36   -40598.268    2726.2917    -43324.56    63.503416   0.96984043 
   34200    219.73118    55.888276    128813.67   -40605.687    2733.8736    -43339.56     63.61884   0.96956707 
   34300    219.99438    320.59935       128816   -40661.927    2737.1483   -43399.075    63.784764   0.96954955 
   34400    220.44772    164.34209    128966.08   -40586.289    2742.7887   -43329.078     63.98441   0.96842124 
   34500    221.87711    91.056892     128767.1   -40608.089     2760.573   -43368.662    63.781118   0.96991769 
   34600    216.31624    80.223274     128605.7   -40573.063    2691.3853   -43264.448    63.987288   0.97113499 
   34700    218.25951    15.912873    128669.06    -40629.11    2715.5632   -43344.673    64.118793   0.97065676 
   34800    218.33539    5.2760893    128617.27   -40613.235    2716.5074   -43329.743    64.306822   0.97104762 
   34900    213.60723    214.05269    128411.82    -40618.82      2657.68     -43276.5    64.345476    0.9726012 
   35000    215.52848    193.79024    128302.14   -40679.755    2681.5841   -43361.339    64.534862   0.97343262 
   35100     215.6455    258.39622    128461.45   -40607.808      2683.04   -43290.848    64.739588   0.97222542 
   35200    221.00077    182.36659    128476.14   -40596.983    2749.6697   -43346.652    64.695229   0.97211429 
   35300    221.50453    86.082936    128599.58   -40581.144    2755.9375   -43337.082    65.145719    0.9711812 
   35400    218.29688    297.19997    128488.02   -40589.606    2716.0282   -43305.634    65.621302    0.9720244 
   35500    219.58911    151.08741    128589.53   -40476.757     2732.106   -43208.863    66.020742   0.97125708 
   35600    219.23625    127.17149    128520.76   -40501.652    2727.7158   -43229.368    66.221145   0.97177678 
   35700    225.21802    162.00373    128623.91    -40465.86    2802.1403   -43268.001    66.137893   0.97099745 
   35800    219.19561    87.457716    128347.35   -40512.729    2727.2101   -43239.939    65.865849   0.97308972 
   35900    217.70162    251.11181    128350.86   -40447.661     2708.622   -43156.283    65.953493   0.97306314 
   36000    221.53276     32.90716    128157.29   -40404.333    2756.2887   -43160.621    66.100819    0.9745329 
   36100    219.76656    2.6963203    128239.54   -40423.733    2734.3138   -43158.047    66.662599   0.97390785 
   36200    223.56174    82.476351     128393.9   -40464.755    2781.5331   -43246.288    66.865063   0.97273699 
   36300    215.32797    316.03567    128416.34   -40512.316    2679.0893   -43191.406    66.794941   0.97256695 
   36400    217.67425    200.70455    128568.37   -40450.405    2708.2815   -43158.686    67.087627   0.97141691 
   36500    217.92353    137.05953     128707.8   -40424.166    2711.3831   -43135.549    67.268174   0.97036461 
   36600     216.6334    162.85109    128711.03   -40561.639    2695.3313    -43256.97    67.290716   0.97034025 
   36700     218.7815    21.951065    128497.11   -40504.542    2722.0578     -43226.6    67.488573   0.97195564 
   36800    216.44601    208.80366    128463.92   -40490.499    2692.9999   -43183.499    67.580544   0.97220676 
   36900    216.55658    96.181714    128497.41    -40504.69    2694.3755   -43199.065    67.554287   0.97195334 
   37000    222.54073    284.14073    128576.08   -40445.251    2768.8297    -43214.08     67.82562   0.97135865 
   37100    222.90074    58.542428    128555.34   -40432.778     2773.309   -43206.087    67.820807   0.97151542 
   37200    222.02088    50.000466    128613.73   -40489.153    2762.3618   -43251.515    68.118349   0.97107435 
   37300    220.20782    4.0132142    128347.54   -40507.429     2739.804   -43247.233    68.278794   0.97308832 
   37400    217.57588    222.29361    128434.96   -40544.592    2707.0576    -43251.65    68.490352   0.97242599 
   37500    219.85829    46.527541    128463.07   -40559.353    2735.4551   -43294.808    68.779375   0.97221323 
   37600     219.7526    177.85512     128526.3   -40513.786    2734.1401   -43247.926    68.953991   0.97173491 
   37700    219.66876    312.93052    128501.42   -40516.262     2733.097   -43249.359    68.978977   0.97192308 
   37800    215.56959    210.51564    128608.78   -40617.806    2682.0955   -43299.902    69.040001   0.97111172 
   37900    217.16902    114.58366    128587.13   -40567.227    2701.9954   -43269.223    69.258097   0.97127524 
   38000    220.79274    219.52683    128509.21   -40531.568    2747.0814    -43278.65    69.206691   0.97186416 
   38100    217.49502    288.41322    128635.56   -40492.741    2706.0515   -43198.792     69.16002   0.97090954 
   38200    220.71367    20.588973    128690.12   -40499.828    2746.0976   -43245.926    69.469886   0.97049792 
   38300     218.2365    195.00501    128799.29   -40432.394     2715.277   -43147.671    69.901578   0.96967527 
   38400     218.8848    186.14898    128728.86   -40492.829     2723.343   -43216.172    70.140464   0.97020586 
   38500    217.67006    212.80318    128597.78   -40519.293    2708.2294   -43227.522    70.087634   0.97119473 
   38600    219.94034    360.76182    128721.54   -40483.418     2736.476   -43219.894    70.506056   0.97026102 
   38700    221.05417    214.71527    128704.62   -40487.937    2750.3341   -43238.271    70.904234   0.97038857 
   38800    222.46799    291.27281    128862.13   -40523.894    2767.9248   -43291.818    71.147462   0.96920241 
   38900    220.25641   -18.549148    128737.78   -40473.712    2740.4085   -43214.121    71.294392   0.97013861 
   39000    218.11476    328.63222    128732.57   -40523.521    2713.7622   -43237.283    71.441157   0.97017788 
   39100    223.08415    43.369035    128851.13   -40484.299    2775.5909    -43259.89    71.552018   0.96928516 
   39200    222.01387    257.48182    128944.39   -40511.277    2762.2747   -43273.551    71.823641   0.96858416 
   39300    218.71877    269.56083    129092.82   -40513.508    2721.2773   -43234.785    72.065337    0.9674705 
   39400    222.67002    270.48279    129237.04   -40482.797    2770.4384   -43253.236     72.26448   0.96639082 
   39500    223.57344    181.74315    129213.45   -40475.631    2781.6787   -43257.309    72.766282   0.96656727 
   39600    218.95044    104.21682    129220.94   -40516.851    2724.1597   -43241.011    72.953804   0.96651124 
   39700     219.1573   -8.1877096    129122.01    -40458.38    2726.7334   -43185.114     73.13913   0.96725176 
   39800    222.68534    83.628208    128944.62   -40512.588     2770.629   -43283.217    73.524565   0.96858241 
   39900    219.75216     315.2463    128886.94    -40564.76    2734.1347   -43298.894    73.425573    0.9690159 
   40000    216.07069    102.89062    128980.53   -40585.533    2688.3301   -43273.863    73.521322   0.96831277 
   40100    220.69057    300.23644    128920.73   -40497.026    2745.8103   -43242.837      73.8611   0.96876191 
   40200    220.60696    75.256392     128968.4    -40528.76    2744.7699    -43273.53    74.153491   0.96840384 
   40300    220.86665    249.38709    128963.49   -40504.038     2748.001   -43252.039    74.414831   0.96844065 
   40400    226.95968    85.747614    129023.11   -40410.136    2823.8099   -43233.946    74.684692   0.96799316 
   40500    222.24349     88.65378    129105.39   -40419.096    2765.1316   -43184.227    74.772512   0.96737629 
   40600    225.45507    79.922399    129145.61   -40473.894    2805.0897   -43278.984    75.016537   0.96707502 
   40700    217.32521    9.3740637    128898.57   -40510.479    2703.9388   -43214.418    74.964291   0.96892844 
   40800    220.21946    243.51747    129015.43   -40561.738    2739.9488   -43301.687    74.989825   0.96805084 
   40900    214.61458    59.677347    128837.67   -40593.019    2670.2134   -43263.232    75.539596   0.96938647 
   41000    219.83774    58.024149    128913.28    -40511.67    2735.1994   -43246.869    75.972053   0.96881789 
   41100    219.35488    264.78167    128831.44   -40490.801    2729.1917   -43219.993    76.062065   0.96943336 
   41200    222.37805    328.09173    129045.85   -40514.955    2766.8057   -43281.761    75.940522   0.96782261 
   41300    213.58624    194.98014    129074.07   -40667.369    2657.4188   -43324.787    75.708064     0.967611 
   41400    217.22272     22.99578    128951.07   -40631.785    2702.6636   -43334.449    75.829791   0.96853397 
   41500    216.32962    173.41544    128813.89   -40628.236    2691.5517   -43319.787    75.748142   0.96956543 
   41600     217.9986     268.3426    129025.82   -40601.606     2712.317   -43313.923    76.308565   0.96797288 
   41700    215.62495    69.976781     128810.1   -40568.575    2682.7843   -43251.359    76.789239    0.9695939 
   41800    220.21038    152.17857    129007.86   -40570.806    2739.8357   -43310.642    76.925777   0.96810764 
   41900     223.3507    121.82503    128969.96   -40537.804    2778.9073   -43316.712    76.806097   0.96839213 
   42000    220.79477    354.29119       129007   -40528.989    2747.1066   -43276.096    76.969102   0.96811406 
   42100    221.94384    23.903952    128960.79   -40541.429    2761.4034   -43302.833    77.359962   0.96846096 
   42200    218.18687    194.08624    129017.53    -40501.32    2714.6595   -43215.979    77.575121   0.96803508 
   42300    220.36594    92.400767    128937.93   -40469.273    2741.7712   -43211.044    77.763495   0.96863268 
   42400    222.04608    164.80253    129047.58   -40512.611    2762.6754   -43275.286    77.988011   0.96780962 
   42500    220.49926    169.41311    128949.02   -40513.009      2743.43   -43256.439    78.251433   0.96854935 
   42600    223.76666    159.77618    129019.98   -40522.757    2784.0827   -43306.839    78.399872   0.96801664 
   42700    221.95056    236.35378    128856.45   -40525.456    2761.4869   -43286.942    78.678186   0.96924519 
   42800    220.38953    284.54051    129217.49   -40462.447    2742.0648   -43204.511    79.038279   0.96653703 
   42900    218.17735   -17.843314    128928.64    -40532.57     2714.541   -43247.111    79.370538   0.96870245 
   43000    220.21208    185.33311    128809.84   -40553.566    2739.8569   -43293.423    79.230278   0.96959589 
   43100    223.22132    190.72817    128886.29   -40533.932    2777.2977    -43311.23    79.320016   0.96902078 
   43200    219.85186    151.78753    128844.04   -40479.307    2735.3752   -43214.682    79.259014    0.9693385 
   43300    218.72208    213.04946    128924.22   -40478.907    2721.3185   -43200.226    79.588234   0.96873571 
   43400    218.92924    290.78134    128960.24   -40422.258    2723.8959   -43146.154    79.729042   0.96846513 
   43500    221.89974     62.53382    128782.83   -40426.664    2760.8547   -43187.519    79.746552   0.96979922 
   43600     224.9169    206.70195    128906.74   -40336.698    2798.3938   -43135.092    79.949972   0.96886704 
   43700    222.79866    129.86351    128920.66   -40383.551    2772.0389    -43155.59    80.303795   0.96876244 
   43800    220.47992  -0.14812365    128832.92   -40394.545    2743.1894   -43137.734    80.535264   0.96942217 
   43900    222.17846    127.37894     128818.8   -40443.466    2764.3225   -43207.789    80.699373   0.96952848 
   44000    221.27053    105.04346    128694.48   -40466.326    2753.0261   -43219.352    80.636356   0.97046506 
   44100    219.14546    86.977202    128569.46   -40474.229    2726.5862   -43200.815    80.818947   0.97140867 
   44200    224.10712    194.28671    128314.41   -40507.875    2788.3187   -43296.194    80.843375   0.97333958 
   44300    218.23212    259.29617    128359.13   -40512.949    2715.2225   -43228.171    81.143689   0.97300047 
   44400    222.06387    58.043275    128443.22   -40476.085    2762.8967   -43238.982    81.421446    0.9723634 
   44500    217.30424    98.181027    128709.53   -40515.068    2703.6779   -43218.746    81.624319   0.97035157 
   44600    213.75581     109.6987    128651.99   -40586.812    2659.5287   -43246.341    81.652699   0.97078551 
   44700    215.25488    308.28136    128721.42   -40552.824    2678.1799   -43231.004    82.095509   0.97026195 
   44800    219.53184    110.52015     128734.1   -40519.919    2731.3935   -43251.312    82.132806   0.97016637 
   44900    218.66018     55.90865    128764.24   -40479.425    2720.5484   -43199.973    82.357813   0.96993924 
   45000    215.54534    332.82713     128717.4   -40468.709    2681.7939   -43150.503    82.392823   0.97029222 
   45100    221.75434    239.64569    128811.75   -40412.535    2759.0456   -43171.581    82.382221   0.96958151 
   45200    221.87501    250.69726    128658.51   -40458.018    2760.5469   -43218.565    82.663157   0.97073631 
   45300    221.96558    192.99578    128647.79   -40473.184    2761.6738   -43234.858    82.895448   0.97081722 
   45400    220.75806    376.16806    128759.63    -40467.37    2746.6499    -43214.02    83.008885   0.96997399 
   45500    221.96796    188.33794    128899.87   -40474.807    2761.7035   -43236.511    83.690472   0.96891871 
   45600    221.93025    197.17732    128910.17   -40461.281    2761.2343   -43222.516    83.714896   0.96884128 
   45700    211.38514    90.431984    128995.05   -40473.622     2630.033   -43103.655    83.914961   0.96820375 
   45800    222.39546    310.54148    129239.76   -40420.176    2767.0224   -43187.198    83.962528   0.96637047 
   45900    224.05213    95.489622    129209.26   -40344.105    2787.6344   -43131.739    84.373969    0.9665986 
   46000     224.7976    40.397533    129180.68   -40321.743    2796.9095   -43118.653    84.404793   0.96681248 
   46100    226.60126    20.973029    128937.67   -40286.803    2819.3505   -43106.154    83.913206   0.96863464 
   46200    222.58251    116.68579    128865.38   -40279.556    2769.3496   -43048.906    83.809125   0.96917796 
   46300    227.43826    88.544423    128941.23   -40304.489    2829.7643   -43134.253    84.142505   0.96860787 
   46400    225.10645     250.5202    129070.79   -40349.074    2800.7522   -43149.826    84.074485   0.96763562 
   46500    224.69311    170.11924    128976.18   -40371.861    2795.6095   -43167.471    84.209341   0.96834541 
   46600    222.57033    121.30627    128793.34   -40376.784     2769.198   -43145.982    84.529975   0.96972013 
   46700    222.61957    29.005218    128613.29   -40453.217    2769.8107   -43223.027    85.108402   0.97107768 
   46800    220.01556     82.44777    128703.98   -40513.483    2737.4119   -43250.895      85.1475   0.97039342 
   46900    223.19027    109.53643    128875.48   -40432.537    2776.9113   -43209.449    85.366183   0.96910203 
   47000    222.83495    34.911256    128568.87   -40417.479    2772.4904    -43189.97    85.143604   0.97141318 
   47100    217.82053    142.84134    128560.68   -40382.268    2710.1015    -43092.37    85.451221   0.97147503 
   47200    219.74534    250.89382    128598.22   -40428.925    2734.0498   -43162.975    85.576605   0.97119145 
   47300    219.56428    248.76536    128499.02   -40443.334    2731.7971   -43175.132    85.654637    0.9719412 
   47400     224.0124    179.51154    128514.17   -40418.901    2787.1402   -43206.041    85.788171   0.97182661 
   47500    221.06898    180.11852    128413.36   -40351.597    2750.5184   -43102.115    86.144076   0.97258955 
   47600    222.21007    274.68702     128756.2   -40306.102    2764.7157   -43070.818    86.614696   0.96999984 
   47700    225.72769    105.23475    128489.63   -40351.775    2808.4817   -43160.257     86.61894   0.97201225 
   47800     220.4512    93.232394    128342.06   -40360.379     2742.832   -43103.211    86.849556   0.97312987 
   47900    221.86887    96.715141    128555.41    -40447.29    2760.4706    -43207.76    87.457546   0.97151485 
   48000    221.36039    199.32586    128427.79   -40470.779    2754.1441   -43224.923     87.65026   0.97248026 
   48100     220.3495     100.2255    128385.85   -40453.354    2741.5666   -43194.921    87.665493   0.97279796 
   48200    220.27172    207.12854    128208.76   -40486.811     2740.599    -43227.41    87.830121   0.97414165 
   48300    217.36163       321.09    128385.52   -40467.636    2704.3919   -43172.028    88.313847   0.97280048 
   48400    222.32058    152.24193    128219.66   -40391.753    2766.0907   -43157.844    88.491114   0.97405879 
   48500    217.76556    249.07918    128544.72   -40462.059    2709.4176   -43171.477    88.383984   0.97159563 
   48600     221.1768    164.50259    128722.04   -40465.628    2751.8599   -43217.488    88.555901   0.97025724 
   48700    222.23031    177.76873    128788.77   -40422.358    2764.9676   -43187.326    88.896381    0.9697545 
   48800     220.9482    98.263593    128789.37   -40454.057    2749.0156   -43203.073     89.24971   0.96974996 
   48900    222.17611    246.05848    128793.27   -40438.169    2764.2932   -43202.462    89.648762   0.96972064 
   49000    223.19923    91.100912     128985.5   -40491.225    2777.0227   -43268.248     89.92803   0.96827547 
   49100    221.02917    5.5904185    128834.94   -40503.237    2750.0231    -43253.26    89.474008   0.96940701 
   49200    221.95872    145.85505    128977.91   -40537.677    2761.5884   -43299.265    89.330839   0.96833242 
   49300    221.43235    80.546011    129044.93   -40491.847    2755.0394   -43246.886    89.795928   0.96782949 
   49400    219.02285    44.206194    128822.24   -40466.877    2725.0607   -43191.938    89.751577   0.96950254 
   49500    221.58252    73.957963     128803.1   -40466.412    2756.9078    -43223.32    90.012372   0.96964662 
   49600    220.23882    16.399445    128889.63    -40458.85    2740.1896    -43199.04    90.103793   0.96899563 
   49700    221.89621    123.21171    129038.07   -40477.901    2760.8107   -43238.711    90.483643   0.96788094 
   49800    218.66697    124.33584    129048.76   -40521.179    2720.6328   -43241.812    90.365453   0.96780077 
   49900    218.99873    17.041686    129032.71   -40392.767    2724.7605   -43117.528    90.547004   0.96792118 
   50000    221.69367   -23.025786    128765.26   -40442.065    2758.2908   -43200.355    90.922318   0.96993157 
   50100    225.43595    145.80506    128499.83   -40453.664    2804.8518   -43258.515    91.055302   0.97193506 
   50200    220.17453    226.64215    128316.43   -40497.873    2739.3898   -43237.263     90.89132   0.97332422 
   50300    219.00439    237.81483    128591.17   -40456.268     2724.831   -43181.099    90.960433   0.97124468 
   50400     220.5427    183.48136     128594.5   -40489.807    2743.9704   -43233.777    90.904867   0.97121951 
   50500    216.90354    123.13717    128808.26   -40533.433    2698.6924   -43232.126    91.428817   0.96960781 
   50600    218.21104    214.56812    129080.42   -40556.371    2714.9602   -43271.331     91.65238   0.96756342 
   50700     218.2468    32.303639    129043.12   -40567.247    2715.4052   -43282.652    92.231007   0.96784305 
   50800    216.23701    115.93128    128966.33   -40571.295    2690.3996   -43261.695     92.62063   0.96841936 
   50900    221.04633    91.130122    129107.35   -40475.184    2750.2366   -43225.421    92.975433   0.96736157 
   51000    219.07072    194.63942    129049.29   -40494.041    2725.6562   -43219.697    92.774292   0.96779679 
   51100    224.10987    191.57622    129079.62   -40535.934    2788.3528   -43324.286    92.914017   0.96756944 
   51200    218.83608    239.82045    128951.17   -40506.428    2722.7369   -43229.165    92.807187   0.96853324 
   51300    217.44394   -19.724597    128819.21   -40570.953    2705.4161   -43276.369    92.857628   0.96952533 
   51400    213.59708    49.417379    128735.91   -40563.917    2657.5538   -43221.471    93.219986   0.97015268 
   51500     214.7261    203.55002     128496.9   -40552.348     2671.601   -43223.949    93.631575   0.97195726 
   51600    218.62652    147.02718    128499.52   -40504.352    2720.1296   -43224.481    93.777727   0.97193745 
   51700    215.31355    191.04438    128420.22   -40502.349    2678.9099   -43181.259    93.885028   0.97253758 
   51800    223.73925    291.79833    128599.88    -40551.77    2783.7417   -43335.512    93.946502    0.9711789 
   51900    216.64411    109.15686    128673.93   -40592.186    2695.4647   -43287.651    94.141965   0.97062002 
   52000    217.70139    170.13057    128607.61   -40599.196    2708.6191   -43307.815    94.505158   0.97112052 
   52100    220.21969    257.85205    128573.89   -40544.399    2739.9517   -43284.351    94.710486   0.97137523 
   52200    219.02387    225.27728    128742.72   -40567.259    2725.0733   -43292.333     94.83134   0.97010135 
   52300    218.50598     144.7524     128818.4   -40554.863    2718.6298   -43273.493    94.939176   0.96953143 
   52400    219.61205     154.0937    128861.24   -40517.295    2732.3915   -43249.686    95.044785   0.96920916 
   52500    218.72259    114.59032    128776.22   -40514.019    2721.3249   -43235.344    95.157214   0.96984902 
   52600    219.91384    106.41396    129103.06   -40534.197    2736.1463   -43270.343    95.547207   0.96739373 
   52700    215.48761    134.69498    129330.58   -40561.805    2681.0756    -43242.88    95.949365   0.96569187 
   52800    222.11927    206.50622    129293.34   -40524.309     2763.586   -43287.895    95.936918   0.96597002 
   52900    219.94654     230.5409    129348.97   -40529.914    2736.5532   -43266.467    95.616198   0.96555461 
   53000    221.95393    225.67642    129277.39   -40521.012    2761.5289   -43282.541    95.819842   0.96608923 
   53100    222.71336    160.98189    129128.75   -40570.066    2770.9776   -43341.044    96.265844   0.96720126 
   53200    218.23464    143.86014    129126.48   -40569.366    2715.2538    -43284.62     96.70121   0.96721828 
   53300    218.68575    207.62775    129190.21    -40564.81    2720.8664   -43285.676    96.808216   0.96674112 
   53400    216.76852    131.05486     129278.6    -40634.28    2697.0125   -43331.293    96.824286    0.9660802 
   53500    217.64525    147.60021    129142.43    -40654.96    2707.9207   -43362.881    96.712762   0.96709878 
   53600    217.55988    94.278493    129359.03   -40659.299    2706.8585   -43366.158    96.722125   0.96547948 
   53700    216.24601    218.12451    129393.23   -40704.054    2690.5114   -43394.566    97.080702   0.96522433 
   53800     224.1896    122.07384    129372.11   -40602.673    2789.3449   -43392.018    97.105176   0.96538191 
   53900    215.77321    140.27763     129418.7   -40656.414    2684.6289   -43341.043     97.55922   0.96503433 
   54000    220.85116    228.82559    129319.05   -40638.448    2747.8083   -43386.256     97.53178   0.96577802 
   54100    220.88612    66.609585    129477.63   -40668.334    2748.2433   -43416.578    97.411948   0.96459512 
   54200    220.35125    211.51736    129352.37   -40645.898    2741.5885   -43387.487    97.400878   0.96552921 
   54300    222.03838    131.04815    129361.73   -40630.054    2762.5796   -43392.633    97.500942   0.96545935 
   54400    215.72831    151.88053    129539.25    -40666.83    2684.0703     -43350.9    97.760717   0.96413631 
   54500    223.48981     54.33712    129559.39   -40659.346    2780.6382   -43439.984    97.854336   0.96398644 
   54600    224.64018    203.17574    129454.53   -40569.526    2794.9509   -43364.477    97.949928   0.96476723 
   54700     221.1505     95.69864    129637.89   -40575.867    2751.5327     -43327.4    98.054961   0.96340267 
   54800    218.90555    205.85386    129641.86   -40646.298    2723.6012   -43369.899    98.595295   0.96337315 
   54900    221.59272     40.31647     129469.5   -40692.218    2757.0347   -43449.253    98.325663   0.96465574 
   55000    217.33549    176.02217    129595.38   -40747.234    2704.0667     -43451.3    98.357986   0.96371866 
   55100    218.20719   -17.810875    129735.77   -40718.726    2714.9123   -43433.638    98.721284   0.96267583 
   55200    219.03816    214.28096    129701.63   -40724.908    2725.2511   -43450.159    98.894672   0.96292921 
   55300    217.88912    172.32525    129712.33   -40677.974    2710.9549   -43388.929    99.189222   0.96284982 
   55400    222.29403    325.12818    129837.71   -40644.765    2765.7603   -43410.525    99.428923      0.96192 
   55500    221.84535    197.36747    130240.55   -40609.556    2760.1779   -43369.734    99.867593   0.95894474 
   55600     220.2226     182.7988    130018.41   -40652.971    2739.9878   -43392.959    100.00987   0.96058313 
   55700    221.41513    148.33332       129824   -40654.891    2754.8252   -43409.716    99.921493   0.96202159 
   55800    218.96939    141.57417    129843.72   -40663.634    2724.3956    -43388.03    99.666649   0.96187548 
   55900     219.7283     218.2694    129942.23   -40626.736    2733.8378   -43360.574    99.741746   0.96114626 
   56000    222.19442    217.10523    129885.93   -40621.261     2764.521   -43385.782    99.677152    0.9615629 
   56100     222.1775    184.37972    129943.28   -40584.162    2764.3105   -43348.473    100.01152   0.96113851 
   56200     218.8479     85.89413    129868.07   -40587.366    2722.8839    -43310.25    100.60483   0.96169511 
   56300    224.97016    111.65717    129709.49    -40636.71    2799.0565   -43435.766    100.68529   0.96287089 
   56400    220.72215    10.179872    129562.64   -40623.779    2746.2032   -43369.982    100.63866   0.96396224 
   56500    216.90843    223.27397    129408.78   -40701.202    2698.7532   -43399.955    100.66396   0.96510835 
   56600    216.85975    148.68993    129523.91    -40710.61    2698.1475   -43408.757    100.48789   0.96425049 
   56700    216.37148    137.52208    129621.68   -40735.238    2692.0726    -43427.31    100.46264   0.96352313 
   56800    216.71646    290.24139    129733.89   -40670.288    2696.3648   -43366.652    100.70973   0.96268976 
   56900    220.58735    79.113422    129720.67   -40657.048    2744.5259   -43401.574     101.1007   0.96278791 
   57000    226.96044    165.28545    129593.07   -40597.841    2823.8193   -43421.661    100.99074   0.96373585 
   57100    217.16359    52.927075    129478.46   -40654.749     2701.928   -43356.677    101.26557   0.96458898 
   57200    215.35464    104.45198    129315.11    -40704.35    2679.4211   -43383.772    101.60415    0.9658074 
   57300    216.57023    205.43105    129042.32   -40750.035    2694.5454    -43444.58    101.46634   0.96784911 
   57400    213.25653    156.09613     128975.9   -40743.347    2653.3166   -43396.663    101.74874   0.96834753 
   57500    213.17414    98.371652       129141   -40777.293    2652.2915   -43429.584    101.49867   0.96710953 
   57600    218.44446    271.10078    129241.28   -40735.973    2717.8644   -43453.838    101.61957   0.96635912 
   57700     211.6438    119.66867    129208.99   -40774.374    2633.2512   -43407.625    102.06531    0.9666006 
   57800    214.85376    121.21331    129226.38   -40792.088    2673.1893   -43465.277    102.13652   0.96647052 
   57900    215.93885    129.05439     129113.8   -40756.505    2686.6899   -43443.195    102.30169    0.9673133 
   58000     214.3586    220.16609    129192.59     -40762.1    2667.0285   -43429.128    102.52094   0.96672333 
   58100    218.45272    272.69863    129373.63   -40694.744    2717.9671   -43412.711    102.89856   0.96537052 
   58200     222.6671     209.7894    129464.88   -40655.528     2770.402    -43425.93    102.94238   0.96469015 
   58300    221.81625    170.03814    129692.03   -40596.636    2759.8158   -43356.452    102.64515   0.96300049 
   58400     215.9709   -30.699933    129528.05    -40604.35    2687.0886   -43291.439    102.76527   0.96421965 
   58500    225.25882    241.85786    129333.28   -40591.356     2802.648   -43394.004    102.69308    0.9656717 
   58600    221.10084    34.439954    129559.85   -40547.269    2750.9148   -43298.184    103.13062   0.96398301 
   58700    219.10719    343.65047    129466.11   -40554.611      2726.11   -43280.721    103.04674   0.96468095 
   58800     218.2695    70.738197    129250.51   -40598.978    2715.6876   -43314.665    102.98568   0.96629015 
   58900    219.03754   -3.7547976    129239.71   -40640.111    2725.2434   -43365.355     102.6805   0.96637084 
   59000    219.60578    159.41947    129232.02   -40625.635    2732.3134   -43357.949    102.94731   0.96642838 
   59100    218.49955    213.53007    129109.65   -40627.102    2718.5498   -43345.652    103.24158   0.96734435 
   59200    215.24527    147.87024    129177.15   -40639.508    2678.0603   -43317.568    103.71755   0.96683889 
   59300    222.39303    306.99326    129363.55   -40626.965    2766.9921   -43393.957    103.93882   0.96544575 
   59400    216.17309    203.87195    129488.36   -40679.349    2689.6042   -43368.953     103.8735    0.9645152 
   59500    218.20084    -28.24607    129250.34   -40649.027    2714.8332   -43363.861    103.91631   0.96629143 
   59600     220.7505    123.86342    129353.82   -40640.264    2746.5559   -43386.819    103.83616   0.96551842 
   59700    216.43238    128.45743     129491.5   -40666.764    2692.8303   -43359.594    104.16048   0.96449182 
   59800    222.94529    260.05375    129273.44   -40674.525    2773.8632   -43448.388    104.00516   0.96611869 
   59900    221.97382    128.79939    129276.02   -40659.737    2761.7763   -43421.513     104.0173   0.96609942 
   60000     218.0521    17.383584    129133.02    -40673.44    2712.9827   -43386.423    104.28086   0.96716929 
   60100    218.06202   -19.677259    129127.82       -40633    2713.1061   -43346.106     104.0587   0.96720826 
   60200    216.48303    62.035217    128718.12   -40602.358    2693.4605   -43295.819    104.24096    0.9702868 
   60300    225.13458    192.94049    128718.79    -40555.64    2801.1022   -43356.743    104.65238   0.97028171 
   60400     219.9883    294.99082    128798.97   -40502.902    2737.0727   -43239.974    104.72265   0.96967775 
   60500    224.06285    349.88986    128774.29   -40534.604    2787.7678   -43322.372    104.58066   0.96986358 
   60600    222.54127    175.36787    128960.04   -40589.087    2768.8365   -43357.923    104.83959   0.96846662 
   60700    215.33996    172.73788    129180.02   -40612.924    2679.2384   -43292.163    104.98518   0.96681737 
   60800    219.33043    209.05196     129147.5   -40578.467    2728.8875   -43307.354    104.64831   0.96706083 
   60900    221.97979    29.490964    129141.21    -40584.24    2761.8506    -43346.09    104.94129   0.96710798 
   61000    219.85646    158.58184    129174.82   -40621.364    2735.4324   -43356.797    105.04838    0.9668563 
   61100    220.05667    151.24557    129309.86   -40657.208    2737.9234   -43395.132    105.17987   0.96584661 
   61200    215.68182    227.95616    129280.01   -40654.156    2683.4919   -43337.648    105.39787   0.96606965 
   61300     218.8706     9.981866    129287.15   -40633.613    2723.1664    -43356.78    105.51175   0.96601628 
   61400    216.81827    121.12704    129147.18   -40669.155    2697.6315   -43366.786    106.01201   0.96706325 
   61500    219.83207     262.4976    129314.47   -40659.411    2735.1289    -43394.54    105.88461    0.9658122 
   61600    220.71111    13.337239    129254.04   -40636.235    2746.0658   -43382.301     106.1537    0.9662637 
   61700     212.6692    247.84872    129211.46   -40698.149    2646.0092   -43344.158    106.36166   0.96658213 
   61800    217.07505    348.83275    128985.66   -40759.838    2700.8263   -43460.664    106.28922   0.96827425 
   61900    219.48962     196.6494    129159.28   -40697.644    2730.8681   -43428.512     106.6492   0.96697265 
   62000    219.71239    116.33676    129293.98   -40651.821    2733.6398   -43385.461    106.36148   0.96596525 
   62100    217.60143    297.74427    129203.49   -40676.354    2707.3755   -43383.729    106.72823   0.96664176 
   62200    223.37718    83.874122    129262.24   -40636.125    2779.2368   -43415.362    106.96723   0.96620245 
   62300    217.97919    89.618156    129290.98   -40675.626    2712.0755   -43387.702    107.12127   0.96598764 
   62400    218.48637    210.46766    129276.69   -40617.549    2718.3858   -43335.934    106.89064   0.96609446 
   62500    218.63555    197.79875    129335.42   -40637.051    2720.2419   -43357.293    107.15545   0.96565573 
   62600    219.06643    189.18395    129222.93   -40637.652    2725.6028   -43363.254    107.37121   0.96649637 
   62700     219.7816    189.71376     129385.6   -40655.458    2734.5009   -43389.958     107.5597   0.96528125 
   62800    216.70954   -36.247244    129238.51   -40632.589    2696.2787   -43328.868    107.77669   0.96637983 
   62900    221.45538    101.33695    129317.94   -40591.091     2755.326   -43346.417    107.82306   0.96578625 
   63000    225.37312    225.79292     129212.5   -40555.152      2804.07   -43359.222    107.88164   0.96657441 
   63100    224.27184    213.42347    129354.56   -40556.843    2790.3681   -43347.211    107.88239   0.96551289 
   63200    222.82689    268.44695    129487.25    -40591.33    2772.3902    -43363.72    107.96259   0.96452348 
   63300    222.00082    160.75425    129542.42   -40613.272    2762.1123   -43375.385    108.02762   0.96411268 
   63400    221.14853   -120.81444    129484.94   -40530.161    2751.5081   -43281.669    107.93428   0.96454068 
   63500    220.28158    217.60396    129498.75   -40626.416    2740.7216   -43367.137    108.04665   0.96443782 
   63600    218.57934     119.3882    129398.38   -40621.539    2719.5426   -43341.081     108.2456   0.96518593 
   63700    221.72166    28.899452    129282.24   -40636.091    2758.6389    -43394.73    108.49205   0.96605298 
   63800    216.77326    70.390584    129168.02   -40730.723    2697.0715   -43427.795     108.5018   0.96690723 
   63900    216.70806    71.490323    129180.82   -40715.664    2696.2603   -43411.924    108.55963   0.96681145 
   64000    214.54953    116.65567    129100.23   -40695.732     2669.404   -43365.136     108.7006   0.96741495 
   64100    221.57912    173.82777    129233.08    -40600.37    2756.8655   -43357.235    108.94221   0.96642045 
   64200     219.9079     168.8496    129367.66   -40593.378    2736.0723    -43329.45    109.32534   0.96541508 
   64300    224.51229    191.27109    129322.76   -40512.604    2793.3597   -43305.964    109.54893   0.96575025 
   64400     226.4905    99.909216    129194.76   -40542.607    2817.9724   -43360.579    109.50458   0.96670707 
   64500    221.45117    67.409054    129181.97   -40530.317    2755.2735    -43285.59    109.79843   0.96680283 
   64600     219.8142    134.99775    129340.69   -40569.589    2734.9065   -43304.495    109.95529   0.96561643 
   64700      216.734    15.092451    129332.71   -40581.929     2696.583   -43278.512    110.33048   0.96567595 
   64800    221.41425    250.88183    129544.17   -40602.903    2754.8142   -43357.718    111.04949   0.96409964 
   64900    222.97927    224.20584    129615.44   -40591.183     2774.286   -43365.469     111.3782   0.96356958 
   65000    220.48413    27.352662    129533.26   -40558.521    2743.2418   -43301.763    111.33289   0.96418088 
   65100    217.27108    61.831098    129490.53   -40579.388    2703.2653   -43282.653    111.23142   0.96449903 
   65200    221.15656    45.131787     129456.2   -40559.002    2751.6081    -43310.61    111.45129   0.96475479 
   65300    220.27685    282.51067    129571.98   -40554.214    2740.6627   -43294.876    111.73211   0.96389273 
   65400    219.01278    19.096458    129379.22   -40494.179    2724.9353   -43219.115    111.95817    0.9653288 
   65500    219.27551    86.091766     129275.4       -40564    2728.2042   -43292.204    111.82351   0.96610406 
   65600    220.15571    182.78936     129323.4   -40595.922    2739.1556   -43335.078    112.22656   0.96574551 
   65700    218.68375    134.97064    129422.23   -40647.823    2720.8416   -43368.665    112.33807   0.96500803 
   65800    218.55659    37.548997    129293.15   -40664.766    2719.2595   -43384.025    112.20622   0.96597145 
   65900     218.0904    46.428592    129191.72   -40647.267    2713.4591   -43360.726    112.17536   0.96672988 
   66000    221.14566    290.82387    129266.57   -40544.767    2751.4725   -43296.239    112.76889   0.96617008 
   66100    225.77988    65.322712    129362.57   -40479.228     2809.131   -43288.359    113.16878    0.9654531 
   66200    225.61806    113.74154    129254.12   -40455.613    2807.1175   -43262.731    113.36448   0.96626315 
   66300    222.21335    37.709222    129114.91   -40484.646    2764.7566   -43249.403    113.18395   0.96730493 
   66400    221.27556    213.23988    129258.31   -40509.147    2753.0887   -43262.235    113.43531   0.96623178 
   66500    221.39989    33.216067    129041.53     -40531.6    2754.6356   -43286.236    113.82741   0.96785499 
   66600     217.2564    368.91921    129140.56   -40542.103    2703.0827   -43245.186    114.12361   0.96711279 
   66700    217.99463    108.69264    129015.19   -40561.658    2712.2677   -43273.926    114.43687   0.96805264 
   66800    222.21088    27.483211    129031.02   -40502.411    2764.7258   -43267.136    114.58765   0.96793385 
[...]
   84600     216.7375    140.63394    128491.89   -40617.171    2696.6265   -43313.798    138.91246    0.9719951 
   84700     219.4713    79.341884    128623.09    -40638.74    2730.6402   -43369.381    138.91234   0.97100365 
   84800    218.23117    199.93829    128747.62   -40600.944    2715.2107   -43316.155     139.3989   0.97006447 
   84900    218.04663    53.138441    128763.14   -40567.261    2712.9146   -43280.176    139.31093   0.96994753 
   85000    218.84004    369.50632    128690.56   -40511.997    2722.7862   -43234.783    139.59976   0.97049458 
   85100    220.09861    120.43558    128701.93   -40512.261    2738.4451   -43250.707    139.58143   0.97040887 
   85200    223.15866    79.097528    128726.36   -40533.958     2776.518   -43310.476     139.6146   0.97022465 
   85300    219.46886    -172.6548    128795.98   -40577.544    2730.6099   -43308.154    139.40011   0.96970022 
   85400    218.30795    198.73605    128698.72   -40568.259    2716.1659   -43284.425    139.54075   0.97043304 
   85500    224.97209     149.8041    128661.26   -40536.588    2799.0805   -43335.668    139.60803   0.97071559 
   85600    221.25108    285.35926    128832.51    -40525.26     2752.784   -43278.044    139.95832   0.96942525 
   85700    224.48855   -164.34122    128822.35   -40580.762    2793.0644   -43373.826    139.85063   0.96950172 
   85800     217.0222     157.8599    128640.13   -40581.468    2700.1687   -43281.636    139.90072   0.97087502 
   85900    223.22052    86.603048     128470.7   -40488.587    2777.2877   -43265.875    140.08858   0.97215547 
   86000    218.79638     312.9077    128374.24   -40540.586    2722.2429   -43262.829    140.28602    0.9728859 
   86100    215.89316    213.69936    128387.39   -40522.181    2686.1214   -43208.302    140.34337   0.97278625 
   86200    221.30528    51.628303    128471.37   -40480.405    2753.4585   -43233.863    140.36055   0.97215041 
   86300    219.99511    145.04849    128598.75   -40512.762    2737.1574   -43249.919     140.6109   0.97118743 
   86400    218.00246    96.457933    128501.53   -40523.274     2712.365   -43235.639    140.47019   0.97192218 
   86500     218.6827    235.96883    128342.99   -40488.684    2720.8286   -43209.513    140.56258   0.97312281 
   86600    221.33374    289.52558    128260.11   -40427.703    2753.8126   -43181.516    140.64984   0.97375161 
   86700    221.94826   -99.037287    128275.47    -40413.71    2761.4583   -43175.169    140.80384   0.97363506 
   86800    215.93745    182.16231     128269.3   -40465.393    2686.6724   -43152.066    141.03288   0.97368189 
   86900    222.42869   -4.2352473    128468.65   -40423.449    2767.4358   -43190.885    141.62302   0.97217093 
   87000    222.67177    339.95511    128605.13   -40426.204    2770.4602   -43196.665    141.93919   0.97113925 
   87100    223.11125    357.14298    128668.71   -40468.191    2775.9281   -43244.119    142.26498   0.97065942 
   87200    221.36097     36.18651    128761.48   -40466.276    2754.1513   -43220.427     142.1206   0.96996005 
   87300    219.82957    115.53047    128663.67   -40475.819    2735.0978   -43210.916    142.43642   0.97069743 
   87400    219.24504    147.94663    128639.72    -40488.89    2727.8251   -43216.715    142.80836   0.97087815 
   87500    217.40812    304.63763    128626.27   -40489.962    2704.9704   -43194.932    142.76064   0.97097967 
   87600     221.0246    115.04322     128636.2   -40510.498    2749.9662   -43260.464    142.77286    0.9709047 
   87700    219.24248     145.2924    128677.63   -40515.462    2727.7932   -43243.255    142.98425   0.97059209 
   87800    220.80676    280.02957    128768.37   -40486.015    2747.2559   -43233.271    143.17739   0.96990818 
   87900    220.70781    133.07547    128709.83    -40501.08    2746.0247   -43247.105    143.05959    0.9703493 
   88000     219.6229    69.037277    128590.73   -40515.073    2732.5264   -43247.599    143.17619     0.971248 
   88100    220.55845    128.31272    128735.52   -40449.665    2744.1664   -43193.831    143.31923   0.97015562 
   88200    224.61449     183.0701    128704.25   -40427.131    2794.6313   -43221.762    143.42007   0.97039137 
   88300     217.1202    238.59846    128616.18   -40453.543     2701.388   -43154.931    143.50328   0.97105586 
   88400    215.37087    171.97117    128496.01   -40552.829    2679.6231   -43232.452    143.84359   0.97196399 
   88500    222.61812    350.39624    128305.87   -40473.459    2769.7926   -43243.252    143.93704   0.97340437 
   88600    217.12868    300.44746    128686.78   -40426.598    2701.4936   -43128.092    144.61266   0.97052306 
   88700    218.55127    73.731173    128787.52   -40387.962    2719.1934   -43107.156     144.7563   0.96976395 
   88800    225.39514    155.28731    128618.41   -40322.358    2804.3441   -43126.702    144.40883   0.97103901 
   88900    220.04518    168.32594    128566.65   -40381.505    2737.7803   -43119.285    144.80453   0.97142992 
   89000    222.30493    231.12075    128485.06   -40350.002    2765.8959   -43115.898    144.80226   0.97204679 
   89100    220.08885    114.83752    128528.79   -40438.744    2738.3237   -43177.068    145.10507   0.97171604 
   89200    217.79918    131.65069    128525.61    -40483.04    2709.8358   -43192.875      145.237   0.97174012 
   89300    223.33808    177.19887    128702.25   -40512.315    2778.7503   -43291.065    145.55324   0.97040641 
   89400    214.47861    28.305168    128691.74   -40544.724    2668.5217   -43213.245    145.84345   0.97048567 
   89500    215.94193    244.91611     128750.3   -40560.015    2686.7281   -43246.743    145.54772   0.97004427 
   89600    215.14668    101.15636    128726.39   -40603.601    2676.8337   -43280.434    145.47058   0.97022443 
   89700    219.10255    165.25512    128743.47    -40556.31    2726.0523   -43282.363    145.53394   0.97009572 
   89800    218.23135    273.72591    128744.12   -40521.404    2715.2129   -43236.617    146.03593   0.97009084 
   89900    216.66893    149.19585    128747.27   -40583.741    2695.7734   -43279.514    146.17779    0.9700671 
   90000    222.27905    184.47765    128868.66   -40497.754     2765.574   -43263.328    146.45617   0.96915331 
   90100    221.07778    150.55175    128990.13   -40514.031    2750.6279   -43264.659    146.85642   0.96824072 
   90200    216.96261    189.49459    128815.42   -40532.222    2699.4274   -43231.649    146.80686   0.96955392 
   90300    218.12348  -0.81217411    128976.21   -40550.916    2713.8708   -43264.787    146.98229    0.9683452 
   90400    216.92391    292.32733    129050.24   -40538.352    2698.9459   -43237.298    147.23754   0.96778967 
   90500    216.06405    4.8267733    129104.25   -40507.909    2688.2476   -43196.156    147.21367   0.96738479 
   90600    224.19438     152.6926    129320.72   -40426.661    2789.4043   -43216.066    147.93708   0.96576554 
   90700    218.78176    335.79428    129177.24   -40437.394    2722.0611   -43159.456    147.62447   0.96683822 
   90800    216.74685    225.41153    129118.59   -40471.135    2696.7429   -43167.878    147.65505   0.96727738 
   90900    217.76234    267.17863    128993.05   -40571.441    2709.3776   -43280.819    147.98468   0.96821874 
   91000    215.96546   0.10818206    128895.85   -40585.855    2687.0209   -43272.876    147.91484   0.96894887 
   91100    217.73553    174.97189    128860.75   -40573.414     2709.044   -43282.458    148.17103    0.9692128 
   91200    217.90919     174.1613    129144.56   -40533.172    2711.2046   -43244.376    148.88897   0.96708289 
   91300    221.31999    95.158766    129001.29   -40445.135    2753.6415   -43198.776     148.7285   0.96815694 
   91400    222.52818    246.00608    128829.36   -40417.936    2768.6736    -43186.61    148.77572   0.96944896 
   91500    222.88828   -33.485986    128680.25    -40445.03     2773.154   -43218.184    148.71353   0.97057234 
   91600    220.58272    258.46938    128877.14    -40475.15    2744.4684   -43219.619    149.24489   0.96908958 
   91700      221.131    13.250296    128710.82   -40552.765      2751.29   -43304.055    149.41992   0.97034185 
   91800    219.07817     61.93548    128440.46    -40506.67     2725.749   -43232.419    149.11555   0.97238435 
   91900     217.3951    136.90962    128315.55   -40498.793    2704.8083   -43203.601    149.36853   0.97333095 
   92000    220.24618    277.90186     128290.5   -40492.258    2740.2812   -43232.539    149.42092   0.97352093 
   92100    216.91192    49.697927    128330.69   -40516.603    2698.7967   -43215.399    149.62136   0.97321605 
   92200    220.08978    216.01099    128227.26   -40450.398    2738.3353   -43188.733    149.78884   0.97400108 
   92300     222.0727    218.77038    128304.74   -40371.886    2763.0066   -43134.893    149.74893   0.97341292 
   92400    221.60061    176.20349    128218.68   -40375.853    2757.1329   -43132.986    149.86555   0.97406629 
   92500     219.1002    263.03346    128447.61   -40427.966     2726.023   -43153.989    149.97983   0.97233022 
   92600    221.93475    221.03166    128392.27   -40411.546    2761.2903   -43172.836    150.32399   0.97274933 
   92700    223.20992    203.55128    128275.14   -40411.457    2777.1557   -43188.613     150.6384   0.97363756 
   92800    220.86737    246.46225    128408.28   -40465.587      2748.01   -43213.597    151.06048   0.97262799 
   92900    222.83548    237.61878    128423.88   -40418.797     2772.497   -43191.294    151.39685    0.9725099 
   93000    223.41628    160.14129    128521.86    -40451.01    2779.7233   -43230.733    151.42676   0.97176848 
   93100    223.17678    106.00046    128573.24   -40386.395    2776.7435   -43163.138    151.81395   0.97138013 
   93200    217.59823    129.61465    128504.48   -40396.837    2707.3356   -43104.172    152.18325    0.9718999 
   93300    221.64225     -23.6747    128514.91   -40404.399     2757.651    -43162.05    152.40252   0.97182098 
   93400    217.69555    25.388153    128389.54   -40431.866    2708.5465   -43140.413    152.49438   0.97276998 
   93500     217.5092    112.31608    128660.85    -40462.72    2706.2279   -43168.948    152.59502   0.97071869 
   93600      211.367    50.783667    128514.95   -40541.159    2629.8073   -43170.966    152.68606   0.97182072 
   93700    216.86789     41.72981    128585.77   -40527.801    2698.2488    -43226.05    153.25839   0.97128549 
   93800    224.05026    117.70288    128550.44   -40500.147    2787.6112   -43287.758    153.18202   0.97155239 
   93900    218.38218     208.5663     128425.6    -40494.03    2717.0895    -43211.12    153.96333   0.97249685 
   94000     220.7219    184.69428    128547.69    -40506.58    2746.2001    -43252.78    154.16637   0.97157322 
   94100    224.04134    184.24716    128514.53   -40508.571    2787.5002   -43296.071    153.66184   0.97182386 
   94200    215.80794    103.62617    128505.16   -40507.462    2685.0611   -43192.523    153.68659   0.97189473 
   94300    222.08766    198.92503    128537.79   -40462.708    2763.1927     -43225.9    154.04517   0.97164804 
   94400    216.61057    146.33275    128394.68   -40451.191    2695.0473   -43146.239    154.60921   0.97273101 
   94500    220.94578     261.5281     128394.4   -40375.721    2748.9856   -43124.706    155.17485    0.9727332 
   94600    222.55139    266.80111    128530.28   -40416.529    2768.9625   -43185.492    155.45705   0.97170478 
   94700    220.22191    124.34945     128503.3   -40473.645    2739.9792   -43213.624    155.78708   0.97190881 
   94800    221.62535    -27.00539    128536.08   -40470.549    2757.4407    -43227.99    155.75855   0.97166095 
   94900    219.38394    176.33757    128728.04   -40443.503    2729.5533   -43173.056    156.09276   0.97021204 
   95000    222.20724    203.77436    128897.41   -40430.319    2764.6805   -43194.999    156.12921   0.96893716 
   95100    219.90021    77.995838    128854.84    -40439.87    2735.9767   -43175.847    156.01796   0.96925729 
   95200    224.58446    300.79654    129080.74   -40463.531    2794.2576   -43257.788    156.05988   0.96756104 
   95300    224.14375    149.84611    129139.88   -40382.346    2788.7744   -43171.121    156.28066   0.96711793 
   95400     222.0683    345.39016    129049.16   -40447.981    2762.9519   -43210.933    156.74125   0.96779782 
   95500    223.03708    90.303112    129165.59    -40456.02    2775.0053   -43231.026    156.76272   0.96692544 
   95600    223.71471    113.25274    129076.05   -40444.278    2783.4363   -43227.715    156.76734    0.9675962 
   95700    220.84066    24.941242    129089.76   -40508.451    2747.6776   -43256.128    156.56649   0.96749342 
   95800    219.57723     193.6483    129132.05    -40569.31    2731.9582   -43301.268    156.58842   0.96717655 
   95900    221.24819    48.110339    128901.33   -40534.354    2752.7482   -43287.102    156.58423    0.9689077 
   96000    216.00558    301.62785    128673.96   -40603.308      2687.52   -43290.828    156.58732    0.9706198 
   96100    224.41389    344.94549    128538.52   -40557.278    2792.1354   -43349.414    156.56824   0.97164254 
   96200      220.523    165.07292    128586.98   -40603.289    2743.7253   -43347.015     156.6232   0.97127635 
   96300    221.89229    104.67198    128645.58   -40547.301    2760.7619   -43308.063    156.89738   0.97083391 
   96400    225.18221     105.8935     128707.5   -40535.361    2801.6947   -43337.056    156.89164   0.97036684 
   96500    218.43147    240.99297    128723.35   -40577.287    2717.7027   -43294.989    157.34198   0.97024738 
   96600    222.04678    279.64721    128803.39   -40584.453    2762.6841   -43347.137    157.40926   0.96964445 
   96700    220.58806    214.90648    129054.68    -40668.69    2744.5348   -43413.225     157.9146   0.96775637 
   96800    216.33383    44.487383    128982.17   -40710.306    2691.6041    -43401.91    158.02789   0.96830047 
   96900    216.12749    200.69228    128880.48     -40637.1    2689.0368   -43326.137    157.77796   0.96906446 
   97000    217.22568     56.98293    129016.84   -40642.243    2702.7004   -43344.943    158.08318   0.96804025 
   97100    212.68815    151.61225    128929.09   -40640.967    2646.2449   -43287.212    157.66905   0.96869905 
   97200    215.26306     133.1912    128751.35    -40627.63    2678.2817   -43305.912    157.99567   0.97003636 
   97300    216.39443    161.47085    128868.98   -40606.653    2692.3581   -43299.011    158.11019   0.96915093 
   97400    217.48752    334.01338    128981.95    -40611.73    2705.9582   -43317.688    158.48572    0.9683021 
   97500    218.78214     335.0223    128999.15   -40504.351    2722.0658   -43226.417    158.58961   0.96817295 
   97600    217.57638    112.53774    129007.12   -40572.299    2707.0638   -43279.362    158.71151   0.96811316 
   97700    220.19016    32.572076    128939.76   -40518.431    2739.5841   -43258.015    158.42023    0.9686189 
   97800     222.1069    170.58863    128823.23   -40507.429    2763.4321   -43270.861     158.7687   0.96949514 
   97900    223.22576    152.55934    128980.85   -40478.602    2777.3529   -43255.955    159.14084   0.96831034 
   98000    224.53337    13.540223    128766.46   -40507.914     2793.622   -43301.536    158.83282   0.96992257 
   98100    219.79387     141.6814    128883.61   -40579.781    2734.6536   -43314.434    159.16095   0.96904095 
   98200    216.78898    97.470113    128752.73   -40560.541    2697.2671   -43257.809    159.03984   0.97002595 
   98300    218.69218    118.10488    128679.37   -40582.572    2720.9465   -43303.519    159.03997   0.97057894 
   98400    220.24966   -37.320709    128788.64   -40581.986    2740.3245    -43322.31    158.94254   0.96975552 
   98500    216.92937    45.660238    128737.47   -40580.657    2699.0138   -43279.671    158.93522   0.97014093 
   98600    220.86451   -46.630984    128620.17   -40596.916    2747.9744   -43344.891    158.95702   0.97102567 
   98700     215.3585    209.23057    128514.56   -40640.938    2679.4692   -43320.408    159.10136    0.9718237 
   98800    218.46553    287.88917    128609.25   -40613.915    2718.1265   -43332.042    159.61527   0.97110812 
   98900    217.02307    231.38616    128770.83   -40623.811    2700.1796   -43323.991    160.00885   0.96988965 
   99000    214.01866    140.66219    128706.15   -40655.175    2662.7991   -43317.975    160.03576     0.970377 
   99100    214.47163    267.85386    128710.64   -40568.977    2668.4349   -43237.412    159.82718   0.97034315 
   99200    214.77707    175.58358    128934.73   -40539.206     2672.235   -43211.441    160.05888   0.96865669 
   99300    216.49472     93.98969    128756.69   -40483.335    2693.6059   -43176.941    160.09989   0.96999614 
   99400    220.92188    202.16744    128854.68   -40450.755    2748.6882   -43199.443    160.95374   0.96925847 
   99500     228.9148    156.61374    129108.57   -40331.121    2848.1354   -43179.256    161.37921   0.96735246 
   99600    227.15102    183.98713    129361.99   -40364.639    2826.1906    -43190.83    161.62095   0.96545744 
   99700    228.09826    72.803612    129266.06   -40376.142     2837.976   -43214.118    161.77884    0.9661739 
   99800    221.61237    204.57477    129121.06   -40403.845    2757.2793   -43161.124     161.9985   0.96725891 
   99900    223.12618    298.12041    129052.42    -40460.69    2776.1138   -43236.804    161.95085   0.96777336 
  100000    219.20466    133.97815    129211.37    -40470.77    2727.3227   -43198.093    162.12436   0.96658284 
  100100    222.65532    238.99721    129281.32   -40399.846    2770.2555   -43170.102     162.4598   0.96605983 
  100200    223.59104    97.377073    129180.96   -40414.194    2781.8977   -43196.092    162.14368   0.96681033 
  100300    220.20167     207.3688    129114.74   -40403.723    2739.7275    -43143.45    162.39725   0.96730621 
  100400    224.41921    103.46004    128991.96   -40450.708    2792.2016    -43242.91    162.57537   0.96822695 
  100500    228.21913    169.94071     128796.2   -40383.211    2839.4798   -43222.691    162.75622   0.96969856 
  100600    218.27099    248.23543    128803.56   -40467.767    2715.7061   -43183.473    163.50039   0.96964314 
  100630    221.41825    233.35038    128780.78     -40451.2    2754.8639   -43206.064    163.50785   0.96981471 
Loop time of 89.1764 on 6 procs for 100000 steps with 4175 atoms

Performance: 484.433 ns/day, 0.050 hours/ns, 1121.373 timesteps/s
98.6% CPU use with 6 MPI tasks x no OpenMP threads

MPI task timing breakdown:
Section |  min time  |  avg time  |  max time  |%varavg| %total
---------------------------------------------------------------
Pair    | 70.938     | 73.512     | 75.778     |  16.8 | 82.43
Neigh   | 5.1246     | 5.1593     | 5.2494     |   1.8 |  5.79
Comm    | 5.671      | 7.9324     | 10.568     |  51.5 |  8.90
Output  | 0.16124    | 0.16201    | 0.16559    |   0.4 |  0.18
Modify  | 1.7563     | 1.7885     | 1.8145     |   1.7 |  2.01
Other   |            | 0.6224     |            |       |  0.70

Nlocal:        695.833 ave         706 max         685 min
Histogram: 2 0 0 0 0 0 1 2 0 1
Nghost:        1481.00 ave        1492 max        1467 min
Histogram: 1 0 0 2 0 0 0 0 2 1
Neighs:        0.00000 ave           0 max           0 min
Histogram: 6 0 0 0 0 0 0 0 0 0
FullNghs:      19643.0 ave       20026 max       19390 min
Histogram: 2 0 1 0 1 0 1 0 0 1

Total # of neighbors = 117858
Ave neighs/atom = 28.229461
Neighbor list builds = 5547
Dangerous builds = 0

undump              1
unfix               2
unfix               3
unfix               4


################################################
#######         Run Simulation         #########
################################################

reset_timestep      0
log                 log.run_${NAME}
log                 log.run_liquid_density_MLmW
