LAMMPS data file via write_data, version 29 Oct 2020, timestep = 800000

4175 atoms
1 atom types

-0.1538190889018729 50.15381908890316 xlo xhi
-0.1538190889018729 50.15381908890316 ylo yhi
-0.1538190889018729 50.15381908890316 zlo zhi

Masses

1 18.015

Atoms # atomic

3164 1 1.7865312074469526 0.6211388181183942 1.1471467250851404 1 2 0
3112 1 38.139214109534194 13.669330285830142 1.2217652241145132 0 0 0
2184 1 45.728071638708684 0.8574015459287689 10.283550602599997 -1 1 0
2036 1 12.684638436480293 1.3494860534203628 3.1592984108903117 1 0 2
4161 1 14.896887602177378 2.0429210992712346 1.5913679013140778 0 1 1
2933 1 16.70347598829732 1.32284842752529 3.6948018419702415 0 1 -1
708 1 8.368491050250357 13.165610849067763 0.7776413497636522 0 0 0
3309 1 32.28935469256932 17.738907821143055 1.3347400637667186 0 1 1
70 1 3.0344825980892356 24.822579988008147 14.096226943521307 0 -1 0
1653 1 21.14296099092059 2.0699667710518144 2.9147054544082653 0 1 1
2677 1 23.672847955282485 1.3269743076690241 3.3018050936793677 0 0 0
2700 1 30.431685846985264 0.767680076315442 1.9079624210518342 0 0 0
1858 1 4.62600015416752 21.274426184079413 1.5147620895017955 0 0 1
2107 1 5.7070778608073205 15.327949140411745 0.40170522650788254 0 0 0
2185 1 48.73667170042569 24.316817514161794 0.400244779832134 0 0 0
977 1 2.033331790894101 8.098141429481577 0.30110476341296083 0 1 1
954 1 45.98612966129022 0.3097666929399723 1.0558132635755237 -1 0 0
2698 1 48.745770870407114 0.8262993401240556 2.3694863608632586 0 0 1
2168 1 0.9215889406324913 5.402978901942035 0.510064701313011 1 0 0
2212 1 4.420202162936062 5.730782728559312 2.9817740232382897 0 1 0
3859 1 12.429639454213858 15.07166677057082 0.46222611649030243 0 0 1
2353 1 7.304490876456177 2.71603783352515 2.2139469517388535 1 1 0
2840 1 10.852502711820428 8.212500712466708 1.2715693713545388 1 1 0
958 1 24.27830721412328 7.817398706472184 0.1282633287924438 0 0 0
2295 1 14.541697892113257 6.128211813493762 2.7055730070365054 0 1 0
298 1 13.611103150870212 4.322066782109234 0.9618500971419353 1 1 0
3944 1 25.122851612527075 3.0558170083825975 1.8143891191776271 1 0 1
687 1 48.23909130075991 0.3407136100645223 9.27994450125536 -1 0 0
1300 1 27.350589343211755 6.793579129257672 2.5260124483262834 0 0 0
2178 1 29.40292609008169 3.370100602020474 2.4159266790327325 1 0 -1
1588 1 30.733074225684266 5.186263630426926 0.8625618665609551 0 0 1
4049 1 33.0223048487786 3.8219077952475056 0.1158328250079047 1 0 1
858 1 35.083554015958796 4.084501218892592 2.046447022191082 -1 0 1
1827 1 37.09178581206993 5.101340445971497 0.7038713857359887 0 0 0
1567 1 40.772176836073456 2.701713539557022 1.9358939117184297 0 0 1
964 1 39.822870852904714 11.729413120696048 0.6987787321261226 0 0 0
679 1 49.52416132021992 6.073018993926082 2.9878679449335634 0 0 0
3182 1 17.821808066615084 5.200269271472002 1.676611717760148 1 0 1
3128 1 15.93942470562985 17.30216876976925 0.1769828480182003 1 0 2
4094 1 8.12977466957297 7.2920682155601435 0.9238429981789693 0 0 1
574 1 12.07824950131778 7.183535234964541 3.412780146449379 1 0 0
3956 1 50.0466520989783 20.153271999616997 0.8621745466639392 0 0 1
3296 1 36.9449893186146 0.8781937344139317 14.026879719580792 -1 1 0
3354 1 44.10448858685682 10.900717217673591 0.36398932592164224 0 1 1
1443 1 5.969304238871502 24.69676125739783 7.109594409171357 1 0 1
4081 1 23.79103259311448 10.545738864527157 0.810273270143561 0 1 1
3050 1 20.107358645090336 11.91289140712706 0.478346135314187 0 1 1
3969 1 9.238311544463967 0.9594096621548913 3.389522355621331 0 1 0
1099 1 31.252540444396733 7.761520114838292 1.5869086719696868 0 -1 1
2023 1 37.87482970484271 9.595334595813737 16.288054312303437 -1 0 0
1971 1 33.689245100301875 8.096405788635716 2.931065682350229 0 -1 1
3931 1 38.96609268593164 6.117178261562278 2.7549735156939765 -1 1 0
2143 1 40.387241889038066 7.717733145028409 1.3131232949815357 -1 0 1
2021 1 42.9568858444933 8.97500356331417 2.1503902505089374 -1 0 1
68 1 44.464867869573965 6.739836580896267 2.2275510118808834 0 0 0
4063 1 16.835229011416175 7.995693106610853 1.9996038104960605 1 1 1
531 1 9.240076993798795 24.921124220782854 10.123828359801573 1 1 0
2884 1 7.057575587995395 11.181487521502808 2.4623869331552037 1 2 1
1893 1 4.397309777779599 11.666119329938919 3.1822399423761736 2 1 0
2797 1 8.821648922838348 9.215084965089142 5.690352358901956 0 1 0
3171 1 6.738672593821906 24.255294665160733 9.53115644186636 -1 0 0
2497 1 15.024969826856461 14.733879387126334 1.1305451346238147 0 0 0
368 1 15.086985379539268 11.125287485309116 3.4204781622296547 0 -1 -1
859 1 17.786188192406065 12.00357547835914 2.9909570646545003 0 0 -1
2082 1 42.129038379474224 23.990154897505256 7.124626286335751 1 -1 1
1674 1 27.024307613830484 11.860961258043094 1.894675629578654 -1 1 1
2222 1 16.20284460904507 22.15703687719625 16.124266513354222 0 0 -1
37 1 30.67632930725745 11.971014026669277 0.13414318559944732 -1 1 -1
137 1 35.480903681829446 10.1542703003275 1.7239631392322359 0 1 0
689 1 39.81672847877178 10.14433632290861 2.873826579027182 0 0 0
943 1 46.2612540320514 12.167054496554988 1.9390067598947183 0 0 1
1383 1 11.75442112884377 24.136940297489016 8.551990584638686 0 0 0
3529 1 -0.07123247153037937 9.721788416262282 0.8704489317923649 1 1 0
2020 1 47.96064599634329 10.05849219480494 2.5429725460908896 0 -1 1
2853 1 3.285156861103377 3.9608029763001644 1.2186413529519535 0 1 1
1270 1 6.27507028310524 16.425352755164287 2.9252331522419888 0 0 1
2375 1 8.882586824095696 15.367814734855077 2.703752690884734 0 0 0
999 1 11.900593006210443 12.25315584662305 3.7332027676541863 0 0 0
2672 1 42.9951267801699 3.46531117952575 15.836502063968547 0 0 0
4035 1 11.050299529445217 12.554551265328888 1.0537688167169414 0 2 1
2013 1 17.60634977378212 24.853388781284405 6.0417990682706675 0 0 0
1308 1 24.735100942982 15.233432003950563 0.5437994232949644 0 0 1
2942 1 28.82229808315494 13.722437158414309 0.6276079147395102 -1 1 0
4054 1 36.016200214898404 22.391483429329725 0.6933166636937546 0 0 2
111 1 28.402482489367728 15.435919979308023 3.111679097517853 0 0 0
3000 1 31.14757130331463 14.937657441694984 2.4506213714304725 0 0 1
3395 1 21.412944479332293 6.344758426234922 15.042251998076404 0 1 0
3016 1 42.72380788317385 15.619959785746428 1.1844849848815748 0 0 1
3409 1 -0.004458012266269407 14.487083981443133 2.360125103537466 1 0 0
1801 1 47.63489911965952 14.619805848230856 1.2824828666985841 0 0 0
1889 1 2.138877287118659 18.188597114336922 1.24290071810821 -1 0 0
2511 1 37.56284045531727 13.887274295978505 16.372639102508614 0 -1 -1
784 1 6.449324948493205 19.23060860434806 3.4649775209095597 1 -1 1
2917 1 48.915225304965276 4.863738061882097 15.926138521922248 0 1 0
724 1 10.888544518674923 16.97441807105691 1.4820213056929192 0 -1 0
4107 1 13.593689744205294 20.396166920814093 1.0897734796211436 0 0 1
2329 1 19.56226950011208 18.806703509876918 3.1566571071203455 -1 0 0
1529 1 22.466764515084467 17.391005349215245 0.7564550056998162 1 0 0
2779 1 26.32664584896248 17.07962501602303 2.3265609508652836 -1 0 0
1126 1 28.141539572350588 19.426407962575272 1.716906630241282 0 0 1
1539 1 31.517794099949736 23.446231784214923 16.253247545752544 -1 0 0
1372 1 29.694390438795324 17.640388029180485 4.803594888383011 0 -1 0
767 1 32.118216732195165 18.684668276238984 3.6924498867533435 0 0 1
3407 1 34.33283709879498 17.852155366857442 5.067129650904016 0 1 1
240 1 35.79209724085683 16.34112365458616 3.160946721571807 -1 0 0
2088 1 34.93371256339498 17.763499304302915 0.6750629962155773 0 0 0
2490 1 39.91406011328182 16.29886186782808 1.013245840637756 0 0 1
2681 1 9.112466582734152 0.001101129155074071 5.930879889159333 1 1 0
3274 1 45.50937213118644 15.886139391795101 3.019328048110352 0 1 0
245 1 45.53792401500587 18.11740588151553 1.1964254327181383 -2 0 1
3375 1 48.23972001421045 18.043141393920134 0.5091429831118157 -1 0 1
3040 1 49.648408743932876 20.662276849023097 3.483639241148214 0 0 0
843 1 25.55744555326831 19.561262028737467 0.09659009427189075 0 -1 0
33 1 24.424138401143995 0.618392240528787 6.0281764032710905 0 0 0
165 1 2.4901067077046766 20.467528286279066 2.978301213024992 1 0 1
1655 1 7.879247085774439 20.876049320373728 1.8348827895129436 0 0 1
1434 1 11.631612850980607 19.445495308900366 2.720081434809482 0 0 1
4069 1 49.03335637701052 10.030094632290087 16.502043640272095 0 1 1
4015 1 16.568153659347722 19.451191291031606 1.5563663924003093 0 0 1
1993 1 19.89880506415748 18.10872669972962 0.41730395876425064 0 1 0
15 1 22.81235137064833 20.14322557496617 1.1488225673805732 0 0 0
2224 1 24.384434679557685 21.358710608772807 3.172569471017477 0 0 0
492 1 28.693252711859763 22.147631119155317 1.2831708107438882 -1 0 0
2271 1 37.696583934888906 19.408231153310687 4.652372389506566 0 0 0
951 1 37.23237888704112 19.661798445471483 1.3840526174171808 0 -1 1
4131 1 40.35714795437778 21.56340747982412 1.700937643781858 -1 -1 0
3058 1 45.33180976108366 21.00626676216785 2.2067850789462513 -1 0 0
3517 1 47.32158818853236 21.95456551544049 3.828142578021279 -2 0 2
3295 1 2.9300774152948508 23.83138836732423 2.440243136259578 0 0 0
1483 1 5.849185267623089 23.78893083308592 0.37980228378171976 0 0 2
3572 1 47.167244748297506 21.17580037094773 12.433722809849087 -1 -1 1
4004 1 14.818696228945921 22.994013594330017 1.901866976411101 1 0 0
1420 1 19.138100689426242 21.73828210302935 2.2712466858397615 0 0 1
3616 1 2.44433332307129 -0.12980591973801836 6.997673003156926 0 0 1
194 1 22.64696358875551 23.22674614098584 4.901060969274296 0 0 1
3978 1 21.158003893082274 23.416211995914214 2.396686989537472 0 1 1
3004 1 25.885830836290168 22.891506466726646 1.178603286783638 2 0 1
3219 1 31.501542539975116 22.05794383142171 1.2240017957534064 0 0 0
369 1 33.678144436003876 23.74780638712924 0.9021559130426591 0 -1 1
1822 1 25.92787983782166 24.854332031426864 10.315102591292284 0 0 1
1401 1 47.24775095977867 24.35237032936398 12.912613472508166 -1 0 1
1093 1 38.93423241970433 23.228571823515413 3.4610247016592854 0 -1 0
1014 1 46.6523453550291 3.180279625838879 15.651669895679513 0 0 1
844 1 43.04744431146233 22.754859678428346 1.6698781418070003 0 0 1
1986 1 49.56834587158259 1.9795130111570352 -0.04919413368745863 0 1 2
3339 1 41.415662303516385 21.512739866679624 14.069261579796413 0 1 0
949 1 4.411447360331772 1.837551969530764 4.325913516955678 1 1 1
219 1 14.148462053600152 10.852820733170468 0.6450737183137509 0 0 -1
414 1 10.819741878656414 3.2821433292612725 2.3526617471107008 1 1 1
3724 1 13.09675784868007 1.756241576956597 5.845355740045425 0 1 1
2875 1 1.3272705588175027 13.665208598925906 16.02624232486393 1 0 -1
1073 1 34.09585264362896 23.363378749896572 3.9511581398986975 0 0 0
2715 1 24.459971610227846 4.606077692112962 3.9465094532802096 0 1 0
1897 1 29.216307986843773 1.2280907394583178 6.122353273529894 0 0 0
3783 1 21.805838643334063 22.640628209452696 -0.03772476952437938 0 0 1
3796 1 32.61770643719575 0.7752774508492234 3.4174790472778374 -1 1 1
3217 1 35.47805333719893 1.4992133124388627 3.333569931050755 0 1 1
623 1 37.488627890817 0.8887633920294216 5.199623813653035 -1 0 0
1050 1 42.831953757568996 3.992621751439044 0.6875998348282646 1 -1 1
3324 1 45.08055139049017 2.3039338713978568 3.9496940212030083 -1 1 1
989 1 49.325220891551155 3.318554364237529 4.081306655137441 0 1 0
3794 1 47.15922199019302 2.6343799843841973 5.51952181073528 0 1 1
94 1 0.7571949541725718 6.16179330606466 5.246851220123083 1 0 0
880 1 3.221564482120191 4.407623725097282 5.4265796883398725 1 0 1
1519 1 6.83120121036327 4.77504277119486 4.137623740654503 0 0 1
191 1 7.195685736414539 3.6874125412013448 7.026280507065589 0 1 0
1280 1 10.28846933139703 5.288436518457217 4.269326555038973 1 0 0
3815 1 18.375101702780494 3.6512770473541565 3.872586841340371 0 1 0
1557 1 15.872782766406786 5.141048410962542 4.932653200852802 0 0 1
2948 1 21.216895167122086 4.413616698557803 4.508071696205645 1 0 0
577 1 20.973449898123235 7.480441113082884 2.722503514870628 -1 -1 0
2897 1 23.555270155208017 7.257840564820227 4.008171171704867 0 -1 1
640 1 26.82661165570044 5.400567411952277 4.9900805806116955 0 0 0
4006 1 31.227138892762632 2.9196737282861736 4.574609212076984 0 0 0
217 1 32.75166143219444 4.801746413480003 5.713171739858221 0 0 -1
3184 1 34.709167318341784 5.711114420443033 4.140533479795153 -1 0 0
2600 1 39.303838739606036 2.859899851747088 6.0180248750545395 -1 1 0
3751 1 40.681589225554546 4.529302815672442 4.237218431131488 0 0 1
1187 1 43.04523587453217 6.482667240301561 4.725890836551503 0 -1 1
754 1 43.237474604977635 3.1936022599914846 5.607293086074868 -1 0 1
2616 1 3.633436050443178 8.907630965428325 3.637963750070039 1 0 0
3701 1 4.62377241462042 7.603970919067683 1.0817037484250847 0 1 1
549 1 5.715594223394512 7.769352336258751 5.235842893852164 0 1 0
2850 1 7.883957109628426 7.262816938418726 3.718539620082301 0 0 0
3304 1 10.054681131274311 4.2100534266296314 6.587203828296244 0 0 1
1048 1 16.382799049706747 7.8934971331545345 5.206800224354573 1 0 0
4117 1 20.423900925316715 6.91697262480848 5.405381047262016 1 1 1
1195 1 18.579145564883817 9.407699000234306 4.506049881480334 0 1 1
2894 1 21.784085890426468 11.491681174090868 2.7895006032773892 1 1 1
2337 1 23.030356629248 10.388975029231364 5.317332817433714 -1 1 0
342 1 25.561044982836243 9.107292846829159 3.0128856077957353 0 0 0
1338 1 29.374625363436547 8.001622582985798 3.44188598516627 0 0 1
22 1 37.47817910535562 7.350451640190109 4.795743615059836 0 0 0
1520 1 42.77120785911724 8.983287623351702 6.444097760834287 -1 1 1
3465 1 46.91405370081365 7.513245144344847 3.214451401866467 0 0 0
122 1 46.899665706496535 7.460809639709355 6.093035535340154 -1 0 -1
3388 1 1.2865009612416454 8.83600407474382 4.891853494662645 1 1 1
2678 1 3.7499356043332654 13.54432172815461 5.274666824813247 1 0 0
1264 1 7.949910583946171 11.828599021922068 4.843213990734303 0 1 0
2125 1 6.258121388623081 13.146873122177935 6.41041118601433 1 1 0
350 1 14.40460623570028 9.592092327041069 6.35372613025933 -1 0 0
3318 1 19.18328800050342 9.414701734964705 1.5437616326074781 0 1 0
3627 1 16.94209433050778 13.54196643916597 5.271915773459964 1 0 0
3633 1 21.74583804320607 14.990642157824217 2.5820953593188816 -1 1 1
3446 1 21.7547298815581 12.048715579915962 6.491849607962329 -1 0 1
1736 1 25.942415844649794 10.650884976357382 5.505286797044885 -1 -1 1
3669 1 28.59816635373878 10.561611224217385 3.7146212436187986 1 0 0
2056 1 29.98420216634822 12.281293422292636 5.550169742402483 0 1 1
1063 1 31.48325368200464 11.8977268839704 3.1332567235069235 0 0 0
2352 1 33.14086347329571 10.287758273014566 4.6827670363034635 0 0 0
900 1 37.314896527371275 10.022159469270811 3.777447917450933 0 -1 0
2726 1 42.568386975214466 10.67376371136473 4.250361251387586 0 1 0
3201 1 44.58890726684744 12.591163462339969 4.1334234538410675 -1 0 0
2281 1 49.31998056627887 10.873031565629399 4.870106453694014 0 0 0
3540 1 46.924954859329944 13.120616525349702 6.28791790359724 0 0 1
260 1 49.84557454643112 13.55894025542948 5.0752154709591135 0 -1 1
142 1 1.7933179440804836 12.595928689952284 6.6500980938917245 -1 -1 1
2076 1 9.96615896713163 13.856732294764683 4.993974652708234 0 1 0
825 1 11.439335745278205 9.540501076222752 5.2546330561212296 1 -1 0
453 1 13.388940780581828 12.724078217008497 10.109846218025025 -1 0 -1
444 1 14.19348354453034 13.79494074472742 3.9237461433950385 0 0 0
1271 1 17.906933474184772 14.689719250531137 2.0023503697131293 1 0 -1
2345 1 20.3704088315245 13.541964800184973 4.592462651471299 0 1 0
3376 1 25.336847096235235 13.39465477701549 5.037441614057668 0 0 0
263 1 24.387745200277703 13.263713101244928 2.292726638141935 0 1 0
2718 1 27.939008982626746 14.42351961649752 5.6718697561743285 -1 1 0
3240 1 30.998961236665973 17.563233694039226 7.261060482662991 0 1 0
878 1 33.19284185357543 16.0129184822295 6.703549341761575 -1 1 0
1765 1 33.62237056605264 14.154486658141867 3.780800663680722 0 0 1
172 1 35.42057242940666 11.693000054706365 5.2879010355325 -2 0 1
2074 1 37.043476261676545 13.85855677686908 3.680943378463895 0 0 0
3463 1 40.310663209080644 12.937966826773097 4.299024612011655 0 0 1
759 1 42.773117531930836 14.87683424043563 4.009942472571693 0 0 0
956 1 46.48048899198551 16.07784283805818 5.514268346781296 -1 -1 0
310 1 49.13049348306551 15.929823496962243 6.317336875648559 0 0 0
3653 1 1.3943384533384182 16.55545655409615 3.241395395682924 1 0 0
1629 1 0.28324708641411406 18.288479494875276 4.9923215911561245 0 0 2
2267 1 3.908263435471472 16.089988587684708 4.321567632391052 0 0 0
778 1 4.275233642771489 17.54891315007225 6.635875770662456 0 1 1
2307 1 6.5434211149571 18.17246000967174 7.994019411677623 0 -1 -1
3289 1 9.492705895524379 16.429391423761963 6.57928816017469 1 1 1
2297 1 8.024495960399564 18.63298954935758 5.772607819414162 1 0 0
1786 1 12.339907082370088 16.772103179524628 6.349159802783946 1 0 1
3707 1 13.424206974340493 16.454490402250947 3.5202210570974013 0 1 1
2630 1 17.61314267350653 16.973255146336292 3.453375158226266 0 1 0
801 1 22.092473645060974 17.363843413834616 3.980883438199367 -1 0 1
1872 1 24.92666723458164 18.140783127172856 4.404637474711257 0 0 0
3824 1 28.94265597566075 20.204492224640717 4.519992346068163 0 0 0
1746 1 37.24104797403808 17.662323197965346 7.150588892725418 0 0 2
2551 1 38.55721969864685 17.18222596508664 3.11577630850899 0 1 1
3767 1 42.07610384050213 17.318428320281757 5.834092665126295 0 0 1
2342 1 47.50141690733413 18.750551277881367 5.241966267498689 -1 0 0
2092 1 4.398339853623945 19.844529941307552 4.96209988450771 0 -1 0
1632 1 10.306113520248692 20.22170827311874 6.269076873208239 0 0 1
1211 1 12.626503771035205 19.372157702915597 5.259091413484613 1 0 0
3622 1 15.34922044371503 17.974984530980418 4.534482745107317 0 0 0
2187 1 20.725943166120896 21.076520944452444 5.155348236667002 0 1 0
2725 1 22.629189695849618 19.265375401581423 6.319223583893937 -1 0 0
2859 1 26.180312513548106 20.42633938851046 5.138288444199379 0 1 -1
3629 1 30.292653569497944 23.36184219239666 5.720861346280212 0 1 1
1269 1 31.92197983055709 21.61915781791521 3.9251519610328875 0 -1 0
889 1 35.19702668424186 20.48268458220782 6.070263635023932 -1 -1 1
605 1 40.38374733517146 20.06278638089955 5.356814110074481 1 0 0
1396 1 41.22938150543314 18.971026214508445 3.0950348849563785 0 0 0
659 1 44.08791846593873 18.558572707307214 3.5431901703592503 0 0 1
244 1 0.5829832644477818 22.838104062190148 7.24410657209799 0 0 0
2763 1 0.765730207630072 22.861495844300848 4.174430452598173 0 1 0
2996 1 5.404549942911019 22.064808186522143 6.495474755367143 -1 -1 1
1141 1 9.975600418220038 22.89865147245032 4.894800961379981 0 0 0
2826 1 10.36936399927827 21.870653063609492 2.3210171385886476 0 0 0
534 1 15.294287871262146 20.97056378474397 4.060075722548719 0 0 0
3762 1 14.355251100265765 21.630732749413635 6.951709740123407 -1 0 1
1902 1 40.23707679794957 4.561335374695633 16.44099191011907 0 0 0
3668 1 17.723542726493577 22.04593385454127 4.992040207338334 0 0 1
2339 1 9.836823274768623 24.212963624927223 12.675025700576677 0 0 1
2531 1 34.80175890935297 12.999150806266389 1.1664946374505631 0 0 0
12 1 26.50203073573464 23.196902629892342 6.54312026867962 0 0 0
45 1 28.099247291726257 23.400877846921908 3.814280081562393 -2 -1 0
4039 1 33.40925311621744 21.648479489481588 8.164481940899222 -1 0 1
4133 1 17.071221558774962 22.360346191772667 0.17719851621828464 0 0 1
1710 1 36.60437012224574 21.987652342694204 3.464237711194649 0 0 1
1804 1 20.97259874164008 23.623114975338645 13.86602886151018 0 0 0
813 1 41.36592705057336 22.629911733143036 4.900848477729751 0 0 1
448 1 19.7212147526808 8.444513948149002 16.089477242486986 0 0 -1
3682 1 45.30184446544436 24.477545080603118 5.664448513188356 0 -1 0
2123 1 48.24107881071329 24.25596170032871 3.010574492242434 -1 0 0
3821 1 46.39598098225508 22.035905565949427 6.330234274775004 0 0 1
3519 1 1.0114994060137108 2.2340103197780063 5.8218769105138986 0 0 1
2113 1 3.945148644420539 2.8872875058653857 10.841618708809582 1 1 0
321 1 6.642287235487953 1.1124894135344598 5.915317955207745 0 0 0
637 1 4.434796805946849 12.75814102774812 0.5825009033244359 2 0 0
1901 1 14.78798097913446 1.3473240801694646 9.510243309433895 1 1 0
140 1 15.900738636040721 1.6384856816862858 6.7984173180805865 0 0 0
2561 1 21.283861258366258 0.6266821467334432 6.036665696149022 0 0 -1
3005 1 12.674428860428668 24.97783051510175 0.43409222802865455 1 -1 1
4077 1 25.770970298384324 2.6149594392906157 8.05299242722722 0 2 1
3596 1 37.46525648454225 7.001630643944335 14.762931466414907 0 0 0
1849 1 26.932363790572953 5.831346380235666 16.096105022044735 2 0 0
1058 1 41.43058912968763 1.6369544881646392 7.027552020839201 0 0 0
3190 1 44.407346164036255 23.660770703172595 12.06002437736489 -1 1 0
1342 1 42.98096811055218 0.4834111416036133 9.251862108796223 -1 0 1
2899 1 31.858966665565692 4.01796305006811 16.086311483073132 1 1 0
3610 1 0.3635602488593397 3.9375041281255454 8.14725510488152 1 1 1
2209 1 4.9813524358007255 5.802531000579153 7.376965368993534 1 1 0
1755 1 3.0036523612257002 4.469510912069757 8.886544598721597 1 0 0
3893 1 8.98223884640637 2.519559064086101 9.364998372493078 0 1 1
1998 1 10.818902596712618 1.5016177074763721 7.412787672793174 1 -1 2
536 1 13.270201616015838 4.709187854116188 5.666984148527358 1 0 1
2100 1 13.80836105237531 6.733359986786077 7.81306249331815 0 0 1
3106 1 17.605584343179835 3.940959854257952 7.069815519856536 2 1 0
367 1 20.30000904644052 3.255921234497101 6.938365254632466 -1 0 0
3192 1 21.91641389620624 3.7688579957121373 9.117317168069048 0 1 0
1626 1 28.538110002930406 3.1885932484068813 7.793879037467928 0 0 0
3334 1 24.95738361308257 6.315168117507446 7.145192282539511 1 1 0
940 1 28.879199223570236 6.01884287790526 6.909275204812269 -1 0 0
1510 1 33.64872986584848 4.76543486115478 8.474784770562417 -1 0 1
3738 1 36.628181241039826 4.379425894568948 8.897388937624063 1 0 1
3891 1 39.35298503266324 4.793147913864658 8.204687676387481 0 1 1
1762 1 44.510451091303565 5.620668952486749 7.0688192948134265 -1 0 1
1670 1 47.057784341510455 4.502990464322393 7.620078355876579 -2 0 1
2410 1 5.518898582616275 10.186704651809514 6.777203856994476 0 0 0
3734 1 6.401411618920802 7.161610923271911 9.557960905985468 0 2 0
1273 1 9.432147175632053 6.621983096472884 8.090567312186371 0 0 1
569 1 18.055282789419877 6.960324715440477 7.400160947248227 0 0 0
3727 1 16.087371353163896 7.991954935046957 9.20855256750759 -1 2 1
830 1 21.201415789172117 9.837750318430722 8.859938586594891 0 0 0
1930 1 22.688808098311494 7.957433471856222 6.90178598039554 1 1 0
1907 1 27.454391714867143 7.413362454569017 8.754455607929145 -1 0 1
4155 1 30.966176328496605 6.879429519581639 5.6297035094242585 -1 1 2
1324 1 33.89243707878623 7.587675867671388 8.71031112377258 0 0 1
2660 1 38.47656626129982 7.504484972500732 7.289905250381997 0 0 0
3718 1 40.371209265874356 9.42054823425121 7.797331463544814 0 0 1
3450 1 49.294436199810036 6.494368325471458 7.367920340989232 0 1 0
1566 1 3.499133542958842 9.585938537996354 9.195536220031522 0 -1 0
1642 1 1.5840875422964558 10.0803685883975 7.319429244546947 0 1 0
2683 1 7.35584432050565 11.71552715132052 10.134206472372579 1 -1 0
3065 1 7.575801920898907 9.351216136108155 8.239479414942176 -1 0 1
1158 1 11.591873032958754 8.080361210036365 9.231218864903624 -1 1 0
3806 1 18.745230966174326 9.267856369979873 10.651499834897708 -1 1 1
3699 1 15.447882576908402 11.727588904444717 7.612472934571679 -2 0 1
17 1 18.710808638878884 11.693105437007395 6.67856027437458 -1 0 0
2183 1 27.241162093541718 10.202394810712038 8.142432116098362 0 0 -1
1055 1 30.096993379196892 10.836679327798016 7.677996153502961 0 0 0
315 1 31.908333561575777 8.964346709181362 6.8026506045494655 0 1 -1
1061 1 36.4559874448252 8.651845043979135 8.659194615814725 0 0 0
1944 1 32.83388302297769 13.290906644938351 6.302199486710346 0 1 0
134 1 36.14155577259591 11.44966753275877 8.190737519690972 -1 0 0
2796 1 40.9053296991337 12.143836336335234 7.10814620451301 0 0 0
2481 1 43.69029788644124 12.041807921952344 7.207376930963805 0 1 0
600 1 45.37360958298629 9.91859445291252 8.410609120126846 0 0 -1
2305 1 47.66661430272859 10.141913732374519 6.891805456183666 -1 0 0
1727 1 49.900559083668185 15.205928656663643 9.37529044868364 -1 1 1
3174 1 2.0065831472864875 13.805189863568607 9.054193658234356 0 0 0
1286 1 4.0574101269032425 15.949734757822998 9.507015040732536 0 1 1
2885 1 6.238415886816894 14.089737609302091 9.27021642856076 1 1 0
1824 1 11.395557188824913 10.814434414576457 7.855522505491084 1 0 1
2248 1 11.21425749906501 13.912787719812444 7.640714429864627 1 0 0
1221 1 13.972936862812833 10.00245418970399 9.840105152853239 -1 0 0
1216 1 18.68951267063669 12.09460092279785 9.600424160765954 0 1 1
108 1 14.06746034425617 14.13011327168613 6.996285534095629 2 -1 -1
215 1 21.00117913321138 15.230749419951968 7.400180840698614 0 -1 -1
1262 1 23.73801776543211 14.133206784639501 7.326658976876311 0 0 0
2523 1 25.63191708626961 15.768094681820841 8.77941397572745 0 1 0
1956 1 29.355836168112894 15.313529760756008 8.111086145826304 0 0 1
46 1 37.806221747148484 12.640300200033856 10.315681783220816 -1 1 0
2437 1 39.863218321654344 13.994015517682948 9.105229421379638 0 0 1
701 1 44.490133208237765 14.285458031061548 8.507861935020687 0 0 0
715 1 48.37490408519156 12.993030032629541 8.740973406353149 -1 0 1
2484 1 4.777651530653249 18.588631988840195 10.598561826680413 1 0 0
1638 1 8.22464874501663 16.322086790329926 9.253131406428903 0 0 1
2707 1 11.247146499296756 15.85136564270686 9.735187145691757 0 0 0
3071 1 15.006788268410423 17.777223575898855 7.5224911307222 1 1 0
156 1 16.58934344445788 15.688101587118352 7.929676222527306 1 0 0
148 1 18.67762354750867 15.628598522459257 5.947615695991407 0 0 1
3290 1 19.621659696691776 19.058976130448702 9.680550027848577 -1 1 0
3118 1 21.839638727880544 17.649107070620715 8.247784711748437 0 0 0
243 1 26.88139391316167 17.181546679803972 6.39538035233722 0 1 0
2954 1 28.051846262952036 18.43820901392805 8.365462694568546 0 0 0
3834 1 31.583984778875134 15.446282350657105 10.912172387308452 0 1 1
3853 1 31.52527052698419 19.68914363920126 8.731739928982046 0 1 2
2595 1 35.61624653330857 15.480016570750264 7.750506771181007 0 1 0
1003 1 39.82659685141202 16.58769853804665 7.6634370744374065 0 0 1
2740 1 39.18929456025681 15.39235412395143 4.89229720776476 0 -1 -1
3947 1 41.083870824424906 17.83777389170596 9.856434432656886 -1 0 2
2982 1 44.41771681830777 16.94519168158171 7.355133392859196 -1 1 0
345 1 46.17906383914534 18.22929998810585 9.036023141250274 0 0 0
407 1 2.0573736591545018 18.91764871853569 7.188720612033049 0 0 0
3021 1 3.0934262287385828 21.401271354826246 8.006792581120042 0 0 0
3474 1 6.792318757346405 20.813796007124008 8.811224469838958 0 1 1
104 1 5.621987082344726 22.093880478411986 11.225184235514758 0 0 0
1178 1 11.041470218204266 19.894362945494127 8.909157278506619 0 1 0
2263 1 12.964811707210448 17.988914743987376 9.430574099477537 1 0 -1
2214 1 16.8942954257316 20.30777904216038 6.958657067460676 0 0 0
3736 1 18.346057983752193 21.255562752424602 8.675046064428711 0 0 1
2350 1 24.781983710404912 20.75933506163072 7.726947422271587 1 0 0
1744 1 25.987123596173905 19.457321936292047 9.650590988162852 -1 0 0
1973 1 29.160870159774145 20.8729863919775 7.361065417462573 1 1 0
513 1 34.50926101919126 19.623316958894275 10.327535429402708 -1 0 0
3099 1 36.48206697286048 19.70258279673603 8.654508784727824 0 0 -1
1648 1 42.22040156353455 19.67095781648652 7.641716829470222 -1 1 1
4152 1 38.6803810428338 19.08314557106415 10.5385813148778 -1 0 2
750 1 44.96246655859254 19.630631204721112 6.045835359941288 0 -1 0
2986 1 48.55790651610245 18.987980578216096 7.852425668584951 -2 0 1
1353 1 49.15583800974551 18.97336127481326 12.244206241598278 0 -1 1
2614 1 32.91287537698449 24.634075098822137 6.94326988725475 -1 1 0
3613 1 13.126884644525834 21.711589071971954 9.1365839714433 1 1 0
2969 1 27.412970122905172 3.3971531375002093 0.38458226547747965 0 1 0
537 1 20.673844250009186 22.61923034033591 7.454767925554009 0 0 1
1204 1 11.24424685541673 8.453229166645809 16.100465194583236 0 -1 0
2458 1 23.048464716672527 22.62328874317547 8.56913533425629 0 1 0
505 1 27.97272814559864 24.581832335406062 8.481162245797607 0 0 1
3418 1 29.62875638083851 22.55142802061453 9.632969889546104 0 1 0
1778 1 6.625296867793413 0.07538114751772948 13.983615521724877 0 0 1
2285 1 34.57335800858971 22.092895343087058 11.421629872699103 0 0 -1
3189 1 37.21852543485443 22.31977058992103 8.248096689504736 0 0 0
1932 1 38.91396721356142 21.861454884469442 10.58843913752939 0 0 1
4143 1 39.14470107787247 0.8031883794330179 15.815683971431554 0 1 1
506 1 41.89234039780375 22.261761177268347 9.123049916579363 0 0 0
862 1 25.45200130405823 3.5232043089471863 15.887220966116868 0 0 1
1163 1 48.49138441660759 21.84038831794589 7.721043538652307 0 0 0
168 1 44.37806699284934 15.712510992170145 15.944079442067945 0 0 0
3870 1 0.18596612564681653 1.7326960150954793 9.756973514896957 1 1 1
2542 1 8.00290072947104 1.8668504966285298 12.371245949284068 1 1 0
1288 1 4.968103820731455 1.2097153184406368 1.5153678520497191 1 0 1
1683 1 28.624668828249618 11.688046645656598 16.158115937822547 0 0 0
3405 1 10.276063321812662 0.3662883447548395 12.804166230033005 1 2 0
776 1 11.661427307531923 3.967048659502134 10.759161637311099 0 0 1
3298 1 8.006180652045712 4.567860721340288 -0.08343654517149937 0 1 1
2196 1 17.513464550233675 1.423208564534589 10.336250574413308 0 1 -1
2711 1 21.665373903544488 1.4817175484338723 10.352594577237868 0 1 0
548 1 26.250149285320965 0.6673372086308857 9.757673603604951 0 0 -1
332 1 26.526395434372436 1.5335474734002628 12.477844119927987 0 1 -1
4052 1 1.7211579969683706 13.53564318062644 0.44104663460754623 0 1 1
484 1 30.203160142280158 2.4812922089965452 9.972716002424274 -1 0 0