
# Create simulation box of size 50 x 50 x 50 Angstrom
#
lattice	            sc 1
Lattice spacing in x,y,z = 1.0000000 1.0000000 1.0000000
region 	            all block 0 50 0 50 0 50 units box
create_box          1 all
Created orthogonal box = (0.0000000 0.0000000 0.0000000) to (50.000000 50.000000 50.000000)
  1 by 2 by 3 MPI processor grid

# fill box with 4175 randomly distributed atoms
#
create_atoms        1 random 4175 63782 all
Created 4175 atoms
  create_atoms CPU = 0.001 seconds
mass                1 18.015

# Define potential
#
pair_style          sw
pair_coeff          * * ML_mW.sw mW
Reading sw potential file ML_mW.sw with DATE: 2019-02-27

# Run minimization
#
minimize            1.0e-8 1.0e-8 10000 1000
WARNING: Using 'neigh_modify every 1 delay 0 check yes' setting during minimization (../min.cpp:187)
Neighbor list info ...
  update every 1 steps, delay 0 steps, check yes
  max neighbors/atom: 2000, page size: 100000
  master list distance cutoff = 6.0032907
  ghost atom cutoff = 6.0032907
  binsize = 3.0016454, bins = 17 17 17
  1 neighbor lists, perpetual/occasional/extra = 1 0 0
  (1) pair sw, perpetual
      attributes: full, newton on
      pair build: full/bin/atomonly
      stencil: full/bin/3d
      bin: standard
Per MPI rank memory allocation (min/avg/max) = 4.255 | 4.258 | 4.261 Mbytes
Step Temp E_pair E_mol TotEng Press 
       0            0    7792709.3            0    7792709.3    5898794.3 
     630            0   -45180.336            0   -45180.336   -154.07449 
Loop time of 1.21987 on 6 procs for 630 steps with 4175 atoms

99.8% CPU use with 6 MPI tasks x no OpenMP threads

Minimization stats:
  Stopping criterion = max force evaluations
  Energy initial, next-to-last, final = 
      7792709.32924461  -45180.0188663597   -45180.336116598
  Force two-norm initial, final = 2.0191930e+08 4.9721331
  Force max component initial, final = 1.0948746e+08 0.73126211
  Final line search alpha, max atom move = 0.053306038 0.038980685
  Iterations, force evaluations = 630 1000

MPI task timing breakdown:
Section |  min time  |  avg time  |  max time  |%varavg| %total
---------------------------------------------------------------
Pair    | 0.88558    | 1.0017     | 1.1325     |   8.0 | 82.12
Neigh   | 0.024081   | 0.025047   | 0.026253   |   0.6 |  2.05
Comm    | 0.040428   | 0.17213    | 0.28973    |  19.5 | 14.11
Output  | 0          | 0          | 0          |   0.0 |  0.00
Modify  | 0          | 0          | 0          |   0.0 |  0.00
Other   |            | 0.02096    |            |       |  1.72

Nlocal:        695.833 ave         704 max         685 min
Histogram: 1 1 0 0 1 0 0 1 0 2
Nghost:        1494.17 ave        1515 max        1468 min
Histogram: 1 1 0 0 0 0 1 1 1 1
Neighs:        0.00000 ave           0 max           0 min
Histogram: 6 0 0 0 0 0 0 0 0 0
FullNghs:      19997.0 ave       20462 max       19320 min
Histogram: 1 1 0 0 0 0 0 2 0 2

Total # of neighbors = 119982
Ave neighs/atom = 28.738204
Neighbor list builds = 26
Dangerous builds = 0

# Add velocity/set timestep
#
velocity            all create ${TEMP} 120598 rot yes dist gaussian
velocity            all create 230 120598 rot yes dist gaussian
timestep            5.0

# Define output
#
compute	            1 all msd
thermo	            100
thermo_style        custom step temp press vol etotal ke pe c_1[4] density

# Neighbor lists
#
neigh_modify        delay 0 every 1 check yes

# Set fixes
#
fix                 1 all momentum 10 linear 1 1 1 rescale
fix                 2 all nve
fix                 3 all temp/csvr ${TEMP} ${TEMP} 500.0 928347
fix                 3 all temp/csvr 230 ${TEMP} 500.0 928347
fix                 3 all temp/csvr 230 230 500.0 928347
fix                 4 all press/berendsen iso ${PRES} ${PRES} 1000.0 modulus 20000
fix                 4 all press/berendsen iso -50 ${PRES} 1000.0 modulus 20000
fix                 4 all press/berendsen iso -50 -50 1000.0 modulus 20000

# Run 0.5 ns equilibration
#
dump                1 all custom 1000 eq.${NAME}.dump id type x y z vx vy vz
dump                1 all custom 1000 eq.liquid_density_MLmW.dump id type x y z vx vy vz
run                 100000
Per MPI rank memory allocation (min/avg/max) = 3.506 | 3.508 | 3.511 Mbytes
Step Temp Press Volume TotEng KinEng PotEng c_1[4] Density 
     630          230    892.42114       125000   -42318.699    2861.6373   -45180.336 2.7295415e-33   0.99914793 
     700    146.18833   -83.940274    125540.02   -41438.037    1818.8608   -43256.898   0.27431698   0.99485003 
     800    181.56284   -359.21518    125454.64    -40632.34    2258.9869   -42891.327    0.6432739   0.99552706 
     900    197.83601    55.058031    125360.88   -40184.282     2461.456   -42645.738    1.1301694   0.99627163 
    1000      211.948   -181.80776    125551.35   -39877.139     2637.036   -42514.175    1.5430867   0.99476026 
    1100    218.03488   -92.931406    125717.27   -39666.683    2712.7685   -42379.451    1.9577935   0.99344741 
    1200    221.90308    173.50895    125813.92   -39684.602    2760.8962   -42445.498    2.3579182   0.99268418 
    1300    225.85759   -114.96924    125799.59   -39667.979    2810.0978   -42478.077    2.8097758   0.99279727 
    1400    221.38168    182.06147    126017.75   -39661.941     2754.409    -42416.35    3.3082543   0.99107859 
    1500    226.92952    19.150238    126247.59   -39588.905    2823.4347    -42412.34    3.7118091   0.98927428 
    1600    233.49677    54.550439    126635.05   -39502.322    2905.1438   -42407.466     4.050475   0.98624744 
    1700    229.65871    -174.1095    126753.68   -39553.196     2857.391   -42410.587    4.5107049   0.98532441 
    1800    227.25395   -201.74622    126821.44   -39630.244    2827.4712   -42457.715    4.8250336   0.98479794 
    1900    227.24789   -234.67517    126525.57   -39613.511    2827.3958   -42440.907    5.2161517    0.9871008 
    2000    229.18245    27.699081    126597.76   -39574.167    2851.4654   -42425.632     5.570498   0.98653792 
    2100    229.63126    -138.7741    126587.76   -39510.555    2857.0494   -42367.604    5.9379926   0.98661589 
    2200    233.31199   -148.19242    126362.48   -39548.536    2902.8447    -42451.38    6.2558064   0.98837478 
    2300     229.4826    55.792865    126416.15   -39518.876    2855.1998   -42374.076    6.7075254   0.98795516 
    2400    229.34283   -217.39419    126435.22    -39538.37    2853.4609   -42391.831    7.2012201   0.98780619 
    2500    234.47153    -115.8393    126406.32   -39485.097    2917.2716   -42402.369    7.5819364   0.98803205 
    2600    239.59673   -39.368649    126403.51   -39434.606    2981.0388   -42415.645    7.9088793   0.98805397 
    2700    230.30284    37.899197    126641.78   -39450.239    2865.4051   -42315.644    8.3508625   0.98619502 
    2800    236.08309   -288.11384     126523.1   -39441.043    2937.3224   -42378.366    8.7423906   0.98712007 
    2900     235.2379   -200.15134    126390.53   -39534.707    2926.8067   -42461.514    9.0962465   0.98815544 
    3000    227.41562    17.790459    126190.39   -39586.545    2829.4826   -42416.028    9.5430417   0.98972264 
    3100    231.72887    158.74595    126213.04   -39544.206    2883.1477   -42427.353    10.028176   0.98954507 
    3200     228.6079    32.521898    126366.51     -39595.4    2844.3169   -42439.717    10.407809   0.98834326 
    3300    231.55291    26.416804     126434.8   -39606.321    2880.9584   -42487.279    10.788834   0.98780943 
    3400    227.34936    101.95764    126651.53   -39641.207    2828.6582   -42469.865    11.209151   0.98611912 
    3500    231.00501    38.138256    126497.18    -39682.45    2874.1415   -42556.591     11.55582    0.9873223 
    3600    227.15312    117.93658    126825.68   -39734.502    2826.2166   -42560.719    11.929415   0.98476497 
    3700     226.5014   -80.733487    126956.05   -39802.601    2818.1081   -42620.709    12.381242   0.98375376 
    3800    231.89569   -66.432768    126991.16   -39751.925    2885.2233   -42637.148    12.670203   0.98348175 
    3900    230.96341   -36.503043    127115.53   -39784.198    2873.6239   -42657.822    13.048952   0.98251953 
    4000    226.66627    -217.1992    127201.67   -39770.568    2820.1593   -42590.728    13.302742   0.98185418 
    4100    225.56501   -26.853724    127272.35   -39753.631    2806.4575   -42560.088    13.529086   0.98130891 
    4200    229.53859    -437.5837    127139.73   -39762.213    2855.8965   -42618.109    13.826084   0.98233252 
    4300    229.60386   -87.558841    126976.52   -39747.856    2856.7085   -42604.565    14.087211   0.98359513 
    4400    227.01436   -84.206731    126980.06   -39742.175    2824.4902   -42566.665    14.502776   0.98356775 
    4500    228.56843   -74.526959    126871.55   -39746.348    2843.8258   -42590.174      14.8144   0.98440896 
    4600    225.95957    55.171341    126764.23   -39800.561    2811.3667   -42611.928    15.172816   0.98524234 
    4700    230.50998   -206.82767     126827.3   -39719.019    2867.9824   -42587.002    15.532957   0.98475242 
    4800    226.73549   -94.789501    126901.39    -39782.34    2821.0206    -42603.36    16.039309   0.98417748 
    4900    233.08945   -55.785773    127110.13   -39651.041     2900.076   -42551.117    16.436641   0.98256123 
    5000     233.4107   -14.079646    127321.59   -39605.569    2904.0728   -42509.642    16.606893   0.98092938 
    5100    232.47967   -257.35343    127149.69   -39676.286     2892.489   -42568.775    16.849801   0.98225557 
    5200    229.64916    14.257406    127217.82   -39734.413    2857.2722   -42591.685    17.053333   0.98172957 
    5300    233.53795   -115.23116    127249.35   -39701.157    2905.6561   -42606.813    17.396728    0.9814863 
    5400    229.11427    -275.9969    127197.61    -39748.88    2850.6171   -42599.497    17.768552   0.98188552 
    5500    228.51806   -10.723595    127166.63    -39745.09    2843.1991   -42588.289    18.054526   0.98212474 
    5600    226.83233   -21.202452     127256.6   -39743.495    2822.2254   -42565.721    18.342219   0.98143035 
    5700    227.52245    165.72713    127349.69   -39738.425    2830.8118   -42569.236    18.747655   0.98071296 
    5800    224.12129   -216.67034    127231.94   -39772.598    2788.4949   -42561.093    19.090274   0.98162059 
    5900    234.38655     18.56522    127030.58   -39815.804    2916.2143   -42732.019     19.34999   0.98317659 
    6000    227.47342   -226.17149    126988.62    -39824.07    2830.2018   -42654.272     19.53612   0.98350142 
    6100     231.9458    103.78283    127156.49   -39765.443    2885.8468   -42651.289    20.073315   0.98220304 
    6200    229.68084   -17.907747    127181.41   -39842.963    2857.6663   -42700.629    20.325147   0.98201056 
    6300    229.23355   -22.459977    127462.83   -39832.574    2852.1012   -42684.675    20.652982   0.97984245 
    6400    226.74521    34.852873    127476.05   -39815.464    2821.1414   -42636.606    20.780551   0.97974082 
    6500    234.67567     -91.8164    127506.12   -39755.474    2919.8115   -42675.285    20.905666   0.97950981 
    6600    227.91025    41.777521    127364.49   -39841.689    2835.6368   -42677.326     21.20879   0.98059897 
    6700    224.97244    167.03276    127467.52   -39902.524    2799.0848   -42701.609    21.271731   0.97980643 
    6800    231.85546    39.485863    127637.93   -39824.047    2884.7227    -42708.77    21.603641   0.97849822 
    6900    230.65289   -141.11693    127732.11   -39761.144    2869.7605   -42630.904    22.118583   0.97777676 
    7000    230.94368    -161.5322    127635.51   -39761.749    2873.3785   -42635.127     22.61179   0.97851678 
    7100    230.68303   -263.34492    127577.34     -39790.9    2870.1355   -42661.036    22.941872   0.97896294 
    7200     232.5432     17.22719     127510.1   -39861.453    2893.2795   -42754.733    23.436194   0.97947919 
    7300    227.99737   -22.270876    127671.23   -39938.228    2836.7208   -42774.949    23.802459   0.97824304 
    7400    224.34127     -253.156    127599.22   -39976.376    2791.2319   -42767.608    23.942903   0.97879509 
    7500    226.79499     155.3394    127784.17   -39956.329    2821.7608   -42778.089    24.081513   0.97737844 
    7600    226.52097    107.79379    127725.41   -40045.816    2818.3515   -42864.167    24.402082   0.97782811 
    7700    229.69727    168.59216    127727.73   -39943.516    2857.8708   -42801.386    24.752399   0.97781034 
    7800    229.94096    59.576457    127855.31   -39919.782    2860.9027   -42780.685    25.042036   0.97683461 
    7900    231.09653   -58.255406    127912.34   -39996.178    2875.2802   -42871.459    25.221135   0.97639907 
    8000    229.08966   -19.575298    127867.89    -39955.78    2850.3109   -42806.091    25.613227   0.97673847 
    8100    225.49535   -279.84779    127803.48   -40024.474    2805.5908   -42830.065    25.857473   0.97723072 
    8200      225.758   -24.592061    127782.92   -40037.427    2808.8588   -42846.286    25.958456     0.977388 
    8300    230.26697     189.3277    127793.85   -40015.844    2864.9589   -42880.803    26.126243   0.97730441 
    8400    227.03816    72.093866    127793.14   -39960.588    2824.7863   -42785.375    26.396755   0.97730984 
    8500    229.13526    334.52603    128019.36   -39878.418    2850.8783   -42729.297    26.710626   0.97558283 
    8600    231.66496   -190.16268     127913.9   -39889.514    2882.3526   -42771.867    27.129713   0.97638721 
    8700    228.38821    -21.36754    127775.05   -39859.873    2841.5836   -42701.456    27.344461   0.97744821 
    8800    228.70901    -125.4195    127949.65   -39897.864    2845.5748   -42743.439    27.817283   0.97611436 
    8900     227.8216   -95.994044    127800.51   -39977.396    2834.5338   -42811.929    28.096627   0.97725349 
    9000    229.20158    54.485487     127691.2   -39937.665    2851.7035   -42789.368    28.614677   0.97809002 
    9100    224.71075   -139.06771    127843.12   -40008.101    2795.8289    -42803.93    28.865976   0.97692773 
    9200    232.38742    105.40603    127875.25   -39915.278    2891.3414   -42806.619    28.974924   0.97668231 
    9300    231.02817   -82.908993    128007.74   -39973.353    2874.4297   -42847.783    29.350881   0.97567136 
    9400    232.11689   -23.941967    128037.95   -39936.143    2887.9753   -42824.118    29.578251   0.97544119 
    9500     224.8595    43.204528    128054.17   -39932.447    2797.6797   -42730.126    29.721312   0.97531763 
    9600    228.33692    121.73861    128166.83   -39903.766    2840.9454   -42744.712    30.090138   0.97446035 
    9700    233.23761   -6.5641968    128245.58   -39858.227    2901.9193   -42760.146    30.259792   0.97386197 
    9800    227.56672    78.132885    128169.12   -39934.554    2831.3626   -42765.916    30.610585   0.97444295 
    9900     224.6805   -201.55174    128027.83   -40000.275    2795.4526   -42795.727    30.787971    0.9755183 
   10000    229.14529   -194.28146    128005.04   -40017.215     2851.003   -42868.218    30.991964   0.97569199 
   10100    227.76346   -91.873353    128026.96   -39983.101    2833.8104   -42816.912    31.421165   0.97552494 
   10200    229.33834   -54.127394    128167.91   -40037.327    2853.4049   -42890.732    31.788854   0.97445211 
   10300    227.14388    35.652067    128162.54   -40035.658    2826.1017    -42861.76    31.973353   0.97449292 
   10400     228.0215   -100.00822    128353.26   -39975.912     2837.021   -42812.933    32.347598   0.97304497 
   10500    230.24585   -54.135708    128514.04   -39960.061    2864.6961   -42824.757    32.525712   0.97182762 
   10600    235.14619   -31.693592    128365.15   -39898.689    2925.6657   -42824.355    32.617403   0.97295481 
   10700    237.44413    167.40504    128508.17   -39894.601    2954.2564   -42848.858    32.878449   0.97187198 
   10800    232.34963   -121.07616    128464.11   -39884.714    2890.8711   -42775.585        33.22   0.97220531 
   10900    232.40674   -140.89703    128367.61   -39920.776    2891.5816   -42812.357    33.507549   0.97293619 
   11000    233.83821   -2.3491651    128221.74   -39915.684    2909.3918   -42825.076     33.61967   0.97404305 
   11100    226.60289   -88.577941    128389.52   -39960.416    2819.3707   -42779.787    33.796544   0.97277013 
   11200    227.19815   -224.44683    128237.23   -39947.769    2826.7769   -42774.546    33.906597   0.97392539 
   11300    230.99783   -9.9693719    128378.66   -39943.421    2874.0522   -42817.473    34.003334   0.97285243 
   11400    222.88551    22.677136    128385.65   -39961.486    2773.1195   -42734.606    34.337976   0.97279948 
   11500     226.9942   -114.34267    128139.43   -39984.385    2824.2394   -42808.624    34.412562   0.97466872 
   11600    229.35067   -163.44841    128236.24   -39983.381    2853.5584    -42836.94    34.535748   0.97393288 
   11700    231.53421   -77.365164    128243.21    -39873.66    2880.7258   -42754.386    34.740898   0.97387994 
   11800    229.63521    23.006053    128187.83   -39940.129    2857.0985   -42797.227    35.158669   0.97430067 
   11900    230.55673   -192.44536    128132.33   -39950.487     2868.564   -42819.051    35.242742   0.97472273 
   12000     231.3355    -42.28039    127736.74   -39956.903    2878.2535   -42835.156    35.551792   0.97774137 
   12100    231.80891   -42.012328    127647.79   -39917.068    2884.1436   -42801.212    35.892023   0.97842269 
   12200    231.52317    48.293043    127922.54   -39924.567    2880.5883   -42805.156    36.093934   0.97632119 
   12300    229.48131    216.99543    127828.02   -39943.442    2855.1838   -42798.626    36.272004   0.97704311 
   12400     231.0683   -25.404422    127883.78   -39917.928     2874.929   -42792.857    36.572441   0.97661712 
   12500    230.84071     35.91065    128127.51   -40020.108    2872.0972   -42892.205    36.629412   0.97475935 
   12600     235.3765    74.845865     128052.2   -39955.501    2928.5312   -42884.032    36.749045   0.97533264 
   12700    229.52465   -63.379563    128110.27   -39941.301     2855.723   -42797.024     36.86536   0.97489052 
   12800    232.40211   -206.42814    128192.77   -39892.809    2891.5241   -42784.333    37.122378   0.97426316 
   12900    233.02835   -25.099272    128158.23   -39930.235    2899.3157    -42829.55    37.236012   0.97452575 
   13000    230.45734   -105.52573    128002.49   -39860.753    2867.3274   -42728.081    37.591106   0.97571142 
   13100    228.36211    130.79684    127981.41   -39849.322    2841.2589   -42690.581    37.725252   0.97587214 
   13200    235.96989   -140.91572    128084.34   -39750.476     2935.914    -42686.39    37.846224   0.97508788 
   13300    236.12521   -171.00492    128036.39   -39794.966    2937.8466   -42732.813    38.060657   0.97545306 
   13400    233.96349   -122.43568    127925.35   -39888.881    2910.9507   -42799.831    38.407857   0.97629979 
   13500    230.49179    44.424133    127819.35     -39913.9    2867.7561   -42781.656    38.652198   0.97710946 
   13600     229.0032   -239.44052    127805.15   -39939.324    2849.2352   -42788.559    38.918193   0.97721795 
   13700    227.00106   -30.692787    127826.96   -39940.145    2824.3248    -42764.47    39.071544   0.97705128 
   13800    227.75159    194.30086    127947.36   -39842.845    2833.6627   -42676.508    39.325387   0.97613181 
   13900    228.59471   -115.11659    128067.11   -39881.936    2844.1528   -42726.089    39.407244   0.97521913 
   14000    233.66165   -45.494037     127880.2   -39881.176    2907.1952   -42788.372    39.644073   0.97664447 
   14100    228.90635   -54.587531    127967.12   -39908.156    2848.0301   -42756.186    40.051485   0.97598114 
   14200    230.03587    76.706888    128107.96   -39939.429    2862.0835   -42801.513    40.353378   0.97490816 
   14300    230.07262   -158.68435    128159.53   -39989.983    2862.5407   -42852.524    40.648144   0.97451586 
   14400    225.47836    40.925641    128132.21   -39963.595    2805.3794   -42768.974    41.093467   0.97472363 
   14500    231.21313   -8.4593398    128329.28   -39900.969    2876.7309     -42777.7    41.253824   0.97322677 
   14600    230.72972    -70.50697    128156.12   -39907.884    2870.7164   -42778.601    41.248397   0.97454173 
   14700    228.95439   -10.578742    128166.83   -39954.076    2848.6279   -42802.704    41.451735   0.97446031 
   14800    226.43684    206.82318    128316.62    -39984.08    2817.3047   -42801.385    41.969761   0.97332282 
   14900    222.31412   -48.297167    128484.98   -40059.093    2766.0103   -42825.103    42.323428   0.97204737 
   15000    227.02359    140.57035    128343.48   -40074.064    2824.6051   -42898.669    42.296313   0.97311912 
   15100    224.23806    4.9024305    128600.18     -40121.5    2789.9478   -42911.448    42.674842   0.97117663 
   15200    230.52937   -132.35914    128632.28   -40068.683    2868.2236   -42936.906    42.775178   0.97093431 
   15300    228.52218   -57.148822    128479.62   -40083.659    2843.2503   -42926.909    43.013257   0.97208796 
   15400    224.18358   -59.406354    128301.97   -40072.621    2789.2699   -42861.891    43.066612   0.97343394 
   15500    228.57414   -96.703655    128108.27   -40042.323    2843.8968    -42886.22    43.177777   0.97490577 
   15600    228.37889    41.956251    128108.56   -39984.063    2841.4676   -42825.531    43.725874   0.97490353 
   15700     223.3674   -101.60893     128042.5   -40074.823    2779.1151   -42853.938    43.954805   0.97540656 
   15800    225.03875   -42.166618    128047.95   -40064.186    2799.9098   -42864.096    44.018356   0.97536499 
   15900    222.49296   -200.13404    128122.24   -40097.984    2768.2354    -42866.22    44.487006   0.97479949 
   16000    226.40806     47.70948    128186.56   -40007.943    2816.9467    -42824.89    44.552742   0.97431033 
   16100    228.36296    -162.5605    128169.65   -39926.778    2841.2694   -42768.048    44.714898    0.9744389 
   16200    230.30455   -32.619967    128222.74   -39966.977    2865.4265   -42832.404     45.12555   0.97403545 
   16300    224.97224    18.197653    128454.34   -39995.568    2799.0823    -42794.65     45.36102   0.97227926 
   16400    231.77245    11.126353    128560.29   -39897.846      2883.69   -42781.536    45.416894   0.97147798 
   16500    232.48806    -40.80998    128408.32   -39904.414    2892.5935   -42797.007    45.688959   0.97262775 
   16600    231.19451   -18.893197    128563.97   -39893.112    2876.4993   -42769.612    46.254461   0.97145021 
   16700    229.00266   -25.524804    128655.12   -39926.605    2849.2284   -42775.833    46.449467   0.97076194 
   16800    232.09892   -256.35557    128543.29    -39895.98    2887.7518   -42783.732    46.700801   0.97160645 
   16900    227.44478   -134.74718    128312.55   -39843.582    2829.8454   -42673.427    46.838964   0.97335363 
   17000    233.66932   -225.96916    128302.91   -39852.951    2907.2906   -42760.242     47.06271   0.97342681 
   17100    235.42704    -100.3566    128230.67   -39782.851      2929.16   -42712.011    47.538307    0.9739752 
   17200    228.24558   -100.28211    128067.84   -39813.165     2839.809   -42652.974    47.972086   0.97521356 
   17300    230.94242    127.54395    128341.13   -39865.809    2873.3628   -42739.171    48.337782   0.97313692 
   17400    225.61154   -98.504918    128457.19    -39879.06    2807.0365   -42686.096    48.343533    0.9722577 
   17500    229.37773   -148.25527    128354.98   -39838.307     2853.895   -42692.202    48.518862   0.97303187 
   17600    229.91559   -31.540477    128428.97   -39801.305     2860.587   -42661.892    48.901431   0.97247136 
   17700    232.37842   -76.934769     128279.7   -39826.834    2891.2293   -42718.063    48.970346   0.97360294 
   17800    230.99155   -63.931208    128269.56   -39836.279    2873.9741   -42710.253    49.453998   0.97367987 
   17900    232.38033   -101.02631    128395.96   -39802.646     2891.253   -42693.899    49.826933   0.97272134 
   18000    233.84166    40.978316    128293.17   -39748.725    2909.4349    -42658.16    50.122112   0.97350067 
   18100    229.74581   -109.25287    128377.72   -39835.911    2858.4746   -42694.385    50.279314   0.97285956 
   18200     229.6348   -81.237088    128255.41   -39836.134    2857.0935   -42693.228    50.497476   0.97378729 
   18300    235.08978   -68.055591    128317.68   -39743.078    2924.9638   -42668.042     50.83153   0.97331473 
   18400    228.72701    24.196337    128343.89   -39799.377    2845.7989   -42645.176    50.886395   0.97311599 
   18500    228.27641      106.546    128439.83   -39752.697    2840.1925    -42592.89    51.258754   0.97238909 
   18600    231.91131    -210.7361     128307.1    -39814.71    2885.4176   -42700.127    51.387044   0.97339504 
   18700    231.69539   -154.74531    128130.59   -39774.338    2882.7311   -42657.069    51.750525   0.97473596 
   18800    232.95318    67.206129    128245.12   -39747.647    2898.3804   -42646.028    52.197771   0.97386547 
   18900    232.60453    43.476341     128070.8   -39788.469    2894.0425   -42682.512    52.537579   0.97519101 
   19000     229.2588    1.3905083    127935.67   -39777.469    2852.4153   -42629.884    52.798876   0.97622104 
   19100    230.71471    23.868341    127900.17    -39840.04    2870.5296    -42710.57    52.913366   0.97649203 
   19200    233.40733   -135.52547    127764.15   -39813.648    2904.0309   -42717.679    53.071492   0.97753154 
   19300    228.44188   -152.25367    128010.04   -39745.393    2842.2512   -42587.644    53.194354   0.97565388 
   19400    232.33629   -97.880046    127968.75   -39741.833    2890.7052   -42632.538    53.882087   0.97596866 
   19500    233.07687   -82.329716    127763.12   -39721.518    2899.9193   -42621.437    54.349869   0.97753948 
   19600    230.20548   -173.66168    127820.96   -39758.164    2864.1938   -42622.358    54.453071   0.97709712 
   19700    233.35175   -11.812508    127882.65    -39753.34    2903.3394   -42656.679    54.890036   0.97662577 
   19800    234.21074   -237.14783    127820.69   -39804.114    2914.0268    -42718.14    55.278037   0.97709917 
   19900    229.91428    51.174906    127716.87   -39832.806    2860.5708   -42693.377     55.25198   0.97789346 
   20000    231.19513   -8.8805836    127541.47   -39896.576    2876.5069   -42773.083    55.122312   0.97923828 
   20100    230.11701    99.966947    127656.91   -39849.506    2863.0931   -42712.599    55.477349   0.97835276 
   20200    226.91337   -211.98954    127779.31   -39894.239    2823.2337   -42717.472    55.993016   0.97741563 
   20300    227.32771   -38.661758    127836.39   -39928.373    2828.3889   -42756.762    56.361386   0.97697917 
   20400    224.82058   -68.053968    127811.85   -39923.279    2797.1955   -42720.475    56.835359   0.97716678 
   20500    230.66998    145.18856    127766.28   -39892.704    2869.9731   -42762.677    56.972264   0.97751526 
   20600    224.07754   -62.571128    127656.74   -39912.866    2787.9506   -42700.816    57.173679   0.97835408 
   20700    228.58687   -23.147349    127838.89   -39841.472    2844.0552   -42685.527    57.441494   0.97696009 
   20800    231.64317   -14.857831     127899.5   -39832.461    2882.0815   -42714.543    58.086856   0.97649711 
   20900       226.75   -181.55642    127859.97   -39859.417    2821.2011   -42680.618    58.653253   0.97679904 
   21000    224.61728    113.39794    127833.36   -39943.162     2794.666   -42737.828    58.994585    0.9770023 
   21100    226.22876    44.235386    127733.72   -39947.907    2814.7159   -42762.623     59.23672   0.97776445 
   21200    226.67513   -138.54457     127758.1   -39924.925    2820.2696   -42745.194    59.696905   0.97757788 
   21300    229.73812    48.532387    127774.34   -39926.541     2858.379    -42784.92     59.94643   0.97745359 
   21400    230.15441   -214.45254    127777.02   -39911.545    2863.5584   -42775.104    60.195954   0.97743313 
   21500    226.00341   -47.217757    127784.45   -39896.205     2811.912   -42708.117    60.517269   0.97737631 
   21600    229.93493   -9.3703211    127632.96   -39837.124    2860.8277   -42697.952     60.56653   0.97853634 
   21700    231.40938    8.3856542    127602.25   -39815.371    2879.1726   -42694.544    60.962548   0.97877185 
   21800    228.16981    173.82355    127402.75   -39803.502    2838.8662   -42642.368    61.038956   0.98030449 
   21900    232.09672   -175.96845    127228.82   -39824.214    2887.7245   -42711.939    61.164028   0.98164467 
   22000     227.7844   -143.36798    127240.78   -39857.883    2834.0709   -42691.954    61.376206   0.98155241 
   22100    230.08546    49.099344    127377.65   -39783.456    2862.7006   -42646.157    61.559161    0.9804977 
   22200    229.75174    140.23537    127378.08   -39806.992    2858.5485   -42665.541    61.804546   0.98049437 
   22300    229.78177    228.66555    127483.37   -39781.518    2858.9221   -42640.441    62.490611   0.97968458 
   22400    232.88554  -0.71765954     127560.2   -39750.237    2897.5389   -42647.776    62.763824    0.9790945 
   22500    231.54719    173.62198    127615.51   -39755.523    2880.8872    -42636.41    63.182601   0.97867017 
   22600    231.46908   -93.664288    127699.39   -39727.654    2879.9154   -42607.569    63.722822   0.97802732 
   22700    232.98596   -279.33606     127568.3   -39746.637    2898.7882   -42645.425    64.114896   0.97903232 
   22800    235.07892   -26.988542     127617.6   -39728.286    2924.8287   -42653.115    64.367905   0.97865412 
   22900    232.13416   -319.22562    127693.12   -39752.735    2888.1903   -42640.926    64.473582   0.97807536 
   23000    228.43364   -300.78299    127428.99   -39730.148    2842.1488   -42572.297    64.534772   0.98010267 
   23100    226.58166   -95.217245    127484.67    -39833.03    2819.1066   -42652.137    64.619976   0.97967457 
   23200    230.71751    27.548619    127471.57   -39772.695    2870.5645   -42643.259    65.212588   0.97977523 
   23300    226.34717    -67.28125    127415.37   -39817.871    2816.1891    -42634.06    65.877844   0.98020742 
   23400    234.32172   -177.21317    127392.95   -39746.558    2915.4076   -42661.965    66.071808   0.98037991 
   23500    231.37243     25.76458    127420.73   -39794.004    2878.7129   -42672.717    66.171338   0.98016621 
   23600    230.19252   -40.144409    127413.15   -39774.446    2864.0326   -42638.479    66.459232   0.98022449 
   23700    231.55224   -42.144791       127284   -39822.893    2880.9501   -42703.843      66.9329    0.9812191 
   23800    225.87112 -0.014772383    127380.06   -39882.534    2810.2662     -42692.8    67.590707   0.98047916 
   23900     229.0159   -57.782202    127333.62   -39893.166    2849.3932   -42742.559    67.944499   0.98083672 
   24000    228.65296   -181.22249    127318.81   -39820.936    2844.8776   -42665.813    68.409114   0.98095082 
   24100    229.64805    79.331617    127539.46   -39832.676    2857.2583   -42689.934    68.347895    0.9792537 
   24200    228.40211   -46.641548    127685.87   -39905.198    2841.7564   -42746.954     68.50646   0.97813088 
   24300    232.40476    49.564204    127578.22   -39883.361     2891.557   -42774.918    68.864693   0.97895621 
   24400    223.02998   -29.802557    127636.93   -39926.961     2774.917   -42701.878    69.144081   0.97850593 
   24500    227.33173    66.222176    127717.73    -39876.67    2828.4389   -42705.108    69.644415   0.97788688 
   24600    230.71433   -195.88332    127592.28   -39877.769    2870.5249   -42748.293    70.037826   0.97884837 
   24700    226.33265   -29.664623     127723.8     -39891.4    2816.0085   -42707.408     70.14985   0.97784041 
   24800    226.16222   -210.10412    127686.74   -39885.491     2813.888   -42699.379    70.428683   0.97812418 
   24900    232.60176    -172.0161    127582.55    -39834.58    2894.0081   -42728.588    70.605684   0.97892298 
   25000    231.98418   -86.214624    127408.33   -39820.533    2886.3242   -42706.857    70.916141   0.98026162 
   25100    231.66348    103.95862    127787.22    -39822.33    2882.3342   -42704.664     71.02097   0.97735514 
   25200    224.63437   -68.309007    127833.76   -39853.418    2794.8787   -42648.297    71.095009   0.97699927 
   25300    230.06218   -100.02327     127926.2   -39859.548    2862.4108   -42721.959    71.525953   0.97629328 
   25400    230.36437   -76.570979    127843.83   -39841.987    2866.1707   -42708.157    71.857334   0.97692234 
   25500    231.98957   -89.052876    127838.32   -39803.675    2886.3913   -42690.066    72.477278   0.97696447 
   25600     227.3667     3.842574    127864.16   -39907.843     2828.874   -42736.717    72.743473   0.97676703 
   25700    229.13353   -85.559998    127815.71   -39930.858    2850.8567   -42781.715    72.562294   0.97713724 
   25800    228.23766   -232.47364    127703.47   -39917.066    2839.7104   -42756.776    72.967943   0.97799606 
   25900    229.26492    200.79518    127949.49   -39872.154    2852.4914   -42724.645    73.465261   0.97611561 
   26000    235.78463    75.694318    128142.58   -39815.639    2933.6091   -42749.248    74.101527   0.97464471 
   26100    232.99706    78.717067    128201.08   -39932.015    2898.9264   -42830.942    74.204319   0.97420001 
   26200    232.21633    92.412683    128420.01   -39921.169    2889.2126   -42810.382    74.536094   0.97253917 
   26300     229.2197   -127.66064    128105.77   -39898.634    2851.9288   -42750.563      74.8182    0.9749248 
   26400    233.00248    95.960227     128172.3    -39886.37    2898.9938   -42785.363    74.845569   0.97441874 
   26500     233.1143   -164.50959    128238.17   -39939.673    2900.3851   -42840.058    74.919378   0.97391822 
   26600    225.64476   -66.852878    128254.34   -39993.401    2807.4498   -42800.851    75.246302   0.97379542 
   26700     225.5785   -53.265231    128147.95   -40007.891    2806.6253   -42814.517    75.479163   0.97460391 
   26800    230.60588   -61.718804    128315.63   -39942.568    2869.1755   -42811.743    75.683604   0.97333029 
   26900     228.9626   -115.09573    128388.83   -39942.862    2848.7301   -42791.592    76.039861    0.9727754 
   27000    232.99985   -281.61056    128273.51   -39991.242    2898.9611   -42890.203    76.265844   0.97364989 
   27100    226.75337   -1.5797648    128090.49   -39986.045     2821.243   -42807.288    76.296506   0.97504109 
   27200    231.36932   -97.951794    128110.36    -39979.83    2878.6742   -42858.504    76.659803   0.97488989 
   27300    227.21809   -49.188194    128052.49    -40000.11    2827.0251   -42827.135    76.923193   0.97533045 
   27400    231.77489   -244.65142    127871.68   -39954.994    2883.7202   -42838.714    77.046203   0.97670952 
   27500    231.59487    27.764935    128043.06   -39887.226    2881.4804   -42768.706    77.235088    0.9754023 
   27600    231.28319     154.7208    128054.18   -39924.073    2877.6026   -42801.675    77.815451    0.9753176 
   27700    229.56223    112.25633    128138.47   -39913.611    2856.1906   -42769.802    78.407195   0.97467601 
   27800    231.99263   -131.86042    128290.55   -39838.887    2886.4293   -42725.316    78.940249    0.9735206 
   27900    229.55875    106.40246    128459.58   -39865.871    2856.1473   -42722.018    79.394822   0.97223958 
   28000     234.2628   -64.081119    128342.56    -39909.32    2914.6746   -42823.994     79.44849   0.97312604 
   28100    230.07712    69.902663    128233.76   -39905.562    2862.5967   -42768.158     79.68854   0.97395175 
   28200    227.94027     6.978514    128257.02   -39947.094    2836.0104   -42783.104    79.859326   0.97377509 
   28300    228.73613   -200.48152    128458.08   -39936.637    2845.9123   -42782.549    80.147617   0.97225092 
   28400    228.82768   -60.827181    128241.48   -39982.728    2847.0514   -42829.779    80.204989   0.97389308 
   28500    227.56498    -80.96811    128073.36   -40004.935     2831.341   -42836.276    80.596752   0.97517147 
   28600    229.32724    59.167748    128078.18   -39975.768    2853.2669   -42829.035     80.76662   0.97513478 
   28700    227.13217    55.983301     128103.5   -39986.419     2825.956   -42812.375    81.176116   0.97494203 
   28800    229.21622   -50.826337    128237.53   -39953.178    2851.8855   -42805.063    81.893039   0.97392311 
   28900    229.16232   -302.03678    128134.86   -39903.777    2851.2149   -42754.992    82.072081   0.97470347 
   29000    226.23615   -102.99287     127985.2     -39971.1    2814.8078   -42785.908    82.015048   0.97584326 
   29100     229.8515   -82.450604    127964.43   -39907.498    2859.7896   -42767.288    82.597083    0.9760016 
   29200    230.30502   -9.3858681    127873.53   -39864.481    2865.4323   -42729.914     83.03852   0.97669543 
   29300    224.92704   -70.110878     127750.2   -39925.517      2798.52   -42724.037     83.44136   0.97763835 
   29400    227.39957   -108.32586    127646.89   -39982.892     2829.283   -42812.175    83.440958   0.97842955 
   29500    227.53678    3.1900054    127838.86   -40007.728    2830.9901   -42838.718    83.786208    0.9769603 
   29600    228.03063    200.92876    127876.07    -39920.05    2837.1345   -42757.185    84.052242     0.976676 
   29700    230.12188    51.966537    128026.29   -39957.653    2863.1537   -42820.807    84.369236   0.97553002 
   29800    231.30264    183.32481    127990.53   -39927.054    2877.8446   -42804.898    84.278177   0.97580263 
   29900    226.88369    -191.8359    127975.35   -39966.157    2822.8645   -42789.021    84.406091    0.9759183 
   30000    233.46428    65.607716    127718.19   -39937.429    2904.7395   -42842.168    84.650409   0.97788337 
   30100    229.61407    79.742111    127621.19   -39947.669    2856.8356   -42804.505    84.961212   0.97862661 
   30200    225.67785   -117.25744    127477.01   -39962.707    2807.8615   -42770.569    85.348128   0.97973344 
   30300    228.24784   -15.020442    127750.16   -39917.701    2839.8371   -42757.538    85.842777   0.97763859 
   30400    227.09357    1.9536585    127834.66   -39882.382    2825.4757   -42707.858    86.374539   0.97699242 
   30500    229.42019   -104.27369    127738.45   -39889.796    2854.4233   -42744.219    86.754158   0.97772821 
   30600    229.60384   -2.3391338    127803.73   -39880.158    2856.7082   -42736.866    87.134024   0.97722887 
   30700    231.98235   -142.14503    127962.18   -39891.591    2886.3015   -42777.892    87.251008   0.97601878 
   30800    236.92831   -189.47175     127949.3   -39857.709    2947.8386   -42805.547    87.317904   0.97611707 
   30900    229.56861   -63.056193     127919.1    -40006.37      2856.27    -42862.64     87.63729    0.9763475 
   31000    220.95654   -172.03787    127873.76   -40036.056    2749.1194   -42785.175    87.927887   0.97669369 
   31100    228.32568   -165.59944    127807.45   -40035.466    2840.8056   -42876.272    88.316673   0.97720037 
   31200    226.39438   -24.232889    127831.17   -40060.679    2816.7765   -42877.456    88.809769   0.97701908 
   31300    229.28938    57.106174    128132.61   -40025.887    2852.7958   -42878.683    89.168495   0.97472056 
   31400    233.05989   -39.407888    128192.53   -39988.351    2899.7081   -42888.059    89.062386     0.974265 
   31500    227.68824    -330.9233    128290.47   -40054.628    2832.8746   -42887.502    89.312985   0.97352121 
   31600    230.80308   -257.10334    128195.46   -39984.938    2871.6291   -42856.567    89.476068   0.97424266 
   31700    228.46583   -137.16895       128346    -40017.36    2842.5492   -42859.909    89.933723   0.97310001 
   31800    234.16528      21.2299    128586.86   -39941.188    2913.4613   -42854.649    90.405595   0.97127721 
   31900    229.48258    44.062834     128768.7   -39931.776    2855.1995   -42786.975    90.671326   0.96990569 
   32000    235.48208   -80.538241    128583.98   -39920.015    2929.8448    -42849.86    90.795129   0.97129902 
   32100    231.95079    117.34617       128568   -39936.657    2885.9088   -42822.566    91.066207   0.97141975 
   32200    233.60866     204.4185    128671.69   -39929.673    2906.5358   -42836.209    91.581375   0.97063693 
   32300    229.14895   -256.21727    128628.75   -39897.995    2851.0486   -42749.044    91.881791   0.97096096 
   32400    232.12291    11.990895    128456.85   -39976.248    2888.0503   -42864.299    92.029075   0.97226024 
   32500    231.97473    31.215592    128415.83   -39988.311    2886.2067   -42874.518    92.407257   0.97257087 
   32600    230.81377    113.54884    128216.22   -39913.522    2871.7622   -42785.284    92.499132   0.97408496 
   32700    229.99899   -336.49885    128102.65   -39969.871    2861.6247   -42831.495    92.589074   0.97494852 
   32800    222.43713   -160.09182    127850.83   -39982.727    2767.5407   -42750.268    92.681484   0.97686887 
   32900    226.03101   -348.67207    127913.35   -39962.992    2812.2555   -42775.248    92.892551   0.97639134 
   33000    226.23478    46.300077    127820.71   -40017.573    2814.7907   -42832.364    93.365061   0.97709904 
   33100     228.3076   -48.600527    127896.18   -39940.018    2840.5806   -42780.599    93.429033   0.97652249 
   33200    224.51052   -127.89735    127691.51   -39975.532    2793.3377   -42768.869    93.362423   0.97808771 
   33300    230.00809    45.423919    127968.61   -39896.129    2861.7379   -42757.866    94.078635   0.97596972 
   33400    224.54567   -26.589539    128101.83   -39980.219    2793.7751   -42773.994    94.200077   0.97495478 
   33500    232.02608   -113.17626    128288.86   -39948.261    2886.8455   -42835.107    94.608414    0.9735334 
   33600    228.85875   -237.98018    128297.77   -39927.263     2847.438   -42774.701    95.210998   0.97346581 
   33700    230.87174   -258.62787    127968.65   -39918.781    2872.4834   -42791.264    95.093103   0.97596946 
   33800    227.84648   -63.106433    128006.57   -39916.261    2834.8433   -42751.104    95.233237   0.97568035 
   33900    233.10188   -37.563803    127920.43   -39927.875    2900.2306   -42828.105    95.694659   0.97633733 
   34000    231.01607    108.22059    127824.05   -39877.117    2874.2791   -42751.396    95.696796   0.97707352 
   34100    233.25329    116.43715    127752.15   -39912.118    2902.1144   -42814.233     95.35518    0.9776234 
   34200    228.84088    105.18212    127956.48   -39919.935    2847.2156   -42767.151    95.573565   0.97606229 
   34300    228.60436   -145.73222    127864.99   -39977.462    2844.2728   -42821.734    95.640568   0.97676068 
   34400    227.43167   -213.78577    127991.14   -39896.699    2829.6823   -42726.381    95.903878   0.97579793 
   34500    228.99003   -30.822533    127780.64   -39911.275    2849.0713   -42760.347    95.945745   0.97740544 
   34600     229.7449   -130.99384    127917.23   -39889.665    2858.4633   -42748.128    96.180373   0.97636172 
   34700    224.60932   -80.126439    127704.93   -39963.571    2794.5669   -42758.138    96.511241   0.97798491 
   34800    225.26046   -148.10856    127696.76    -39952.29    2802.6684   -42754.958     97.10194   0.97804749 
   34900    229.52125   -22.698086    127707.01   -39966.187    2855.6807   -42821.867    96.985945   0.97796894 
   35000    227.03639    150.77738    127807.28   -40037.403    2824.7643   -42862.167    97.286458   0.97720169 
   35100    226.04281    -122.2496    127919.49   -39990.944    2812.4023   -42803.347    97.712519    0.9763445 
   35200     229.2425    50.977894    127754.08   -40001.805    2852.2126   -42854.017    97.931825   0.97760862 
   35300    229.55929    -171.3738    127796.84   -39991.647     2856.154   -42847.801    98.051048    0.9772815 
   35400    228.01938     54.08835    127954.22   -40016.474    2836.9946   -42853.469    98.479062   0.97607951 
   35500    233.01539   -95.687391    128158.18    -39916.86    2899.1544   -42816.014    99.270557   0.97452607 
   35600    229.32268    30.106197    128047.48   -39972.062    2853.2102   -42825.273    99.317181   0.97536863 
   35700    231.28471   -136.42362     128149.6    -39941.81    2877.6215   -42819.432    99.778918   0.97459132 
   35800    233.18113   -168.76131    128157.09   -39977.474    2901.2165    -42878.69    100.09019   0.97453441 
   35900    234.05206    77.527674     127931.9    -39943.46    2912.0526   -42855.512    100.06014   0.97624979 
   36000    236.30824   -40.868413    128173.86   -39907.277    2940.1237   -42847.401    100.32105   0.97440687 
   36100    233.12861   -71.066141    128361.84   -39941.783    2900.5631   -42842.346    100.66756   0.97297988 
   36200    228.56823   -33.422875    128223.04   -39964.082    2843.8234   -42807.906    100.54434   0.97403316 
   36300    228.79626   -81.089198    128191.25   -40022.408    2846.6604   -42869.069    100.96763   0.97427468 
   36400    230.81043   0.66558542    128316.37    -39960.58    2871.7206   -42832.301    101.35724   0.97332469 
   36500    229.77674    -210.1802    128219.94   -39947.331    2858.8595   -42806.191    101.30225    0.9740567 
   36600    224.90077    68.916535    128275.27   -40065.562    2798.1931   -42863.755    101.78196   0.97363657 
   36700    232.71767    19.980672     128217.3   -40011.725    2895.4502   -42907.175    102.14928   0.97407673 
   36800    229.05386   -116.31714    128297.74   -40006.147    2849.8654   -42856.012    102.51967     0.973466 
   36900     227.2866   -107.21001    128299.19   -40035.573    2827.8774    -42863.45     102.8428     0.973455 
   37000    231.20789    108.54818     128197.8   -39963.255    2876.6657   -42839.921    103.18941   0.97422492 
   37100    231.08704   -142.05137    128342.54   -39943.725    2875.1621   -42818.887    103.44087   0.97312625 
   37200    228.22028   -263.32743    128538.92   -39990.818    2839.4942   -42830.313    104.07421    0.9716395 
   37300    229.96456   -15.610149    128383.86   -39980.896    2861.1964   -42842.092    104.33767   0.97281304 
   37400     227.4257   -0.8094723    128340.76   -39988.107    2829.6081   -42817.715    104.63853   0.97313973 
   37500    223.74808   -213.41069    128424.86   -39988.822    2783.8515   -42772.674    105.04137   0.97250247 
   37600    226.60482   -99.597521    128356.65   -39934.889    2819.3948   -42754.284    105.52951   0.97301925 
   37700    232.15901   -52.080233    128315.01   -39933.915    2888.4994   -42822.415    105.66953   0.97333499 
   37800    228.09129    76.410273    128444.75   -40036.263    2837.8893   -42874.153     106.1013   0.97235188 
   37900    225.70271   -186.75191     128512.5   -40003.841    2808.1709   -42812.012    106.26919   0.97183924 
   38000    229.07247   -7.1848279    128274.12   -39989.679    2850.0971   -42839.776    105.90353   0.97364526 
   38100    233.50042     152.2842    128252.94   -39947.069    2905.1891   -42852.258     106.3245   0.97380609 
   38200    228.04406   -96.594671    128269.01   -39958.713    2837.3016   -42796.015    107.06821   0.97368408 
   38300    236.80479   -57.283499    128253.33   -39903.666    2946.3017   -42849.968    107.26048   0.97380308 
   38400    228.45173   -51.992626    128226.09   -39971.265    2842.3738   -42813.639    107.22816   0.97400994 
   38500    227.97227    4.1899958    128111.68   -39998.332    2836.4085    -42834.74    107.58318   0.97487984 
   38600    232.21983   -23.032836    128353.74   -39947.454    2889.2562    -42836.71    107.80713   0.97304134 
   38700    230.71191   -136.52774    128213.11   -39967.127    2870.4948   -42837.622    108.07897   0.97410862 
   38800    229.00961   -72.145545    128171.29   -39968.329    2849.3149   -42817.644    108.27411   0.97442646 
   38900    229.64332    -235.5415    128047.53   -39916.522    2857.1994   -42773.722    108.26721   0.97536825 
   39000    230.24822    104.40853       127915   -39963.441    2864.7255   -42828.167    108.80651   0.97637881 
   39100    234.98639    -9.169835    128138.58   -39927.644    2923.6775   -42851.321    109.24321   0.97467519 
   39200    232.61872   -31.658303    128197.31   -39967.374    2894.2191   -42861.593      109.458   0.97422863 
   39300    229.48787   -78.290046    128067.88   -39956.259    2855.2654   -42811.524    109.73802   0.97521321 
   39400    232.51687    91.434523    128064.22   -39928.877    2892.9519   -42821.829    109.81968   0.97524114 
   39500    232.72107     145.9581    128124.55   -39901.212    2895.4925   -42796.704    110.23681   0.97478187 
   39600    232.28237   -54.063301    128251.39   -39944.509    2890.0342   -42834.543    110.84714   0.97381786 
   39700    234.08045    152.56243    128321.99   -39891.947    2912.4058   -42804.353    111.22033   0.97328204 
   39800    239.96863   -90.894092    128412.13    -39981.77     2985.666   -42967.436    111.55594   0.97259888 
   39900     228.7457   -45.164202    128369.73   -40040.571    2846.0314   -42886.603    111.78759   0.97292011 
   40000    224.03498    137.71326    128385.11   -40076.609    2787.4211    -42864.03    111.77274   0.97280356 
   40100    230.21974   -89.808722    128230.06   -39979.942    2864.3712   -42844.313    112.08984   0.97397982 
   40200    231.54934   -23.254112    128401.22   -40003.695     2880.914   -42884.609    112.33614   0.97268154 
   40300     229.0856    107.50384    128618.07   -39985.455    2850.2604   -42835.716    112.91548   0.97104157 
   40400     234.9185   -118.52928    128657.77   -39907.376    2922.8328   -42830.208      113.171   0.97074191 
   40500    229.21161    46.850868    128559.64   -39927.638    2851.8282   -42779.466    113.17479    0.9714829 
   40600     230.6211   -211.62774    128585.33   -39955.791    2869.3649   -42825.156    113.06799   0.97128881 
   40700    229.63614    92.830779     128520.3    -39988.78    2857.1101    -42845.89    113.44668   0.97178024 
   40800    229.70681   -37.728776    128641.18   -40035.606    2857.9894   -42893.596    114.12314    0.9708671 
   40900    228.76471    65.913184       128500   -40062.027    2846.2679   -42908.295    114.35184   0.97193379 
   41000    229.45661    55.285298    128804.54   -39983.458    2854.8765   -42838.335    115.07625   0.96963581 
   41100     234.6483    -93.88321    128805.98   -39975.508    2919.4709   -42894.979    115.32574   0.96962491 
   41200    228.55044    35.331366    128965.94   -40000.443     2843.602   -42844.045    115.69899    0.9684223 
   41300    225.53195   -66.293417    129233.34   -40178.382    2806.0462   -42984.429    116.01029   0.96641851 
   41400    224.43685   -36.551294    129029.98    -40122.19    2792.4211   -42914.611    115.94693   0.96794161 
   41500    226.38441   -121.11097    129001.07   -40110.547    2816.6524     -42927.2    115.93015   0.96815857 
   41600    223.67253   -62.226717    129110.33   -40085.836    2782.9115   -42868.747     116.2523   0.96733929 
   41700    229.54565   -205.43506     129122.1   -40063.739    2855.9843   -42919.723    116.95555   0.96725107 
   41800    228.83545     50.97288    129310.77   -40086.323     2847.148   -42933.471    117.07622   0.96583979 
   41900    228.57252   -120.12388    129238.32   -40057.603    2843.8767    -42901.48    116.92826   0.96638129 
   42000    231.27798    -134.0743    128940.83   -40044.625    2877.5377   -42922.163    116.71011   0.96861088 
   42100    231.17833    29.974297    129048.21   -40036.183    2876.2979   -42912.481    117.00215   0.96780489 
   42200    231.13543   -65.000022    128868.47   -39993.817    2875.7642   -42869.581     116.9173   0.96915478 
   42300     233.8959   -71.246304    128858.11   -39982.378    2910.1096   -42892.487    117.13127   0.96923264 
   42400    232.00994   -110.82531    128809.93   -40033.884    2886.6448   -42920.528    117.53631   0.96959521 
   42500    230.59494   -212.42452    129085.48   -40024.313    2869.0395   -42893.352    117.89644   0.96752545 
   42600    231.74572   -240.97322     128893.5   -40016.171    2883.3573   -42899.529    118.11211   0.96896659 
   42700    227.85546    27.390389    128853.67   -40009.958    2834.9551   -42844.913    118.34383   0.96926611 
   42800    232.05669   -346.72839     128891.7   -39951.248    2887.2264   -42838.475    118.40231   0.96898011 
   42900     231.4922   -196.67082    128777.82   -40023.448    2880.2031   -42903.652     119.1746   0.96983694 
   43000    227.62313   -65.102498    128523.86   -40043.917    2832.0645   -42875.982    119.37668   0.97175337 
   43100    227.33436   -283.32974    128424.96   -40016.003    2828.4716   -42844.474    119.73854   0.97250173 
   43200    233.26783    40.061107    128540.55   -39971.369    2902.2953   -42873.665    119.91403   0.97162714 
   43300      228.338     -63.2208    128547.69   -39986.158    2840.9588   -42827.117    119.57812   0.97157321 
   43400    233.51781    112.15113    128765.94   -39947.183    2905.4055   -42852.588    119.87505   0.96992644 
   43500    230.47274   -93.432283    128725.63   -39962.391     2867.519    -42829.91    120.23568   0.97023021 
   43600    233.27573   -3.0602067    128852.43   -39871.037    2902.3935   -42773.431    120.60765   0.96927538 
   43700     232.4513   -113.56296    128500.36   -39897.244    2892.1361    -42789.38    120.94128   0.97193104 
   43800    228.49852   -56.261338    128526.98   -39871.561     2842.956   -42714.517    121.32878   0.97172975 
   43900    226.79797    49.545036    128555.79   -39912.066    2821.7979   -42733.864    121.78705   0.97151197 
   44000    227.13911   -320.45514     128528.5   -39933.387    2826.0424   -42759.429    122.34044   0.97171823 
   44100    231.29124    147.65371    128398.01   -39948.146    2877.7027   -42825.849      122.632   0.97270585 
   44200    228.48152   -88.717388    128403.11   -39969.357    2842.7445   -42812.101    122.75258    0.9726672 
   44300    230.38677   -170.52509    128450.38   -39961.661    2866.4494   -42828.111    122.68975   0.97230921 
   44400    231.59682   -14.303572    128251.41   -39934.455    2881.5048   -42815.959    122.95239   0.97381769 
   44500    226.39697   -109.34749    128202.45   -39961.637    2816.8087   -42778.446    123.09754    0.9741896 
   44600    225.67009   -43.392329    128279.66    -40011.65     2807.765   -42819.415    123.20923   0.97360322 
   44700    226.61418    47.726879       128197   -39981.069    2819.5113    -42800.58    123.63021   0.97423099 
   44800    226.16715   -92.792918    128118.58   -39947.503    2813.9493   -42761.452    123.61069    0.9748273 
   44900    228.29401   -181.68144    128158.66    -39892.51    2840.4115   -42732.922     123.8128   0.97452247 
   45000    226.56546   -65.709165    128011.84   -39877.812     2818.905   -42696.717    123.75364   0.97564017 
   45100    230.49593  -0.15657319    128226.15   -39811.084    2867.8076   -42678.891    124.16512   0.97400951 
   45200    226.49109   -92.136945     128078.6   -39866.469    2817.9798   -42684.449    124.62408   0.97513163 
   45300    228.97325    37.549167    128035.11   -39880.046    2848.8625   -42728.908     124.6321   0.97546282 
   45400    228.37097    99.907875    128073.68   -39835.364    2841.3691   -42676.733    125.17303   0.97516903 
   45500    231.90078      27.0181    128055.27   -39834.675    2885.2866   -42719.962    125.68779   0.97530926 
   45600    234.00487   -33.714422    127970.43   -39831.768    2911.4655   -42743.233    126.07411   0.97595583 
   45700    231.21751   -50.626114    127778.68   -39862.863    2876.7855   -42739.648    126.18149   0.97742043 
   45800    237.41592    141.93928    127967.04    -39824.48    2953.9054   -42778.385    126.95798   0.97598168 
   45900    234.06993   -85.675746    127984.34   -39786.854    2912.2749   -42699.129    127.38037    0.9758498 
   46000    232.78412    52.372203     127805.3   -39782.247     2896.277   -42678.524    127.70274   0.97721687 
   46100    231.46194   -38.688204    128045.95   -39712.544    2879.8266   -42592.371    127.92691   0.97538029 
   46200    236.11056    44.513693    128164.18   -39701.603    2937.6642   -42639.268    128.40061   0.97448045 
   46300    234.93672   -205.19089     128270.9   -39713.896    2923.0594   -42636.955    128.69647   0.97366972 
   46400    236.90397    -366.1567    128057.49   -39757.265    2947.5358   -42704.801    128.56547   0.97529235 
   46500    229.38983   -251.26214    127823.56   -39761.091    2854.0456   -42615.136    128.98671   0.97707722 
   46600    233.54149   -22.978574     127709.5   -39735.185    2905.7001   -42640.885    129.14177   0.97794988 
   46700    229.65413    100.93336    127762.25   -39816.938     2857.334   -42674.272    129.63146   0.97754608 
   46800    227.51442   -165.39369    127848.45    -39873.38     2830.712   -42704.092    129.67459   0.97688704 
   46900    233.86413   -60.899997    128152.49   -39799.698    2909.7144   -42709.413    130.23934    0.9745694 
   47000    235.42257    -99.13399    128023.08   -39778.185    2929.1043   -42707.289    130.04533   0.97555453 
   47100    233.18876   -124.70092    128129.65   -39742.532    2901.3115   -42643.844    130.68318   0.97474311 
   47200    231.77485   -145.04604    127971.52   -39801.712    2883.7197   -42685.432    131.05665   0.97594758 
   47300    228.28634   -78.275999    127995.31   -39838.393     2840.316   -42678.709    131.60314   0.97576618 
   47400    232.58055    50.376323    127843.53   -39797.656    2893.7443     -42691.4    131.72234    0.9769246 
   47500    237.09251   -185.04216    127926.76   -39747.695    2949.8815   -42697.577    131.53617   0.97628902 
   47600    233.14263   -327.09295    127930.66   -39725.367    2900.7375   -42626.105    131.91049   0.97625923 
   47700      230.777   -5.3612105    128058.18   -39771.267    2871.3046   -42642.572     132.5546   0.97528707 
   47800     233.2329   -164.44084    128039.22   -39776.877    2901.8607   -42678.738    132.59371   0.97543149 
   47900    228.00616   -294.33118    127682.73   -39872.964    2836.8301   -42709.794    132.80449   0.97815491 
   48000     226.9428    53.695139    127577.09    -39902.47    2823.5998    -42726.07     133.0676   0.97896488 
   48100    224.86322    69.589089    127498.78   -39853.179    2797.7259   -42650.905     133.2697   0.97956616 
   48200    226.26864   -77.624293    127529.65   -39884.768     2815.212    -42699.98    133.50326   0.97932903 
   48300     227.1769   -50.553387    127578.63    -39850.92    2826.5125   -42677.432    133.92391   0.97895303 
   48400    235.60588   -37.215643    127481.06   -39746.113    2931.3851   -42677.498    133.62429   0.97970233 
   48500    232.42762   -184.13769    127602.86   -39813.264    2891.8415   -42705.105    134.24548    0.9787672 
   48600    230.86817   -225.76604    127671.35   -39816.187    2872.4389   -42688.626    134.50097   0.97824209 
   48700    232.55846    24.966259    127383.36   -39781.964    2893.4694   -42675.433    134.54867   0.98045372 
   48800    232.00685    -221.5905    127315.19   -39806.259    2886.6063   -42692.865    134.56143   0.98097869 
   48900    230.11868   -231.69618    127361.16   -39802.997    2863.1138    -42666.11    135.21698   0.98062462 
   49000    227.40908   -75.578823    127495.94   -39844.034    2829.4013   -42673.436     135.5575   0.97958803 
   49100    230.11887    188.21213    127648.76   -39842.669    2863.1163   -42705.785    135.95529   0.97841527 
   49200    226.16382   -261.31496    127585.19   -39864.661    2813.9079   -42678.569    135.82779   0.97890272 
   49300    229.80026   -324.92298    127647.61   -39813.238    2859.1522    -42672.39    136.33736   0.97842403 
   49400    231.93743    97.230897    127551.77   -39792.752    2885.7425   -42678.494     137.0298    0.9791592 
   49500    231.09031   -120.36499    127532.67   -39792.371    2875.2028   -42667.574    137.28811   0.97930586 
   49600     233.5529   -81.632182    127592.96   -39794.755    2905.8421   -42700.597    137.79458   0.97884314 
   49700    232.23313    -81.15778    127701.27   -39811.743    2889.4217   -42701.164    138.39707   0.97801294 
   49800    227.67619   -179.04717    127885.95   -39867.641    2832.7246   -42700.365    138.79117   0.97660055 
   49900    230.17294   -15.956593     127720.3   -39752.969     2863.789   -42616.758    139.06196   0.97786717 
   50000    231.41164   -96.000904    127683.21   -39781.685    2879.2008   -42660.886    139.46049   0.97815125 
   50100    231.94278   -75.071035    127983.91    -39794.24    2885.8091   -42680.049    140.12537   0.97585305 
   50200    230.04543   -30.543605    127993.39   -39841.296    2862.2026   -42703.498    140.87674   0.97578079 
   50300    231.61638    119.18681    128118.54   -39815.784    2881.7482   -42697.532    141.15373   0.97482762 
   50400     229.7562     186.8749    128234.12    -39844.37    2858.6039   -42702.974    141.84505   0.97394898 
   50500    227.55082   -312.46586    128057.32   -39897.695    2831.1648    -42728.86    142.20083   0.97529365 
   50600     226.3109     175.7797    128104.34   -39904.353    2815.7379   -42720.091    142.22137   0.97493566 
   50700    229.66171    113.76801     128047.4   -39923.462    2857.4283   -42780.891    141.86453   0.97536918 
   50800    226.73527   -85.170787    127984.79   -39929.857    2821.0178   -42750.875    142.37698   0.97584633 
   50900    230.59629    141.30924    127794.61   -39854.478    2869.0563   -42723.534    142.60501    0.9772986 
   51000    230.54051   -244.54136    127554.72   -39892.935    2868.3623   -42761.297    142.79178   0.97913658 
   51100    226.27081    58.646163    127508.17   -39916.316     2815.239   -42731.555    143.38216   0.97949404 
   51200    229.02396    -51.92635     127458.8   -39892.019    2849.4935   -42741.513     143.8975   0.97987342 
   51300     229.1173   -40.598487    127408.11   -39963.237    2850.6548   -42813.892    143.61214   0.98026326 
   51400    227.69745    17.865044    127547.46   -39961.709    2832.9892   -42794.698     143.9728   0.97919232 
   51500    230.78996   -72.281752    127546.02   -39943.111    2871.4658   -42814.577    144.06123   0.97920333 
   51600     227.2535   -178.44925    127538.15   -39875.155    2827.4656    -42702.62    143.95916   0.97926376 
   51700    231.87778    70.141038    127635.24   -39862.979    2885.0004    -42747.98    144.20454   0.97851888 
   51800    228.89049   -83.079603    127742.67   -39888.563    2847.8329   -42736.396    144.62571   0.97769597 
   51900    226.61948   -244.89309    127617.83   -39932.178    2819.5772   -42751.755    144.57658   0.97865236 
   52000    228.16205   -241.99599    127479.67    -39956.79    2838.7696    -42795.56    144.64702   0.97971305 
   52100    226.17971    97.816039    127510.16    -39904.05    2814.1056   -42718.155    144.81767   0.97947876 
   52200    228.83269    44.169524    127612.51   -39934.034    2847.1137   -42781.147    145.20607   0.97869314 
   52300    227.67868   -101.70047    127574.45   -39921.653    2832.7556   -42754.409    146.11569   0.97898512 
   52400    228.47879    38.905866    127682.01   -39856.193    2842.7105   -42698.903    146.76212   0.97816041 
   52500    231.22553    1.3076931    127812.98   -39859.612    2876.8852   -42736.497    147.03986   0.97715813 
   52600     229.7563     39.79947    127765.98   -39889.212    2858.6052   -42747.818    147.23328   0.97751756 
   52700    227.93085   -96.682711    127791.67   -39905.835    2835.8931   -42741.728    147.50819   0.97732105 
   52800    229.37375   -44.864377    127739.09   -39851.988    2853.8456   -42705.833    147.68279   0.97772337 
   52900    230.28958    108.62963    127639.54   -39832.933    2865.2402   -42698.173    147.66539   0.97848587 
   53000    233.28682   -56.333526    127797.95   -39803.739    2902.5315    -42706.27    148.00207   0.97727301 
   53100    229.42016   -82.844658       127758   -39858.545    2854.4229   -42712.968    148.12638   0.97757861 
   53200    228.77478   -42.783114    127884.43   -39844.334    2846.3932   -42690.727    148.46085   0.97661217 
   53300     232.5223   -90.131475    127764.53    -39844.42    2893.0195    -42737.44    148.29898   0.97752871 
   53400    225.50402     138.9423    127858.76   -39935.796    2805.6988   -42741.495    149.01228   0.97680826 
   53500    228.15483   -44.082149    127981.23   -39940.916    2838.6799   -42779.596     149.3992   0.97587347 
   53600    229.25035   -74.576311    128043.36    -39957.85    2852.3102    -42810.16    149.71924       0.9754 
   53700    226.76833   -1.5090663    127953.06   -39999.416    2821.4291   -42820.845    149.82251   0.97608834 
   53800    229.63926   -14.179668     128091.7   -39891.991     2857.149    -42749.14    150.03988   0.97503188 
   53900    235.05272    113.84567    128071.01   -39947.823    2924.5027   -42872.326    150.24239    0.9751894 
   54000    229.46512   -112.65494    128146.44   -39912.388    2854.9823    -42767.37    150.76965   0.97461536 
   54100    230.20178   -96.343795    128024.45   -39927.548    2864.1477   -42791.696    151.09157   0.97554407 
   54200    230.06716   -311.29447    127797.22   -39908.335    2862.4729   -42770.808    151.48787   0.97727861 
   54300    231.22523    -50.81243    127971.18   -39890.015    2876.8814   -42766.897    152.08272   0.97595014 
   54400    228.59853   -186.23945     128278.9   -39929.324    2844.2003   -42773.525    152.65652   0.97360902 
   54500    228.01654   -23.697275    128249.46   -39902.632    2836.9592   -42739.591    153.35955   0.97383251 
   54600    232.49462    1.3963093    128173.11    -39811.05    2892.6751   -42703.725    153.65536   0.97441255 
   54700    231.41702    120.15471     127939.2   -39826.968    2879.2677   -42706.236    153.53824   0.97619412 
   54800    229.08943   -63.093254    127842.33   -39886.632    2850.3081    -42736.94    153.89302   0.97693378 
   54900    227.30431   -432.35381    127799.75   -39935.125    2828.0977   -42763.223    154.60331   0.97725924 
   55000    227.29737   -94.907379    127744.56   -40008.928    2828.0114   -42836.939    155.00493   0.97768149 
   55100    226.14064    48.777379    127783.87   -39968.618    2813.6194   -42782.238    155.03748    0.9773807 
   55200    228.62224    14.828062     127965.2   -39990.615    2844.4953    -42835.11    155.24543   0.97599575 
   55300    230.54371   -214.94977     127892.4   -39939.062    2868.4021   -42807.465    154.95677   0.97655134 
   55400    231.02843   -62.738265    127802.71   -39908.439    2874.4328   -42782.872    154.59994   0.97723667 
   55500    231.22061   -231.45843    127666.05    -39855.99     2876.824   -42732.814    154.90316   0.97828276 
   55600    227.95585   -71.109374    127712.24   -39898.465    2836.2042    -42734.67    155.43663   0.97792889 
   55700    231.36329   -143.28544    127533.32   -39908.082    2878.5992   -42786.681    155.54186   0.97930085 
   55800    230.96882   -108.83461    127490.74   -39906.212    2873.6912   -42779.903    155.72761   0.97962797 
   55900    230.64741    55.469522    127593.32   -39856.235    2869.6923   -42725.928    155.76272   0.97884034 
   56000    231.64394   -135.27285    127738.67   -39825.619     2882.091    -42707.71    156.39753   0.97772659 
   56100    233.16048    68.880261    127694.94   -39792.083    2900.9597   -42693.042    156.83375   0.97806137 
   56200    229.24027   -114.09378    127736.08   -39784.265    2852.1848    -42636.45    157.11796   0.97774642 
   56300    226.37406    -18.03906    127919.55   -39804.299    2816.5237   -42620.822     157.8034   0.97634404 
   56400    234.42932   -97.462339    127937.09   -39777.383    2916.7464    -42694.13    157.93341   0.97621022 
   56500    226.04278    -209.0569    127677.23   -39858.581     2812.402   -42670.983    158.08198   0.97819705 
   56600    227.71742   -59.392399    127501.29   -39866.493    2833.2376   -42699.731    158.68861   0.97954685 
   56700    226.42348   -313.91656    127275.96   -39893.915    2817.1385   -42711.053    158.85703   0.98128109 
   56800    233.11656   -55.669428    127529.58   -39806.769    2900.4132   -42707.182    159.27735   0.97932958 
   56900    227.99609    61.712319    127555.27   -39806.508    2836.7049   -42643.212     159.6627   0.97913236 
   57000    231.80299   -74.705834    127514.48   -39756.474    2884.0699   -42640.544    159.65254   0.97944555 
   57100    232.23743    133.42636    127615.31   -39829.303    2889.4752   -42718.778    159.87481   0.97867165 
   57200    229.57412   -174.65593    127767.21   -39876.778    2856.3386   -42733.117    159.91489    0.9775082 
   57300    222.79321   -101.25343    127859.23   -39934.053    2771.9711   -42706.024    160.42049   0.97680463 
   57400     225.0201   -176.43916     127839.5   -39945.033    2799.6778   -42744.711     160.8772   0.97695539 
   57500    227.35859   -3.9071334    127649.66   -39990.749    2828.7731   -42819.522    161.30287   0.97840834 
   57600    224.06482   -98.861328    127564.29   -39941.836    2787.7923   -42729.628    161.43991   0.97906312 
   57700     225.1387    14.274749    127688.23   -39988.756    2801.1535    -42789.91    162.19193   0.97811276 
   57800    225.80035    11.122809    127803.19   -40026.534    2809.3857    -42835.92    162.72136   0.97723297 
   57900    222.55115    26.012492    127801.44   -39993.603    2768.9594   -42762.562    162.90254   0.97724633 
   58000    224.33134    12.479934    127729.78   -39998.824    2791.1084   -42789.932    163.33483   0.97779461 
   58100    230.09079    137.60763    127753.89   -39926.011    2862.7668   -42788.778    163.40966   0.97761009 
   58200    230.18804   -25.748093    128052.92   -39870.401    2863.9769   -42734.377    164.11073   0.97532713 
   58300    231.81125   -49.976902    128040.19   -39787.906    2884.1726   -42672.079     164.5099   0.97542411 
   58400    231.59225   -55.156932    128072.51   -39784.662    2881.4479    -42666.11    164.83293     0.975178 
   58500    231.86213   -120.84523    128036.29    -39793.37    2884.8057   -42678.176    165.25184   0.97545382 
   58600    232.04316    6.1331438    127985.48   -39749.317     2887.058   -42636.375    165.09918   0.97584112 
   58700    231.41433   -84.131033    128013.93   -39765.151    2879.2342   -42644.385    165.93896   0.97562422 
   58800    233.34361    94.815037     128005.5   -39828.875    2903.2382   -42732.113    166.00192   0.97568849 
   58900    226.74113     -6.38115    128093.03   -39862.389    2821.0907   -42683.479    166.57403   0.97502176 
   59000    229.90055   -320.39627    127978.64   -39848.348    2860.3999   -42708.748    166.32655   0.97589322 
   59100    231.97791    42.176336    127874.83   -39852.315    2886.2462   -42738.562    166.67315   0.97668553 
   59200    230.19222   -21.366301    127799.95   -39870.735    2864.0288   -42734.764    166.89793   0.97725776 
   59300    229.49693   -183.93575    127628.66   -39866.761    2855.3781   -42722.139    167.06614   0.97856934 
   59400     224.4531    -54.33468    127707.42   -39924.233    2792.6233   -42716.857    167.45914   0.97796582 
   59500    228.10522   -22.896372    127835.87   -39898.114    2838.0626   -42736.176    167.94284   0.97698315 
   59600     225.3781    46.386862    127729.27   -39895.943     2804.132   -42700.075    168.15172   0.97779851 
   59700    228.62147   -109.04667     127781.6   -39914.061    2844.4858   -42758.547    168.28117    0.9773981 
   59800    232.01115   -175.60302    127771.36   -39899.659    2886.6597   -42786.319    169.01065   0.97747638 
   59900    233.23095   -121.26071    127704.55   -39868.737    2901.8365   -42770.574     169.2267   0.97798779 
   60000    227.72363   -118.61214    127599.46   -39908.399     2833.315   -42741.714    169.43253   0.97879325 
   60100    227.43477   -108.77757    127264.49   -39865.429    2829.7209   -42695.149    169.53843   0.98136953 
   60200      231.517    54.149356    127473.83   -39842.061    2880.5117   -42722.573    169.98103   0.97975788 
   60300    229.22303   -145.25051    127477.52   -39812.659    2851.9703   -42664.629    170.28005    0.9797295 
   60400    231.55863   -112.40154    127386.25    -39763.77    2881.0296     -42644.8    170.35141   0.98043151 
   60500    231.23106   -212.64542    127254.82   -39787.734    2876.9539   -42664.688    170.11336   0.98144408 
   60600    232.29971   -15.395208    127406.86   -39844.163      2890.25   -42734.413    169.86915   0.98027289 
   60700    225.28079   -174.89459    127431.06   -39862.608    2802.9213   -42665.529    170.34963   0.98008677 
   60800    235.36564    -19.45237     127455.3   -39824.772    2928.3961   -42753.168    170.18345    0.9799003 
   60900    226.80191   -45.880153     127564.8   -39836.286    2821.8469   -42658.133    170.77686   0.97905923 
   61000    230.53216   -62.578592    127611.33    -39869.12    2868.2583   -42737.379    171.45023   0.97870223 
   61100    230.09883   -110.96839    127509.39   -39928.676    2862.8669   -42791.543     171.3083   0.97948466 
   61200    225.58031   -85.885164    127427.78   -39939.397    2806.6479   -42746.045    171.79758   0.98011197 
   61300    226.67815   -22.884744    127490.64   -39908.577    2820.3071   -42728.884    172.01004    0.9796287 
   61400    227.45569   -205.19917    127555.31     -39932.9    2829.9812   -42762.881    172.05364   0.97913202 
   61500    228.48766   -30.658175     127581.6   -39928.486    2842.8209   -42771.307    172.34122   0.97893029 
   61600    229.99597    -142.3439    127481.39   -39888.309    2861.5871   -42749.896    172.48099   0.97969978 
   61700    229.09132    24.868703     127546.2   -39967.238    2850.3316   -42817.569    172.88242   0.97920195 
   61800    225.81312   -4.7939747    127580.19   -40039.673    2809.5445   -42849.218    172.64378   0.97894107 
   61900    226.83684   -101.22946    127670.03   -39981.928    2822.2815    -42804.21    172.83609   0.97825222 
   62000    229.48331   -174.13052    127782.97   -39940.059    2855.2086   -42795.268    172.78714   0.97738759 
   62100    228.92359    25.965406    127787.91   -39962.471    2848.2447   -42810.715    173.12861    0.9773498 
   62200    229.64154   -76.749122    127943.28   -39902.086    2857.1774   -42759.264    173.71469   0.97616297 
   62300    226.57371   -116.10101    127772.17   -39946.013    2819.0077   -42765.021    173.71057   0.97747022 
   62400    229.56311   -111.78751    127588.78   -39875.331    2856.2016   -42731.532    173.70024   0.97887519 
   62500    231.34214   -79.986054    127588.33   -39869.271     2878.336   -42747.607    174.12412   0.97887863 
   62600    229.49972   -183.28915    127803.44   -39883.981    2855.4128   -42739.394     174.9464   0.97723107 
   62700    227.68423    11.547487       127816   -39906.779    2832.8246   -42739.604    175.31201     0.977135 
   62800    230.77525   -145.70949    127753.69   -39901.104    2871.2829   -42772.387    175.55633   0.97761161 
   62900    227.88506   -136.34769    127922.58   -39844.561    2835.3234   -42679.885    175.79868   0.97632089 
   63000    233.55677    93.053502    127765.41   -39802.655    2905.8902   -42708.545    176.40619   0.97752192 
   63100     231.6771   -139.71312    127832.37   -39771.422    2882.5035   -42653.925    176.65769   0.97700992 
   63200    231.11358   -311.61826    127660.65   -39811.641    2875.4924   -42687.134    176.84135    0.9783241 
   63300    230.11459    51.744319    127626.08     -39830.8     2863.063   -42693.863    177.39043   0.97858912 
   63400    233.18184   -74.432517    127631.11    -39754.79    2901.2254   -42656.016    177.54824   0.97855056 
   63500    229.36426    2.6386002    127837.32   -39834.284    2853.7274   -42688.011    177.93671   0.97697204 
   63600    228.20388    15.098794     127829.9    -39829.52    2839.2901   -42668.811    178.59399   0.97702879 
   63700    231.15533   -187.45131    127572.45   -39837.135    2876.0118   -42713.147     179.1081   0.97900048 
   63800    226.00565   -48.612467     127686.1   -39947.101      2811.94   -42759.041    179.73667   0.97812913 
   63900    225.99421   -124.44431    127696.32   -39936.725    2811.7976   -42748.523    179.54136   0.97805081 
   64000    231.93902    95.130788    127669.74   -39933.933    2885.7623   -42819.695    179.83588   0.97825447 
   64100    228.79809    51.513763    127680.91   -39865.134    2846.6832   -42711.817    180.05509   0.97816889 
   64200    228.39085   -101.22048    127539.34   -39875.336    2841.6164   -42716.953    180.17866   0.97925465 
   64300    233.70827   -44.955491    127437.28   -39774.636    2907.7752   -42682.411    180.89142    0.9800389 
   64400    227.67739   -78.064893    127391.48   -39796.708    2832.7396   -42629.448    181.01459   0.98039125 
   64500    228.02636    49.883492    127570.77   -39748.618    2837.0814     -42585.7    181.57742   0.97901337 
   64600    228.40372    -36.54968    127517.05   -39804.292    2841.7766   -42646.069    182.11005   0.97942584 
   64700    232.58753   -135.38602    127338.86   -39822.791    2893.8311   -42716.622    181.70433    0.9807964 
   64800    230.35539   -1.4859287    127287.44   -39851.863    2866.0589   -42717.922    182.20857   0.98119258 
   64900    225.91157   -116.24215    126968.39   -39836.811    2810.7694   -42647.581    182.00541   0.98365818 
   65000    229.52645    -183.6731    127144.53   -39797.102    2855.7453   -42652.848    181.90123    0.9822954 
   65100    229.46001   -103.52595    127322.67   -39823.037    2854.9188   -42677.955    182.59089   0.98092109 
   65200    230.15079    70.524566     127061.2   -39809.405    2863.5133   -42672.918    183.00102   0.98293961 
   65300    233.37458   -139.02687    127490.41   -39805.261    2903.6235   -42708.884     183.4803   0.97963049 
   65400    234.95374   -145.82601    127602.79    -39749.28    2923.2712   -42672.551    183.84619   0.97876769 
   65500    230.94703     18.31981    127838.61   -39821.766    2873.4202   -42695.186    183.97874   0.97696225 
   65600    227.70687   -47.519249    127678.22   -39852.458    2833.1063   -42685.564     184.0611    0.9781895 
   65700    228.68772    9.4528581    127663.78   -39888.095    2845.3101   -42733.405    184.33929   0.97830008 
   65800    227.35405   -52.471977    127888.64   -39899.607    2828.7167   -42728.324    184.47059   0.97657999 
   65900    224.52245   -5.7304032    127714.38   -39865.298    2793.4862   -42658.785    184.17689    0.9779125 
   66000    231.74025   -100.82665    127655.64   -39755.206    2883.2892   -42638.496    184.85528   0.97836253 
   66100    233.30273   -141.50913     127645.5   -39705.776    2902.7295   -42608.505    185.03726   0.97844021 
   66200    231.23689   -153.17952    127570.33   -39661.736    2877.0265   -42538.763    185.58471   0.97901673 
   66300    235.16698   -102.65348    127518.45   -39706.893    2925.9243   -42632.817    185.67112   0.97941506 
   66400    229.03937    -57.81982    127565.74    -39754.73    2849.6852   -42604.415    185.97825   0.97905197 
   66500    233.30078   -24.275123    127802.21   -39776.013    2902.7052   -42678.718    186.21886   0.97724043 
   66600    230.34576    27.411073     127645.4   -39800.042    2865.9392   -42665.981     186.4577   0.97844099 
   66700    229.68046   -191.84449    127662.78   -39827.343    2857.6615   -42685.004    186.44358   0.97830775 
   66800    231.31207    5.7641741    127863.48   -39766.446    2877.9619   -42644.408     187.0144   0.97677219 
[...]
   84600    225.55847    14.065381    127965.89   -39972.611    2806.3762   -42778.987    241.39043   0.97599048 
   84700    225.16077   -12.826701    127793.67   -39981.027     2801.428   -42782.455    241.40922   0.97730577 
   84800     225.1586   -35.112662       127869   -39951.611    2801.4011   -42753.012    242.05381   0.97673001 
   84900    226.65604    49.555208    127832.24   -39925.694     2820.032   -42745.726    241.94088   0.97701091 
   85000    228.24436   -179.72837    127665.37   -39866.192    2839.7938   -42705.986     241.6795   0.97828792 
   85100    235.14872   -19.328783    127745.84   -39862.087    2925.6971   -42787.784    241.44982   0.97767172 
   85200    231.46897    88.574739    127697.92    -39895.15    2879.9141   -42775.064    241.50589   0.97803858 
   85300    225.50199   -78.400871    127669.39   -39939.377    2805.6735   -42745.051    241.50992   0.97825711 
   85400    225.88057   -161.50308    127778.52   -39906.789    2810.3837   -42717.172    241.70499   0.97742163 
   85500     226.5083    117.93479    127811.58   -39883.577    2818.1938   -42701.771    242.37894   0.97716884 
   85600    226.35299   -37.981996    127646.43   -39857.921    2816.2615   -42674.182    242.21539   0.97843306 
   85700    232.06678    -10.01244     127777.8   -39898.262    2887.3519   -42785.614    242.44101   0.97742715 
   85800    229.57221    -53.68321    127793.88   -39902.662    2856.3147   -42758.976    243.11816   0.97730419 
   85900    232.10984   -7.8283841    127876.46    -39796.58    2887.8877   -42684.467    243.53445   0.97667306 
   86000    229.00071   -19.458271    127911.56   -39848.014    2849.2042   -42697.218    244.04333   0.97640504 
   86100    230.65586   -102.97788    128070.79   -39833.503    2869.7974   -42703.301    244.35194   0.97519109 
   86200    229.15285   -152.44375    128039.07   -39803.966    2851.0972   -42655.063    243.95495   0.97543264 
   86300    229.82414   -142.12441     128031.9     -39840.1    2859.4492   -42699.549    244.50638    0.9754873 
   86400     231.8911   -194.87259     127960.9   -39861.712    2885.1662   -42746.878     244.4565   0.97602855 
   86500    230.20162   -64.604004    128194.14    -39834.69    2864.1458   -42698.836     245.4044   0.97425275 
   86600    237.93856    48.773392    128049.07   -39784.932    2960.4081   -42745.341    245.34195   0.97535652 
   86700    231.35779   -131.14078    127945.91   -39785.289    2878.5307    -42663.82    245.92648   0.97614292 
   86800    228.02061    57.288693     127815.4   -39858.351    2837.0099   -42695.361    246.00737   0.97713961 
   86900    234.06161    226.09817    127905.75   -39819.048    2912.1714   -42731.219    246.72214    0.9764494 
   87000    231.81915   -75.743437    127862.68   -39830.349    2884.2709    -42714.62     246.7146   0.97677826 
   87100    230.18548    85.550028    127794.99   -39868.208    2863.9449   -42732.153    247.31614   0.97729568 
   87200    233.24609    54.786454    127969.39   -39854.529    2902.0248   -42756.554    247.73757   0.97596378 
   87300    230.54976    64.683692    127806.27    -39866.66    2868.4774   -42735.137    247.78597   0.97720943 
   87400    228.49724   -212.09501    127674.89   -39883.158    2842.9401   -42726.099    247.74691   0.97821501 
   87500     229.0389   -204.89193     127654.1   -39888.519    2849.6793   -42738.199    247.53113   0.97837434 
   87600    228.96993   -132.62145    127358.45   -39885.065    2848.8212   -42733.886    247.14947   0.98064551 
   87700    232.23204    95.711988    127429.44   -39898.846     2889.408   -42788.254    247.25526   0.98009921 
   87800    230.18501   -101.36976    127591.78   -39865.392    2863.9391   -42729.331    247.94821   0.97885219 
   87900    231.79714   -155.72194    127642.86   -39880.762    2883.9971   -42764.759    248.37489   0.97846046 
   88000    229.98584    -53.17284    127404.85   -39899.464     2861.461   -42760.925     248.7835   0.98028835 
   88100    235.03613   -172.76653    127273.92   -39842.395    2924.2963   -42766.692    248.72166   0.98129678 
   88200     231.8554   -78.195024    127318.82   -39825.144     2884.722   -42709.866    249.27623   0.98095071 
   88300    231.78552   -34.682327    127398.56   -39873.231    2883.8526   -42757.083     250.1632   0.98033678 
   88400    226.22465    71.482052    127726.94   -39986.522    2814.6647   -42801.186    250.71537   0.97781636 
   88500    230.38278    101.84979    127871.97   -39881.759    2866.3998   -42748.159    251.28637    0.9767073 
   88600    229.37999   -206.33434    127789.48   -39824.598    2853.9232   -42678.521    251.14897   0.97733782 
   88700    231.86237   -196.26727    127745.87   -39800.262    2884.8087   -42685.071    251.65319   0.97767145 
   88800    237.54239   -93.529553    127477.77   -39739.215    2955.4789   -42694.694    251.10795   0.97972761 
   88900    230.52835    33.985522    127661.48     -39797.4     2868.211   -42665.611    251.76489   0.97831775 
   89000    233.79735    66.685489    127734.96   -39795.518    2908.8835   -42704.401    251.79024   0.97775496 
   89100    228.13856    168.76667    127847.71   -39896.714    2838.4775   -42735.192    251.65124   0.97689268 
   89200    224.21913    2.2263783    127843.22   -39927.022    2789.7122   -42716.734    252.39527   0.97692701 
   89300    230.22306    -181.7632    127625.07    -39942.63    2864.4126   -42807.042    252.31101   0.97859685 
   89400    224.14021   -87.437812    127285.02   -39953.448    2788.7304   -42742.179    252.16011    0.9812112 
   89500    227.63887    38.228749    127221.58    -39983.27    2832.2603    -42815.53    252.47091   0.98170055 
   89600    229.30135    -49.36314     127328.5   -40036.585    2852.9448   -42889.529    253.16698   0.98087615 
   89700    223.12664   -106.82437    127248.99   -40002.414    2776.1196   -42778.534    253.63124   0.98148904 
   89800    222.71416   -166.62028    127204.64   -39948.274    2770.9875   -42719.261    254.10843   0.98183126 
   89900    230.14623   -293.11898    127117.41   -39988.557    2863.4566   -42852.014    254.49231   0.98250499 
   90000    224.65128    7.6626267     127246.9    -39896.46     2795.089   -42691.549    255.07668   0.98150521 
   90100    226.81326   -122.66625    127411.72   -39890.552    2821.9882    -42712.54    255.22708   0.98023551 
   90200    229.16002   -139.84431    127454.26   -39932.919    2851.1863   -42784.106    255.68158   0.97990833 
   90300    228.84481   -282.52144    127193.03   -39943.592    2847.2645   -42790.856    256.26234   0.98192088 
   90400    227.46672    12.864605    127366.23   -39925.985    2830.1184   -42756.104    256.64211   0.98058559 
   90500    231.02546   -59.737888    127450.39   -39882.771     2874.396   -42757.167    256.94297   0.97993806 
   90600    231.21497    6.2625142    127503.53   -39778.198    2876.7539   -42654.952    257.11246   0.97952968 
   90700    228.75586   -167.51504    127596.76    -39778.24    2846.1578   -42624.398    256.88012   0.97881397 
   90800    230.81727    33.922173    127757.95   -39812.091    2871.8056   -42683.896    257.11206   0.97757903 
   90900    226.51649   -3.4415245    127681.55    -39904.84    2818.2958   -42723.136    257.38317   0.97816396 
   91000    227.85635   -5.1849168    127622.43   -39922.034    2834.9661       -42757    257.65979    0.9786171 
   91100    227.39429   -4.4517656    127752.84   -39919.424    2829.2173   -42748.641    257.89784   0.97761814 
   91200    228.69331   -145.39939    127772.29   -39891.012    2845.3796   -42736.391     258.3692    0.9774693 
   91300    229.06981   -91.223001    127746.45    -39805.18    2850.0639   -42655.244     258.3779   0.97766703 
   91400    231.47289   -10.954919    127790.41   -39783.388    2879.9628    -42663.35    258.16264   0.97733073 
   91500    230.88405   -47.137378    127763.28   -39796.972    2872.6365   -42669.608    258.50308   0.97753822 
   91600    229.01122    123.02221    127667.23    -39842.34    2849.3349   -42691.675    259.13304    0.9782737 
   91700    231.18665    18.202948    127812.61   -39915.646    2876.4015   -42792.048    259.32639   0.97716095 
   91800    231.31839   -239.65819    127806.21   -39879.826    2878.0406   -42757.867    259.55792    0.9772099 
   91900    230.79458       5.6781    127767.69   -39897.051    2871.5234   -42768.575     259.3223   0.97750452 
   92000    228.60841     81.88956    127845.01    -39911.11    2844.3232   -42755.434    259.25794   0.97691329 
   92100    226.13318    -167.2117    127772.71   -39957.998    2813.5266   -42771.525    259.61854   0.97746609 
   92200    231.68184   -123.85244    127752.08   -39883.268    2882.5626   -42765.831    259.40585   0.97762391 
   92300    230.29609    131.95115       127650   -39807.642    2865.3212   -42672.963    259.75495   0.97840576 
   92400    235.76976   -20.294988    127722.95   -39815.075     2933.424   -42748.499     259.5664   0.97784689 
   92500    229.58505   -147.08254    127501.42   -39862.754    2856.4745   -42719.228    259.44799   0.97954585 
   92600    230.96133    151.02006     127456.4   -39837.993     2873.598   -42711.591    259.69659   0.97989191 
   92700    230.09357   0.30814779     127487.9   -39840.632    2862.8015   -42703.433    260.09575   0.97964979 
   92800     229.3624   -66.321478       127382   -39878.058    2853.7044   -42731.763    260.58219   0.98046423 
   92900    229.02371    124.16763    127489.66   -39824.622    2849.4904   -42674.112    260.88475    0.9796362 
   93000    228.11484   -236.13537     127534.3   -39838.504    2838.1823   -42676.686    261.05548   0.97929331 
   93100    230.42504   -164.37302    127511.58   -39763.381    2866.9256   -42630.306    260.90182   0.97946786 
   93200    233.68109    62.446433    127380.29   -39780.007     2907.437   -42687.444    260.79628   0.98047734 
   93300    232.18612    60.873004    127574.14   -39795.299    2888.8368   -42684.136    261.38135   0.97898754 
   93400    227.02026   -11.348227    127713.17   -39829.415    2824.5636   -42653.979    262.03164   0.97792177 
   93500    224.43252   -97.662167    127563.46   -39865.848    2792.3673   -42658.216    261.81185   0.97906948 
   93600    229.31588   -111.28087    127592.21   -39926.004    2853.1255   -42779.129    262.21428   0.97884889 
   93700    224.68817    5.9592843    127470.32    -39878.07    2795.5479   -42673.618    262.09602   0.97978484 
   93800    226.90343   -78.109234    127541.44    -39834.69      2823.11     -42657.8    262.57358   0.97923854 
   93900    230.16289    44.722633    127636.03   -39822.126    2863.6639    -42685.79    263.29767    0.9785128 
   94000     228.8466    -392.0924    127660.76   -39811.745    2847.2868   -42659.032    263.30974   0.97832325 
   94100     230.8038     -104.297    127665.19   -39808.665    2871.6381   -42680.303    264.19592   0.97828928 
   94200     228.6443    73.427304    127310.68   -39805.237    2844.7697   -42650.007    263.85461   0.98101349 
   94300    232.94201   -130.90113    127424.31   -39759.675    2898.2414   -42657.916     264.4457   0.98013868 
   94400    231.16864   -94.125873     127510.2    -39751.45    2876.1774   -42627.627    265.47077   0.97947841 
   94500    233.80564    57.087956     127387.2   -39680.609    2908.9867   -42589.595    265.59948   0.98042417 
   94600    235.49486   -17.363279    127529.22   -39723.217    2930.0038   -42653.221    266.06663   0.97933237 
   94700    232.39719    6.6523763    127581.38   -39761.091    2891.4629   -42652.554    266.32982   0.97893198 
   94800    229.66274   -7.5509205    127677.62   -39760.505    2857.4412   -42617.947    267.21812   0.97819405 
   94900    229.91639    4.6062677    127598.74   -39741.662    2860.5969   -42602.259    267.24585   0.97879878 
   95000     233.2381    42.259577    127538.82    -39721.46    2901.9253   -42623.386    267.32034   0.97925863 
   95100     227.8336   -185.76961    127427.22   -39720.626    2834.6831   -42555.309    267.38031   0.98011627 
   95200    234.38048   -206.81768    127387.49    -39742.56    2916.1388   -42658.698    267.56711   0.98042194 
   95300    238.76967   -76.334888    127664.96   -39661.862    2970.7486   -42632.611    268.42828   0.97829111 
   95400    234.73057   -205.57617    127531.64   -39721.977    2920.4946   -42642.471    268.48151   0.97931378 
   95500    230.98677   -194.61573    127729.52   -39733.587    2873.9146   -42607.502    269.35526   0.97779658 
   95600    233.97103   -159.56492    127468.53   -39721.927    2911.0444   -42632.972    269.37115   0.97979867 
   95700     227.6865   -9.7775591    127537.28   -39789.544    2832.8529   -42622.397    269.31608   0.97927044 
   95800    229.47337   -89.539676    127225.98   -39837.388     2855.085   -42692.473    268.83173   0.98166657 
   95900    229.00589   -192.06608    127330.74   -39794.737    2849.2686   -42644.005    268.81335   0.98085893 
   96000    228.01702    76.075791    127458.81   -39872.662    2836.9652   -42709.627    269.26685   0.97987337 
   96100    235.79005    1.5940145    127462.14   -39818.292    2933.6765   -42751.969     269.8676   0.97984777 
   96200    227.81315   -20.263551    127529.62   -39861.914    2834.4287   -42696.342    269.91691    0.9793293 
   96300    232.80756   -97.917049    127543.26   -39816.514    2896.5686   -42713.082     270.3567   0.97922458 
   96400    226.58515    8.0388666     127664.1   -39812.809      2819.15   -42631.959    270.28466   0.97829767 
   96500      229.115    146.53854    127896.32   -39860.226    2850.6261   -42710.852    270.48146   0.97652139 
   96600    231.15951    37.108778     128154.7   -39874.669    2876.0638   -42750.733    271.48869   0.97455253 
   96700    227.16665    -146.5654    127798.71   -39966.407    2826.3849   -42792.792    271.67943   0.97726719 
   96800    221.97083    -250.4987    127630.76   -40022.112    2761.7392   -42783.851    272.03302   0.97855324 
   96900    228.18599    -80.18107    127558.42   -39950.463    2839.0675    -42789.53    272.48258   0.97910815 
   97000    225.96606   -73.821916     127681.6   -39946.891    2811.4474   -42758.339    273.35017   0.97816358 
   97100    227.51471     35.65885    127696.12   -39927.306    2830.7155   -42758.021    273.46568   0.97805237 
   97200    227.36898   -141.45695     127513.6   -39919.554    2828.9023   -42748.457    273.06687   0.97945235 
   97300    228.31811    56.578801    127812.87   -39922.059    2840.7113    -42762.77    273.61439   0.97715899 
   97400    228.55244   -197.30072    127753.29   -39934.781    2843.6268   -42778.408    273.51748   0.97761464 
   97500    228.67477   -71.624474    127727.51   -39845.529    2845.1489   -42690.678    273.82344     0.977812 
   97600    225.32589   -3.0922257    127812.55   -39908.722    2803.4824   -42712.205    274.58684   0.97716144 
   97700    233.69656   -35.023461    127917.68   -39836.511    2907.6295    -42744.14    274.88448    0.9763583 
   97800    228.66895   -15.373083    127972.57   -39806.101    2845.0765   -42651.177    275.24187   0.97593952 
   97900    235.31609   -79.160189    127792.86   -39776.412    2927.7796   -42704.192    275.39017   0.97731199 
   98000    234.41207   -64.127093    127925.05   -39806.603    2916.5318   -42723.135    276.24593   0.97630208 
   98100    228.30074    172.80567    127941.41   -39884.257    2840.4952   -42724.752    276.42898   0.97617719 
   98200    229.00522   -36.151274    128001.37   -39877.387    2849.2603   -42726.648    276.67085   0.97571994 
   98300    232.84455     65.39072    128084.62   -39911.441    2897.0289    -42808.47    276.99822   0.97508578 
   98400    228.21933   -301.68673     128201.2    -39932.58    2839.4823   -42772.062    277.42421    0.9741991 
   98500    225.51124   -41.009465    128083.86    -39933.12    2805.7886   -42738.909    278.14199   0.97509154 
   98600    229.43535    84.773072     128129.2   -39947.984     2854.612   -42802.596    278.56093   0.97474648 
   98700    226.00476    23.700114    128110.72   -39987.344    2811.9288   -42799.273    278.94182   0.97488711 
   98800     226.8392    20.586164    128098.28   -39960.126     2822.311   -42782.437    279.14367   0.97498181 
   98900    231.23396    29.514073    128035.62   -39976.667    2876.9901   -42853.657    279.07045   0.97545893 
   99000    227.47879    21.108206    127992.68    -40022.37    2830.2686   -42852.639    279.19201   0.97578619 
   99100    226.92624    12.918624    128348.53   -39922.323    2823.3938   -42745.717    279.90458   0.97308083 
   99200     230.7315    -48.27486    128410.48   -39917.872    2870.7385    -42788.61    279.94389   0.97261133 
   99300    232.05265   -281.01026    128247.19   -39872.511    2887.1761   -42759.687    280.19555   0.97384969 
   99400    233.95152   -61.807159    128204.91   -39850.345    2910.8017   -42761.147    280.33102   0.97417089 
   99500    234.56933   -42.567693    128207.16    -39725.56    2918.4884   -42644.048    279.84875   0.97415382 
   99600    239.69699   -129.90164    128237.88   -39743.889    2982.2863   -42726.176    279.94071   0.97392039 
   99700    235.78782   -101.05063    128110.91   -39762.408    2933.6487   -42696.057    280.66813    0.9748857 
   99800    234.35614      -25.894    128163.09   -39795.997     2915.836   -42711.833    280.92096   0.97448874 
   99900    232.82892   -160.72935    128229.42   -39872.578    2896.8345   -42769.413    280.74851   0.97398469 
  100000    233.64304   -11.049809    128344.66   -39884.208    2906.9636   -42791.172    281.30382   0.97311015 
  100100    232.60137   -175.37634    128199.58   -39813.533    2894.0032   -42707.536    281.01922   0.97421142 
  100200    230.32017     243.9402    127821.66   -39813.831    2865.6208   -42679.452    280.66069    0.9770918 
  100300    232.20157    -90.44469     127887.2   -39787.441     2889.029    -42676.47    281.26214     0.976591 
  100400    228.34966   0.39196509    127764.82   -39809.106    2841.1038    -42650.21    281.07787   0.97752647 
  100500     237.1376   -78.554559    127747.12   -39741.877    2950.4426    -42692.32     281.5022   0.97766193 
  100600    230.86717   -128.12184    127710.41   -39824.246    2872.4265   -42696.673    281.89259   0.97794294 
  100630    233.42541   -128.58633    127663.97   -39806.048    2904.2559   -42710.304    281.95931   0.97829869 
Loop time of 101.127 on 6 procs for 100000 steps with 4175 atoms

Performance: 427.186 ns/day, 0.056 hours/ns, 988.857 timesteps/s
98.7% CPU use with 6 MPI tasks x no OpenMP threads

MPI task timing breakdown:
Section |  min time  |  avg time  |  max time  |%varavg| %total
---------------------------------------------------------------
Pair    | 76.602     | 79.536     | 83.453     |  25.1 | 78.65
Neigh   | 5.4055     | 5.4356     | 5.4584     |   0.9 |  5.38
Comm    | 9.4081     | 13.322     | 16.25      |  61.1 | 13.17
Output  | 0.17166    | 0.17286    | 0.17851    |   0.6 |  0.17
Modify  | 1.9275     | 1.9582     | 1.9919     |   1.9 |  1.94
Other   |            | 0.7022     |            |       |  0.69

Nlocal:        695.833 ave         707 max         681 min
Histogram: 2 0 0 0 0 0 1 1 1 1
Nghost:        1494.83 ave        1513 max        1483 min
Histogram: 2 0 1 0 0 2 0 0 0 1
Neighs:        0.00000 ave           0 max           0 min
Histogram: 6 0 0 0 0 0 0 0 0 0
FullNghs:      19754.3 ave       20333 max       19055 min
Histogram: 1 1 0 0 0 1 1 0 1 1

Total # of neighbors = 118526
Ave neighs/atom = 28.389461
Neighbor list builds = 5808
Dangerous builds = 0

undump              1
unfix               2
unfix               3
unfix               4


################################################
#######         Run Simulation         #########
################################################

reset_timestep      0
log                 log.run_${NAME}
log                 log.run_liquid_density_MLmW
