LAMMPS data file via write_data, version 29 Oct 2020, timestep = 800000

4175 atoms
1 atom types

-0.5784791105223839 50.57847911052302 xlo xhi
-0.5784791105223839 50.57847911052302 ylo yhi
-0.5784791105223839 50.57847911052302 zlo zhi

Masses

1 18.015

Atoms # atomic

1331 1 22.458472984829243 -0.4010443245246904 15.67459675870493 0 0 0
4071 1 4.569144586460286 0.2256099667665038 0.6931091564328293 0 1 1
2552 1 6.583428020558098 0.9193225352349845 2.674702520188622 1 1 0
3726 1 8.038622518692371 2.368922804736521 0.3144604379028504 0 1 1
1792 1 15.429964473716144 24.7311246945831 7.83483160206101 0 0 1
2726 1 12.645275956227616 0.9929321621491227 0.5967794766404919 1 1 0
43 1 20.594645797208237 1.501215326390712 0.8489164081714171 0 0 0
3673 1 17.903082064013518 3.1008701781220633 0.6986567815487454 0 1 1
645 1 27.499992318444583 15.537430644323926 0.05415565924713772 0 0 0
2560 1 24.242420452626455 -0.06918054851213296 8.052934053579696 0 1 0
2722 1 31.368941936850803 0.8695135455361729 0.3659282983993196 0 1 0
1774 1 33.508958334385255 2.6511940674382006 0.3227820884713234 0 0 1
1655 1 34.26752933681587 2.3443030238943243 2.9601792660709045 0 0 1
2007 1 39.43672811155355 2.898983321814121 1.9079124301887993 0 0 1
1865 1 23.19713824518567 24.876220338169812 3.3455566389951676 0 0 1
3816 1 42.116971557283065 1.9315220358717808 3.0230381085486364 0 1 1
2137 1 45.35968763092242 23.323193876840886 15.438625068363976 0 0 0
71 1 46.16513815969479 1.1038434210248667 0.9298055676356598 0 0 0
268 1 0.705902231415938 2.148788940414399 0.9558988828115038 1 0 0
2344 1 3.3535444890249937 2.511488486331192 0.852294983045655 0 1 0
247 1 4.407690776637544 4.3280105774566096 2.632663575421773 0 0 0
1840 1 10.112216110819396 3.323817058739108 2.2104808111701564 1 0 1
1699 1 11.651657842694483 5.938377541439565 2.212865202912864 0 0 1
170 1 48.180880142811816 14.285293906743176 0.39589342264771876 -1 0 0
4166 1 22.779709208060066 3.598742187387617 1.464359303305414 0 1 1
2809 1 44.85020740532792 24.725943212431286 2.311462230595126 0 0 0
4081 1 27.158302463199046 3.5941979461423728 -0.07582233985588382 0 1 1
2882 1 45.291121268591056 24.731408650197665 4.956550635133489 0 0 0
374 1 44.924841662660086 18.513449987403302 -0.23792515399871395 0 0 0
2248 1 39.00834945090878 5.480768883906308 2.487123246318338 0 1 0
206 1 31.80017992107108 13.283306329347393 0.04269367013563141 0 0 0
1848 1 44.11610829080483 5.268307558297906 1.795236343276171 -1 0 1
652 1 46.66805124977623 3.9423070974043783 1.3863210970237325 0 0 0
1867 1 17.130361229443906 24.891550359767212 5.586790514071932 0 0 1
1890 1 1.5946569744444865 6.6758783399134085 0.8352841865155829 1 0 1
364 1 44.984108389351945 0.037326631810995714 9.215560335139504 0 0 0
4084 1 18.686370697545197 7.90107655628168 0.29432668051496513 0 0 1
3846 1 5.959963240179303 6.257988983617021 1.4779199600202246 1 0 1
1972 1 8.269537362262623 9.47766915284307 2.213139518849524 0 0 1
373 1 9.334132293169167 6.823433895157006 0.8419989938288055 0 0 0
1538 1 3.630841481463885 10.32875955723318 0.0923156644704144 1 0 1
565 1 13.989279751102721 5.013226403779425 1.0717157601840688 0 0 0
1519 1 15.976836474798287 7.244403234133831 1.5918200274797893 0 0 1
570 1 21.741455255861727 6.2363818389427506 1.0297435820581915 0 0 0
1028 1 42.26752573469648 -0.06956639312738422 9.4825374468907 0 0 0
2174 1 25.22911119744492 8.27343998900579 2.980805129311235 0 1 0
2067 1 27.530417398506042 6.244052289722008 -0.1107239633002805 0 0 1
1970 1 31.798426591381787 6.460948853860271 1.6652950834514382 -1 0 1
1764 1 32.0017947955714 9.042032901849517 0.4882617315744837 0 0 1
2266 1 14.864438174581238 0.2779771137070808 5.545719238928658 0 1 0
341 1 36.533745475087215 6.4028126122327675 1.5027625450521214 0 0 0
928 1 36.25003293120179 9.156770217276529 1.412953739980663 0 0 1
487 1 40.1054370795832 6.493220339444328 0.11463765719491414 0 0 0
51 1 39.960017997029595 8.926998118816044 1.3007819750241447 0 0 0
48 1 43.86426004030082 0.8905631992777496 -0.4682789494087044 -1 0 0
2066 1 45.254534405905446 7.568103083523676 2.5924554910768456 -1 0 1
158 1 48.01376597471207 7.29244223082779 2.5516632672975215 0 0 0
3874 1 25.090790481142935 7.291209624273504 0.10694032126987563 0 1 1
894 1 1.7087151240196619 11.801645787422249 1.158708869574725 0 0 1
112 1 5.728006905680179 10.924806862838288 2.19260486268368 0 0 0
3216 1 11.997681619810768 11.892483792067797 1.3613151495290847 0 0 1
367 1 12.559259010333852 8.98861518983099 1.8989257384997762 0 0 0
864 1 19.36265386772806 10.450551205618128 -0.3802950937978671 0 0 0
1173 1 17.089574118870264 11.385915465440311 0.5417916197723132 0 0 1
1744 1 22.602652304967467 13.122308128554753 -0.05283300141449565 0 0 1
1935 1 24.57484203046568 11.96167898417119 0.9892673621452228 -1 0 1
2084 1 -0.3089083917571277 8.346825959133334 -0.31507068561894486 0 0 1
27 1 28.624515215099795 11.16654136290151 1.9270628727764212 0 0 0
2952 1 30.979706172205738 10.169507399766209 2.659520714365834 0 1 0
1077 1 45.21134825989091 0.514455614185537 3.5363769273818564 0 1 0
1517 1 38.171041473322305 10.774086469001425 0.7513039116253812 -1 0 1
3940 1 6.231093192073047 -0.06254880431286025 5.435868921006093 0 1 1
261 1 44.47434350824119 10.07105360296783 1.3235600541842207 0 0 0
1195 1 50.54275481502758 10.386225973255222 1.2156220854622666 0 0 0
867 1 7.56077285004052 13.016401427645308 1.320348217027957 0 0 1
2720 1 6.542728344694961 15.492244328764318 2.397622608884694 1 0 0
1588 1 1.3674070157870566 23.360197196633234 -0.43801011250358624 1 0 1
2367 1 33.87418009100685 -0.10360705985901153 5.004619120199196 0 1 0
1775 1 15.12107089875934 15.404632514060964 0.9423495739591801 0 0 1
1325 1 17.589662383214655 13.992255547357496 0.19279063842363064 0 0 1
1229 1 22.160255695516117 15.61793334840532 0.6865203672925511 0 0 1
237 1 25.935841951440395 14.0311685573053 2.1998781515446386 0 0 0
381 1 32.580933792612754 12.648464823811477 2.6751425527501618 0 0 0
687 1 4.057594984535802 7.506822040427503 -0.06766164310947709 0 0 0
500 1 35.86623360199563 12.714955235689992 1.8998720908394624 0 0 0
939 1 43.69021827524736 14.898179212665369 1.1641721536057115 0 0 1
2643 1 40.158190835816896 24.435705951237278 3.7057451355771374 0 0 0
1887 1 46.192470458708584 14.326492558597911 2.3419876474650603 0 0 1
297 1 9.691979265433265 11.795264035629017 0.0025762384701274454 0 0 0
2591 1 3.3901421919137293 16.988829409741108 0.33574095065879983 0 0 0
154 1 2.2240012788762895 16.17633771870294 2.7319978261253217 0 0 0
3651 1 6.781993362968661 16.903543359687962 -0.03441094078717022 0 1 1
1236 1 11.323424133957948 17.662132500534547 0.26626787883683956 1 0 1
2534 1 12.24743696907214 16.95723438828313 2.9905506164041133 0 0 0
2453 1 15.104191110921926 17.31804396056431 2.91985849787631 0 0 0
1238 1 19.394537190437017 15.924163946733426 1.363905755654233 0 0 0
370 1 19.02637322980129 18.520033136181407 0.5360229367067901 0 0 0
10 1 23.86205779530793 18.495022892920325 3.2561420947016857 0 0 0
541 1 42.33065719944713 9.754251785921591 -0.17611541413745885 -1 0 0
424 1 28.070340921285517 17.8830874802398 1.1423646350095296 0 0 0
2627 1 29.39827780223335 13.947799497259506 1.3158693575521123 0 0 0
2160 1 32.796955416247 15.775241169648215 -0.4909501175879619 0 0 0
3146 1 37.817262401337786 14.539865568941556 0.8497856668703279 0 0 1
2278 1 35.49692783031094 18.198603085815478 1.5705751790864384 0 1 0
1194 1 37.99454400487723 17.03416086486775 2.0771371617747083 0 0 1
3742 1 42.67838309140724 17.35048017120563 0.8095472647113406 0 0 1
1410 1 13.829752371830873 12.804413600400412 -0.5599348519493305 0 0 1
4056 1 50.28949761197576 16.325027364593613 0.7338314539395587 -1 1 1
3887 1 0.19619317620539767 20.42102658926991 1.4290558696843214 1 0 1
2140 1 15.663119150341739 3.499565810906958 15.567143632355801 1 0 0
2088 1 3.8174554283776967 21.968694627927142 0.34984105664141796 0 0 1
3748 1 6.455390044703266 19.84174692808929 0.5233580031502956 0 1 1
2427 1 13.309908351607 20.42118132110124 15.854454342397506 0 0 0
1702 1 8.805383452258187 20.93476617291853 0.8785984784963956 0 0 1
1892 1 12.912534114482211 21.368696205815695 0.3505993979350389 0 0 1
286 1 12.944186821434794 21.366619398114313 2.988149698947829 0 0 0
501 1 16.583174374650042 20.122405297400764 0.8815954386401161 0 0 0
633 1 20.711262730766414 20.667430674963704 1.458509054216437 0 0 0
1641 1 25.780449912484787 19.345659987780632 1.503658275644399 0 0 1
874 1 30.95744670348664 20.764021587093044 1.0476496473875165 0 0 0
2582 1 33.82767449244098 21.75872500189047 1.1481139007421712 0 0 0
2261 1 35.69346653927185 20.77300271408752 2.8746414985157425 0 0 0
1215 1 40.033384828681946 21.210571625570775 1.1245523789819292 0 0 1
1042 1 41.550267003342015 19.051364938558702 2.567506629754315 0 0 1
2214 1 46.82637505024435 18.50617893660791 1.6631207557155618 0 0 0
879 1 49.27231466715608 18.822634302375967 0.4401499060222325 0 0 0
2017 1 -0.21245087744468627 23.146683454690947 1.858045179476655 1 0 1
3832 1 32.72619064089011 5.051904123265509 -0.40469248489249654 0 1 1
2056 1 4.893672601506501 23.145007578849988 2.5914350077047223 1 0 1
1783 1 8.575243782865174 23.647168956101662 0.5191415679289881 0 0 1
2646 1 19.685121401894047 0.09032470292822004 16.036446442533006 1 1 0
2847 1 7.547881502567931 -0.23333291483833912 13.566556120145972 0 1 0
2491 1 14.278091862405587 24.085192511717892 3.6002368917570937 1 0 0
3687 1 17.54592308062255 22.731901719008533 0.3025120244312274 0 0 1
3708 1 19.35150863999777 22.726176096962696 2.4288825695132905 0 0 1
1093 1 36.57006413598975 14.151261371147273 16.159975780839144 0 0 0
67 1 27.453160384543054 23.91297004228546 2.41050828003544 0 0 0
3591 1 29.44319896061077 23.164582680949557 0.6363696793499709 0 0 1
3116 1 38.18127561085579 23.72666695994476 15.0864493325287 0 0 0
2710 1 33.15833947284226 24.430128075909238 2.1944179734221705 0 0 0
1412 1 37.52375071496657 22.61964001846146 2.183994390814063 0 0 1
2685 1 36.85932953479244 24.44711819446998 0.49924814138179685 -1 0 0
151 1 42.45541872674286 23.214927926749258 2.520941365070146 0 0 0
997 1 33.74296102854463 13.418611031956996 15.977068825156937 0 0 0
91 1 46.8333498661478 23.12098691756891 1.115947368030012 0 0 0
2976 1 10.077043983828105 14.663446208114088 14.849629480678168 0 0 0
2347 1 39.937025400890306 0.22016309720263672 -0.26144900563932955 -1 1 0
377 1 -0.5220737942307887 1.5315404217082134 5.431417763609326 0 0 0
3717 1 18.58317970967885 22.55284886626376 14.682121235661407 0 0 0
3102 1 7.735022227062311 1.4127209878892784 7.447264869250638 0 1 1
1715 1 11.304558039929573 1.045222834419325 3.3425132446251395 0 0 1
2631 1 10.464294719229251 1.7271503320159765 6.12702394388971 0 1 0
437 1 14.461594562659487 0.9742748712244886 2.82462070639705 0 0 0
1376 1 19.96089017404273 -0.1675767824482841 8.90973950344652 0 0 0
1063 1 20.405578392782292 3.19637433653037 4.82348452014011 0 0 0
150 1 21.785857309207838 0.7293192882551371 4.453415747417513 0 0 0
105 1 25.63205242882308 0.835249922981727 3.703858029033772 0 0 0
2364 1 23.75028966028709 2.6645425927884494 3.7914954207412297 0 1 0
258 1 27.68293504357189 2.6071934489009814 2.5096705341646746 0 0 0
2562 1 26.426380440266392 0.7294196196886695 6.436391762805284 0 1 0
3045 1 29.75735864244892 0.9890083395496669 2.7264939632195158 0 1 0
1944 1 31.772184544017055 1.9754465187389028 4.538032539553832 0 0 1
1985 1 13.780858630692912 13.421375463921397 16.28720369755978 0 0 1
49 1 37.36545763472722 2.3546042861862397 5.924863515894909 0 0 0
2193 1 36.99386430625708 1.8818779239327212 2.9760557772315677 0 1 0
722 1 43.82876299068684 2.055283173861078 5.875069936568495 0 0 0
3176 1 42.50370623175594 23.637769829246807 15.739887062122914 0 0 0
289 1 -0.14009503544588991 3.350069171963827 3.1197992548480373 0 0 0
1763 1 6.252251916131775 3.1603375223940655 4.341763772676789 0 0 1
4025 1 8.539594841571498 4.314895046388892 4.4090943806162475 0 1 1
486 1 10.583918336229486 4.3775111454708355 6.470936701358221 0 0 0
573 1 15.510520914633894 3.419067497297789 2.666750645132643 0 0 0
1949 1 19.67611389187454 4.649160829419205 2.395237657772127 0 0 1
416 1 24.742606118491132 4.356037518872991 5.889140102928472 0 0 0
2210 1 24.703999031956382 7.164593116789433 5.573587852956066 0 1 0
1144 1 28.906648496097006 4.696561894871883 3.6817749617542255 0 0 0
1943 1 30.90540462729996 4.287417117585891 5.778964875083387 0 0 1
1027 1 34.799246967888394 5.03584819016458 3.5295216902726754 0 0 0
581 1 36.52995403623348 4.980514460710284 6.166758590363966 0 0 0
654 1 42.877678824506276 4.517388092063187 4.119913005122475 0 0 0
1742 1 47.292531716471785 4.753791617783473 5.959077533767476 -1 0 1
2217 1 48.468924420010296 4.571312308592413 3.345085795319878 0 0 0
2903 1 1.8707081260794496 5.198545325742262 3.3793066936811633 0 1 0
616 1 1.2998271521953169 8.092468774966076 4.216137120053711 0 0 0
3845 1 3.803973169662436 5.272841625440542 5.754030109744309 0 1 1
178 1 5.53125300268277 7.565865263760548 5.453624796221643 0 0 0
2178 1 7.736975565464233 6.933585404220816 3.727681408176693 1 1 0
380 1 9.953870985300044 8.309959900822063 4.940898329142926 0 0 0
2490 1 11.778340680652413 6.370610283498112 4.941158576604784 0 0 0
244 1 14.06131169943588 7.674090967488084 5.649310959380779 0 0 0
518 1 18.01885121153198 6.628949535109493 3.270545884891415 0 0 0
679 1 19.40293253037155 10.275457282755307 5.911891555803119 0 0 0
2525 1 21.844623428535677 8.441382721399563 2.8407351311930524 1 1 0
2002 1 22.118537824860287 7.800261923787515 5.6861347311508625 0 0 1
114 1 27.562581671989243 7.542400817460473 6.91149548327097 0 0 0
1304 1 28.925037424745664 6.8485371796451195 2.2673028004717324 0 0 0
898 1 29.014086375443327 8.696701976831896 4.421295234572777 0 0 0
353 1 32.158763133590355 8.91628632683433 5.344775984274953 0 0 0
1858 1 32.42851500340264 6.23388336251157 4.354342401253862 0 0 1
3573 1 40.637651780420015 6.130043760837726 4.4470226080193145 -1 1 1
1781 1 40.172145762213816 8.83363001551504 4.007068468594472 0 0 1
3961 1 44.40821492579555 7.582076405553995 5.280698595893305 0 1 1
495 1 2.6834198691714044 10.47031464788091 5.152804607844982 0 0 0
2566 1 5.389153260913461 10.267408203808223 4.820203430480828 0 1 0
2657 1 10.510361799502421 10.909259059274746 3.5353311049309184 0 1 0
1454 1 11.926375404902865 11.809248358256308 5.821006759543715 0 0 1
1700 1 14.847315386771488 8.73464224730314 3.3528509674672216 0 0 1
1961 1 16.00203238316253 10.920622603698241 3.493378607678265 0 0 1
2225 1 19.31125123109926 9.34938630158242 3.1230243902423007 0 1 0
1574 1 23.407277790563572 10.68793475533231 3.204720443535879 0 0 1
1361 1 20.828130606963178 11.876314859503955 1.6719813187167976 0 0 0
1748 1 26.89698489514436 10.293150068656676 3.9904610998413332 0 0 1
461 1 35.84476037324859 10.608115537237484 3.7227139498755335 0 0 0
156 1 38.39036055970202 10.838901379906865 4.5917513800019325 0 0 0
1561 1 42.36445499519078 9.54687016538404 5.474498773189689 0 0 1
560 1 43.292430260597726 11.29918648814892 3.57521042062971 0 0 0
2575 1 48.35195930810535 10.968118808490173 5.0316958933361775 0 0 0
2142 1 50.02074021752823 8.998472072584386 3.4953074863872295 -1 0 0
1400 1 1.9404276538350471 12.543703869665764 3.621390714171153 1 0 0
159 1 50.44093741070819 13.216297202080865 4.005414278144813 -1 0 0
1806 1 4.192690356426278 14.489752284624004 3.6886305010478937 0 0 1
558 1 6.651184340535847 14.759910832320719 7.060569366517936 0 0 0
787 1 8.814212792788886 13.276979056251152 3.9934852300014514 0 0 0
3810 1 12.8084903606186 14.190261285746486 2.5827865013665905 0 1 1
1948 1 14.29913699072916 13.092884830515676 4.6300909621979915 1 0 1
2775 1 20.046867818848792 12.726039823614283 4.453111853247821 0 1 0
919 1 22.205853704976427 15.020194573374791 5.18467403448504 0 0 0
3900 1 25.97095848548724 12.408160178206549 6.080793155776291 0 1 1
1804 1 27.684441442498613 13.709657735471607 4.3808802493942816 0 0 0
1343 1 30.735009383047938 14.315897526534247 4.044780729106367 0 0 0
3484 1 31.339284138501032 13.937648030488969 6.6509212154560915 0 1 0
2177 1 33.86387630850619 13.65419729261802 5.9494954067891355 -1 0 0
2229 1 34.722248473684246 14.654319606955738 3.749045954097226 0 0 0
1686 1 39.22247035142806 13.28031019277271 3.184248267160301 0 0 1
404 1 37.288668213869315 14.711766940432035 4.900316034827107 0 0 0
668 1 41.94966336958461 13.877549427470148 3.232820737162931 -1 0 0
4075 1 45.87417960228481 12.533191033793537 4.367553267594936 0 1 1
4054 1 -0.5041117505515796 15.810125543050503 3.1969067308083394 0 0 1
3184 1 2.9698371451491012 18.449833710205574 4.423447819443138 0 1 1
1937 1 7.606440745146161 16.1184367411943 4.859674337951746 0 0 0
2668 1 14.357967037567125 15.733126421334635 5.339102817381019 0 0 0
2052 1 19.515089989846764 15.785879793530285 4.42044309438623 0 0 1
3720 1 20.18680918122817 18.58825472276864 5.059046447678721 0 0 1
2034 1 23.78736833585335 15.701004219216802 2.8471197068261214 -1 0 1
2044 1 24.837287506876674 18.148085101888537 5.6825023203640175 0 0 1
452 1 27.260462638943665 16.65934254533058 5.373120376901644 0 0 0
2133 1 28.84074564332108 18.173923079147738 3.6254098019181376 0 1 0
2279 1 31.294829867112078 17.008172428882336 3.9180657363438884 -1 1 0
212 1 33.41563227225723 16.57345858404541 2.2618414383296535 0 0 0
1140 1 37.988523175820745 17.316572233599576 5.030347328669059 0 0 0
484 1 40.77625750690882 18.162663937959817 5.220254948467791 -1 0 0
1046 1 42.08866185895458 15.69273979419459 5.496107997275642 0 0 1
1992 1 44.67944045386007 16.221568516392388 5.69531661283594 -1 0 1
902 1 46.8142999435307 16.81031868766126 3.864270720917835 0 0 1
175 1 49.27016318188943 17.668601013211312 5.0840950928045725 0 0 0
2188 1 0.2284465666197546 19.700479533826503 4.312619466304599 0 0 0
7 1 2.0131630416086175 21.656263573654524 5.681106780643332 1 0 0
2089 1 4.899451629802502 20.10808130144605 3.2618951348384164 0 0 1
1432 1 4.828580526507036 21.4672075561654 5.660560304273077 0 0 1
137 1 7.2451063712051385 19.084151291053892 4.683198192012435 1 0 0
1080 1 9.21179079200318 20.806801052661864 3.742443380031623 0 0 1
3615 1 11.603508740521644 19.597380832093126 4.399892688556947 0 0 1
2536 1 15.562420275004119 20.008215490597422 3.401864738432629 0 0 0
521 1 17.794381220988775 20.10169321432053 5.288294420670179 0 0 0
1711 1 21.947045998568083 20.39454897472437 3.6874972905112617 0 0 1
440 1 25.40969780555894 21.049395380512635 5.721969162934729 0 0 0
1934 1 26.544246269937574 21.509117459952538 3.250151148122641 0 0 1
1430 1 29.228648004617664 20.860207852313625 3.5503410791034664 0 0 1
3096 1 30.187348415434084 20.757188090418275 6.321191796762615 0 0 0
1317 1 32.18242951875227 19.092193294133935 5.630943865480908 0 0 0
3958 1 34.615507632411195 20.76243158873071 5.481574440954237 0 0 0
2945 1 43.23835314278041 20.837262787715268 3.9733088816071103 0 0 0
887 1 45.90912634951745 20.721949839253178 2.9103549033539737 0 0 0
1909 1 47.61391364405439 19.87386157030138 5.452381398947567 -1 0 1
780 1 1.1683061675346536 24.002787383720044 4.076263829563353 0 0 1
1648 1 7.663048179615423 24.11867865104639 3.3198020539729436 1 0 1
2559 1 9.216226379327006 23.008630580040453 5.452189808787716 0 0 0
191 1 39.32613918240129 18.355911553098892 0.1708849803289867 -1 0 0
6 1 18.80152812609442 22.634234274553673 5.322782205287176 0 0 0
465 1 38.79067489434537 0.14603060638843124 9.581360629337823 0 0 0
3877 1 23.154203809339894 22.465088598220895 4.805438989025394 0 0 1
1737 1 21.120094601870967 22.807046368818387 6.566319896061022 0 0 1
2680 1 30.549407410602686 23.525674216277967 6.56771808210499 0 0 0
2841 1 32.28689206162879 24.561298140842503 4.801708791682478 0 0 0
4087 1 37.420970087804236 23.55738874978256 4.7902093461488775 0 0 1
2470 1 43.33103328415011 24.165132284775254 6.8886598881070205 -1 0 0
3571 1 48.23054896330105 24.43412529018309 5.733662561545332 -1 0 1
3365 1 1.5226778443578963 -0.4166774588940143 14.106138683952905 0 1 0
278 1 3.2803112908590393 1.3473033876603908 7.576392340246457 0 0 0
641 1 11.296985922069949 -0.27307117165022826 8.316476962455392 0 0 0
455 1 15.103348282301708 2.0743636597357415 7.703228673398298 0 0 0
3121 1 17.35082218994493 3.211350171091601 6.941880116595668 0 1 0
1198 1 15.743655148652227 0.139433438262762 9.705297396468884 0 0 0
2756 1 18.986129608340963 1.098215471332988 6.390540966764892 0 1 0
2533 1 23.52873789757994 2.121475537645185 9.493526319631753 0 1 0
1863 1 29.46177007841613 4.075875664932673 8.448608404416019 0 0 1
393 1 20.89959032863725 17.192052543536267 16.1351974846568 0 0 0
2804 1 34.07461963487762 0.8444262316455864 9.03415819714906 0 1 0
3721 1 36.08286937264691 0.3017314283924657 6.9210906195261614 0 1 1
2410 1 16.50135582876416 23.078752931556895 16.312356158111534 0 0 0
2377 1 39.601121875246605 2.5334075035252037 7.437394705375588 0 1 0
609 1 41.65688675943662 0.7385443090404558 7.076834410504681 0 0 0
2445 1 49.15943226594386 24.755363372702412 0.6908386545176968 0 0 0
203 1 46.15615321583351 0.5652289900541019 6.826209341866611 -1 0 0
1495 1 48.04953763846926 2.3676075356816373 6.716446526089331 -1 0 1
3517 1 0.6429721541678592 2.7646382039396187 8.067184708133588 0 1 1
2163 1 1.685983205424817 5.614611894564613 7.660139650904842 0 1 0
2215 1 5.051361337218038 3.1260716026925874 6.781784715465513 0 1 0
3842 1 7.007593305407594 4.020779033830279 9.195168608069633 1 1 1
38 1 13.072195802009526 3.9443195635155552 8.111327173268137 0 0 0
3621 1 16.618926267293165 4.879407719797452 4.9974288754660545 1 1 1
1365 1 19.011476515810624 4.730639779593663 8.706701470966154 0 0 0
1988 1 20.853769404444108 4.924651460735877 6.739832573086861 0 0 1
506 1 23.28149085541355 4.669394155676382 8.082759218958943 0 0 0
1501 1 27.471832393928896 2.1196186555861596 8.745818958993828 0 0 1
2866 1 32.569481931252156 6.326699524338882 7.4725754152740205 0 1 0
2350 1 34.963979389084045 5.466256208062664 8.178409853334541 0 1 0
2530 1 40.9437951831661 4.851389109376567 8.947053741820511 0 1 0
751 1 44.07830258661424 4.801844228346489 8.960434706024172 0 0 0
388 1 44.51912348744838 4.977209125570219 6.3505834880899465 0 0 0
1425 1 48.989582921122164 2.990238032418473 9.33957968204358 0 0 1
174 1 0.07531013345564108 7.546048054608731 6.646633188530568 1 0 0
2713 1 9.215180735841669 5.469663722411363 8.580784207287852 0 1 0
563 1 13.027800598187113 6.331772464082637 9.658120868308087 0 0 0
1230 1 15.552920550029128 6.149248696562675 7.468125755936509 0 0 0
627 1 17.213029367859544 8.104706133827905 8.136919110738411 0 0 0
1318 1 19.026938597426682 7.153462223916653 5.999904963199288 1 0 0
1964 1 22.070982016223088 9.895685533730143 7.452048801479785 0 0 1
127 1 25.165965344373788 9.038483621491018 8.188274654339553 -1 0 0
875 1 24.23232666749745 6.743156219073996 9.398363189922492 0 0 0
1752 1 27.62697685984436 4.819310805589352 6.179847396681087 0 0 1
472 1 30.1710144326038 9.026404933954932 7.43890494886368 0 0 0
334 1 39.05896213883662 5.721921439565406 6.795601949409643 0 0 0
435 1 40.115114881690744 7.535131693017817 10.10656624479741 0 0 0
731 1 46.49115202256827 9.11707814684131 6.35300302559262 0 0 0
138 1 48.387365203668026 7.042739192071838 7.274721371891208 0 0 0
281 1 0.4236212136662798 9.625242265478136 8.280457419662653 1 0 0
1065 1 6.548584862743925 7.994035418639905 8.068330668551855 1 0 0
136 1 2.7824893022965176 11.111818181233712 7.776133558448077 0 0 0
639 1 7.227926425993139 12.215516455802986 5.9061249265934 0 0 0
2792 1 8.457151355777325 10.994965638325034 8.011408064285787 1 1 0
2053 1 9.634977171074926 8.51762888674698 7.818089269939836 0 0 1
239 1 12.301195391846312 8.709350686358086 8.852565313643654 0 0 0
660 1 13.526714028071554 9.929213499744806 6.768254083246882 0 0 0
108 1 16.898148249942757 11.911720448581612 6.1326772718140505 1 0 0
1779 1 15.762206478858253 10.712314430237175 8.257553927484265 0 0 1
1877 1 24.338884471964164 11.525961027858155 9.494024825431246 0 0 1
911 1 27.207837995084887 9.499547447132986 10.074189861402454 0 0 0
892 1 27.330365853472188 11.954444143316614 8.485682758184879 0 0 0
877 1 30.123802519536103 11.70986074418943 7.878471345281472 0 0 0
220 1 34.09850261661326 10.859216522374638 5.851907592331898 0 0 0
42 1 35.425746841522056 10.143329001127697 8.189748627141762 0 0 0
829 1 38.01406018346508 10.998263343883101 7.487774688413182 0 0 0
1418 1 40.18708170083269 9.823077597258996 8.703592139578545 -1 0 1
1473 1 42.908611613607405 10.876120676730448 7.875945937899136 0 0 1
3968 1 45.36693168017575 9.574173704134061 8.779139473236684 0 0 1
1645 1 49.537118252428954 11.139630424915717 7.457806863405667 -1 0 1
2658 1 48.03319518856391 10.943609236154863 9.739252303717478 0 0 0
2064 1 1.9769140853620972 13.636706810861721 8.027731832419901 0 0 1
2435 1 -0.41948204586630267 13.601349052245181 6.803663891174435 1 1 0
316 1 4.040743158174043 14.82058566043537 6.389637238778732 0 0 0
853 1 6.146871415580131 14.29081033875141 9.74990083920865 0 0 0
306 1 10.301013963683245 12.966272111291794 7.915539645894931 0 0 0
1398 1 10.993177184825026 11.03853300600049 10.275599573498118 1 0 0
682 1 15.889798707869733 15.632985086229734 7.745873003513662 0 0 0
1685 1 17.905552824630824 14.272930455340102 6.704324550811892 0 0 1
2539 1 19.752499554561194 13.323393713498081 8.701088358399614 0 1 0
59 1 22.626463515654354 13.551333002499929 7.809028386454159 0 0 0
3104 1 22.795346891475777 11.751098018502582 5.705836602833701 0 0 0
643 1 34.6270297667278 14.593167357887923 8.490169461751833 0 0 0
808 1 37.19129575625573 13.726506446837368 7.261092947991129 0 0 0
1487 1 43.53204740749281 13.384891209039676 8.41706142327308 0 0 1
146 1 41.289617048682715 15.162512675060166 8.18320767263653 0 0 0
401 1 45.71126170766695 13.856986708299637 6.705191717521904 0 0 0
2487 1 -0.15471251662610813 17.4864845344379 9.539585321255993 0 0 0
1680 1 4.0185099710696095 17.737767162039653 7.032896433208745 0 0 1
1584 1 10.316912417914082 15.641142175224108 4.6781256528057265 0 0 1
379 1 9.770594098926246 15.964647405644605 7.5991405450858895 0 0 0
1850 1 12.534217664873072 16.41729696773633 7.369929015296723 0 0 1
1826 1 16.50371960647575 17.86776754502203 9.314819700284293 0 0 1
1554 1 23.030074238275553 16.805949322254566 7.15472976026485 0 0 1
2253 1 20.934873229182866 18.394430986363332 7.685191830391332 0 0 0
904 1 24.407203638125516 16.51162984777979 9.671664460588103 0 0 0
344 1 28.30003881594754 16.876358239740227 7.95193918726801 -1 0 0
758 1 31.025251299561745 15.97887161980493 8.432035919579521 0 0 0
2398 1 32.84395628688638 18.450826313057096 8.4053119105854 0 1 0
2273 1 35.391886584106786 17.57718025315535 8.509139570521807 0 0 0
1133 1 42.54276077598196 17.145444188807772 9.641698596992732 -1 0 0
824 1 47.3705849955395 15.524329557107613 8.341360408349246 0 0 0
2914 1 45.1326961348079 17.34380599228485 8.331111305909626 0 0 0
2151 1 49.85982518987581 16.21181299165178 7.3588921406548735 0 0 0
2143 1 2.368870348999855 18.811639297356102 8.94182731822309 1 0 0
628 1 1.6164957073377604 21.27869515553845 8.354981228524272 0 0 0
3822 1 6.55501268127974 18.67878528560217 7.420168508642339 0 0 1
811 1 8.518990618608248 17.748821752957937 9.582318101741155 0 0 1
2791 1 13.028214597043624 19.090356531998065 6.904405109349949 0 0 0
2538 1 11.754391559256124 20.863400012104343 8.718820520373765 0 0 0
3000 1 15.78031976712299 19.730881789720296 7.371204737165373 0 0 1
1122 1 21.103260386043626 20.940635494904154 8.367671610809218 0 0 0
432 1 26.517531749787562 20.950633705675326 8.390330304879337 1 0 0
1905 1 28.793869374760607 19.45379331959002 8.252845133019049 0 0 1
2290 1 32.50901081220505 20.72346650299726 9.48869549094714 0 0 0
3641 1 36.59263648239812 19.104584727423052 6.7356643595025965 0 0 1
1853 1 38.79610880543136 20.486328169409127 8.325572618371476 0 0 1
3989 1 43.77713672215039 21.378294477733057 6.561438436930719 0 0 0
3190 1 41.66591251129462 19.908987772707864 7.46326973841377 0 0 0
1171 1 46.05664822261792 19.654359490981253 7.5892262697263515 0 0 0
772 1 49.62932914169734 21.850989895937275 5.437834453046007 0 0 0
647 1 5.742606051694676 21.110634277891457 8.10577912924354 0 0 0
2009 1 5.940939325047402 23.98635508025216 5.752190003292267 0 0 0
3982 1 7.6872400172046 23.3861740402778 8.14625624178977 0 0 1
1912 1 10.695447356575505 23.456363660477216 8.672621111107958 0 0 1
210 1 16.01350185498206 22.207920496246455 8.792481947136311 0 0 0
2197 1 13.330718853216046 24.030412839881834 0.04023380271354715 0 0 0
2256 1 26.338118588206065 23.86379183236727 8.518368086162868 0 0 0
2334 1 8.369452432244447 21.56740562701796 16.24333477940011 0 0 0
618 1 32.614698240429306 23.294441058705278 8.25876855098314 0 0 0
2555 1 34.749505443242114 23.458123674613574 6.24213872210896 0 0 0
1654 1 36.46724116903518 23.67228924640192 8.835109440455142 -1 0 1
2164 1 38.60713275083201 23.206328065503406 7.312842425077562 0 0 0
637 1 41.01544225872253 10.601639485498147 15.939146400861084 0 0 0
65 1 43.61145481694598 23.076781320199245 9.561066706051557 0 0 0
69 1 48.21612231846541 24.287149527283233 8.912797029909537 0 0 0
449 1 13.52183755976547 8.180001636890196 -0.4431684951375927 0 0 0
1328 1 50.11670275927311 21.547121070056903 8.218576009152496 -1 0 0
2967 1 0.8235668221874939 2.140543632638103 10.906423560015941 0 1 0
2919 1 36.7936450967682 21.535579666125436 16.10293519118364 0 0 0
39 1 4.755556132904201 1.2022002409621957 9.797195001731902 0 0 0
1965 1 7.455705456134622 0.45039064732106215 10.678969465512692 0 0 1
805 1 12.508216165831572 2.2698183589300025 12.312536840606382 0 0 1
742 1 15.134048724799326 2.127727873500613 11.417234158315138 0 0 0
959 1 19.768911836899647 2.501082568764954 12.540560906071711 0 0 0
3711 1 20.4260312253756 2.4171272301430196 9.902398162404742 0 1 1
2816 1 24.452300190485825 1.6755202371685893 12.688240247386194 0 1 0
1018 1 28.99027485586213 2.5784237150936167 12.400174991632673 0 0 0
1071 1 29.261983346480264 0.5212037555030662 10.389824928071627 0 0 1