
# Create simulation box of size 50 x 50 x 50 Angstrom
#
lattice	            sc 1
Lattice spacing in x,y,z = 1.0000000 1.0000000 1.0000000
region 	            all block 0 50 0 50 0 50 units box
create_box          1 all
Created orthogonal box = (0.0000000 0.0000000 0.0000000) to (50.000000 50.000000 50.000000)
  1 by 2 by 3 MPI processor grid

# fill box with 4175 randomly distributed atoms
#
create_atoms        1 random 4175 63782 all
Created 4175 atoms
  create_atoms CPU = 0.000 seconds
mass                1 18.015

# Define potential
#
pair_style          sw
pair_coeff          * * ML_mW.sw mW
Reading sw potential file ML_mW.sw with DATE: 2019-02-27

# Run minimization
#
minimize            1.0e-8 1.0e-8 10000 1000
WARNING: Using 'neigh_modify every 1 delay 0 check yes' setting during minimization (../min.cpp:187)
Neighbor list info ...
  update every 1 steps, delay 0 steps, check yes
  max neighbors/atom: 2000, page size: 100000
  master list distance cutoff = 6.0032907
  ghost atom cutoff = 6.0032907
  binsize = 3.0016454, bins = 17 17 17
  1 neighbor lists, perpetual/occasional/extra = 1 0 0
  (1) pair sw, perpetual
      attributes: full, newton on
      pair build: full/bin/atomonly
      stencil: full/bin/3d
      bin: standard
Per MPI rank memory allocation (min/avg/max) = 4.255 | 4.258 | 4.261 Mbytes
Step Temp E_pair E_mol TotEng Press 
       0            0    7792709.3            0    7792709.3    5898794.3 
     630            0   -45180.336            0   -45180.336   -154.07449 
Loop time of 1.14984 on 6 procs for 630 steps with 4175 atoms

99.1% CPU use with 6 MPI tasks x no OpenMP threads

Minimization stats:
  Stopping criterion = max force evaluations
  Energy initial, next-to-last, final = 
      7792709.32924461  -45180.0188663597   -45180.336116598
  Force two-norm initial, final = 2.0191930e+08 4.9721331
  Force max component initial, final = 1.0948746e+08 0.73126211
  Final line search alpha, max atom move = 0.053306038 0.038980685
  Iterations, force evaluations = 630 1000

MPI task timing breakdown:
Section |  min time  |  avg time  |  max time  |%varavg| %total
---------------------------------------------------------------
Pair    | 0.86921    | 0.97888    | 1.045      |   6.4 | 85.13
Neigh   | 0.023699   | 0.024581   | 0.025493   |   0.4 |  2.14
Comm    | 0.060154   | 0.12631    | 0.23732    |  17.9 | 10.99
Output  | 0          | 0          | 0          |   0.0 |  0.00
Modify  | 0          | 0          | 0          |   0.0 |  0.00
Other   |            | 0.02007    |            |       |  1.75

Nlocal:        695.833 ave         704 max         685 min
Histogram: 1 1 0 0 1 0 0 1 0 2
Nghost:        1494.17 ave        1515 max        1468 min
Histogram: 1 1 0 0 0 0 1 1 1 1
Neighs:        0.00000 ave           0 max           0 min
Histogram: 6 0 0 0 0 0 0 0 0 0
FullNghs:      19997.0 ave       20462 max       19320 min
Histogram: 1 1 0 0 0 0 0 2 0 2

Total # of neighbors = 119982
Ave neighs/atom = 28.738204
Neighbor list builds = 26
Dangerous builds = 0

# Add velocity/set timestep
#
velocity            all create ${TEMP} 120598 rot yes dist gaussian
velocity            all create 220 120598 rot yes dist gaussian
timestep            5.0

# Define output
#
compute	            1 all msd
thermo	            100
thermo_style        custom step temp press vol etotal ke pe c_1[4] density

# Neighbor lists
#
neigh_modify        delay 0 every 1 check yes

# Set fixes
#
fix                 1 all momentum 10 linear 1 1 1 rescale
fix                 2 all nve
fix                 3 all temp/csvr ${TEMP} ${TEMP} 500.0 928347
fix                 3 all temp/csvr 220 ${TEMP} 500.0 928347
fix                 3 all temp/csvr 220 220 500.0 928347
fix                 4 all press/berendsen iso ${PRES} ${PRES} 1000.0 modulus 20000
fix                 4 all press/berendsen iso -300 ${PRES} 1000.0 modulus 20000
fix                 4 all press/berendsen iso -300 -300 1000.0 modulus 20000

# Run 0.5 ns equilibration
#
dump                1 all custom 1000 eq.${NAME}.dump id type x y z vx vy vz
dump                1 all custom 1000 eq.liquid_density_MLmW.dump id type x y z vx vy vz
run                 100000
Per MPI rank memory allocation (min/avg/max) = 3.506 | 3.508 | 3.511 Mbytes
Step Temp Press Volume TotEng KinEng PotEng c_1[4] Density 
     630          220    846.92133       125000   -42443.118    2737.2183   -45180.336 2.7295415e-33   0.99914793 
     700    140.25361   -258.32455    125747.35   -41599.703    1745.0215   -43344.724   0.25899435   0.99320972 
     800    173.36619   -439.06014     125893.4   -40834.618     2157.005   -42991.623   0.59858333   0.99205748 
     900    189.32984   -158.22094    125822.81   -40406.772    2355.6232   -42762.395     1.008787   0.99261405 
    1000    204.88792   -248.84118     126022.9   -40119.885    2549.1952    -42669.08    1.4044245   0.99103808 
    1100    210.06848    -246.3662    126284.88   -39941.461    2613.6512   -42555.112    1.8090059   0.98898213 
    1200    211.17784    -83.34527    126282.77   -39981.301    2627.4538   -42608.755    2.1753424   0.98899865 
    1300     212.5234   -234.29471     126339.1    -39956.19    2644.1951   -42600.385    2.5211957   0.98855773 
    1400    215.08997   -428.76349    126414.98   -39983.024    2676.1281   -42659.153    2.9470974    0.9879643 
    1500    217.82953   -274.87635    126639.91   -39933.931    2710.2134   -42644.144    3.3692716   0.98620953 
    1600    219.26243   -359.09259    126624.37   -39844.708    2728.0415    -42572.75    3.8555402   0.98633058 
    1700     215.6075   -47.380929    126726.43   -39869.228    2682.5672   -42551.795    4.1853567   0.98553625 
    1800     217.2437   -314.21489     126861.2   -39953.488    2702.9247   -42656.413    4.5505228   0.98448926 
    1900    219.68171   -143.41575    127006.64   -39944.609    2733.2581   -42677.867      4.91781   0.98336194 
    2000    218.80021    -357.9922    127156.16   -39898.972    2722.2906   -42621.262    5.2426108   0.98220562 
    2100    221.84821   -188.56587    127150.91   -39876.932    2760.2135   -42637.145    5.4661081   0.98224615 
    2200    220.16023   -275.01605    127257.03   -39915.561    2739.2118   -42654.773    5.7961127   0.98142707 
    2300    227.48541   -163.87034    127275.77   -39920.327     2830.351   -42750.678    6.1162395   0.98128251 
    2400    221.13018   -273.87287    127313.13   -39950.573    2751.2798   -42701.853    6.5097177   0.98099458 
    2500    225.77358   -179.06654    127553.74   -39923.096    2809.0525   -42732.148    6.8427157   0.97914411 
    2600    227.21825   -271.95402    127750.33   -39884.236     2827.027   -42711.263    7.2613845   0.97763734 
    2700    220.86802    -157.8091    128100.97   -39912.353    2748.0181   -42660.371    7.6653578   0.97496135 
    2800      224.828    -335.7022    128104.12   -39931.794    2797.2878   -42729.082    7.9387813   0.97493739 
    2900    221.64724   -397.86931    127862.84   -40024.762     2757.713   -42782.475    8.2739745   0.97677707 
    3000    222.38298   -300.53799    127995.33   -40057.026     2766.867   -42823.893     8.557018   0.97576598 
    3100    224.84525   -494.51373    127929.54    -40045.13    2797.5024   -42842.632    8.8251184   0.97626781 
    3200    222.56346   -190.71046    128151.34   -40101.136    2769.1125   -42870.248    9.1036931   0.97457815 
    3300    222.83335   -231.78086    128245.98   -40121.958    2772.4705   -42894.428    9.4112099    0.9738589 
    3400    221.48798   -277.31115    128229.82   -40173.355    2755.7315   -42929.087    9.6328038   0.97398163 
    3500    220.19917   -278.78326     128315.6   -40207.947    2739.6963   -42947.644     9.970685   0.97333052 
    3600      216.008   -286.07557    128284.82   -40267.476    2687.5501   -42955.027    10.195353   0.97356406 
    3700    217.62879   -220.86132    128434.41   -40325.827    2707.7159   -43033.542    10.355105   0.97243013 
    3800     220.5904   -73.696141    128483.52   -40280.303     2744.564   -43024.867      10.4511   0.97205842 
    3900     217.4068   -371.33855    128576.79   -40313.689     2704.954   -43018.643    10.751823   0.97135329 
    4000    217.31323   -373.93456    128694.28   -40306.685    2703.7898   -43010.475    10.825634   0.97046652 
    4100    221.58974   -410.67612    128562.05   -40312.919    2756.9977   -43069.916    11.061067    0.9714647 
    4200    215.40761    56.526276    128542.35   -40327.282    2680.0802   -43007.362    11.301771   0.97161358 
    4300    220.11385     -411.293    128617.49   -40332.788    2738.6348   -43071.423    11.435677   0.97104597 
    4400    219.50785    -333.4745    128471.65   -40310.833    2731.0949   -43041.928    11.616166   0.97214828 
    4500    214.89383   -222.12141     128519.5   -40294.131    2673.6878   -42967.819    11.849425   0.97178632 
    4600    218.23529    -339.8974    128664.51   -40340.165    2715.2619   -43055.427    12.142436   0.97069106 
    4700    223.97867   -228.10567    128691.16   -40266.248    2786.7204   -43052.968    12.309011   0.97049006 
    4800    220.23287    -304.3916     128577.2   -40330.181    2740.1156   -43070.297    12.402769   0.97135025 
    4900    222.58845   -423.67818    128620.16   -40214.752    2769.4235   -42984.175     12.54208   0.97102575 
    5000    224.33707   -173.37937    128665.88   -40162.125    2791.1796   -42953.304    12.763367   0.97068077 
    5100    224.45625   -513.99836    128741.82   -40243.778    2792.6624    -43036.44    12.813463   0.97010819 
    5200    219.33352   -243.74699    129033.38   -40303.184     2728.926    -43032.11    13.159911   0.96791613 
    5300    218.12849   -91.569526    129187.98   -40280.523    2713.9331   -42994.456    13.383312   0.96675786 
    5400    219.53212   -153.39673     129458.9   -40329.523    2731.3969    -43060.92    13.744873   0.96473472 
    5500    219.70632   -348.23908    129352.65   -40339.833    2733.5643   -43073.397    14.023878   0.96552709 
    5600     219.2428   -320.90673    129172.13    -40357.92    2727.7973   -43085.717    14.145437   0.96687648 
    5700    221.23996   -389.84112    129351.96   -40364.181    2752.6457   -43116.826    14.116808   0.96553227 
    5800    219.56961   -413.48577    129365.94   -40399.294    2731.8633   -43131.157    14.302545   0.96542789 
    5900    217.88096   -356.42473    129609.64   -40425.688    2710.8533   -43136.541    14.456052   0.96361267 
    6000    217.53395   -320.93193    129564.13   -40428.873    2706.5359   -43135.408    14.630246   0.96395114 
    6100    218.09101   -286.34288     129501.6   -40368.868    2713.4668   -43082.335    14.955867   0.96441661 
    6200    219.52341   -293.28698    129574.25    -40447.65    2731.2886   -43178.939    15.127507   0.96387589 
    6300    217.65172    -188.6731    129551.84   -40398.077    2708.0011   -43106.078       15.295   0.96404256 
    6400    221.82738   -305.12888    129491.62   -40374.416    2759.9543    -43134.37    15.639196   0.96449089 
    6500    219.38405   -227.93536    129491.75   -40316.929    2729.5546   -43046.484    15.654485   0.96448992 
    6600    218.62953   -336.54024    129849.62   -40397.203     2720.167    -43117.37    15.925647   0.96183177 
    6700    213.78577   -313.00747     129683.5   -40472.505    2659.9014   -43132.406    16.098907   0.96306388 
    6800    218.21051    -237.4692    129487.84   -40403.536    2714.9536   -43118.489    16.307278    0.9645191 
    6900    224.98221   -252.84877    129612.46   -40356.018    2799.2064   -43155.225    16.370439   0.96359169 
    7000    223.30095   -321.69139    129600.75   -40354.552    2778.2884    -43132.84    16.516832   0.96367879 
    7100    224.68306   -229.74004    129771.66   -40391.675    2795.4844   -43187.159    16.748503   0.96240961 
    7200    220.03306   -211.25892     129753.3    -40466.25    2737.6296    -43203.88    16.774031   0.96254577 
    7300    215.03287   -272.74359    129887.37   -40520.015    2675.4177   -43195.432    16.862687   0.96155222 
    7400    220.55913   -201.95418    130007.16   -40531.024    2744.1749   -43275.199    17.051206   0.96066628 
    7500    216.69885   -302.60156    129908.28   -40494.083    2696.1457   -43190.229    17.112812   0.96139744 
    7600     217.1888   -341.20924    129972.77   -40576.239    2702.2416    -43278.48    17.135447   0.96092043 
    7700     218.7515   -277.31415    129991.01   -40462.567    2721.6845   -43184.252    17.364084   0.96078557 
    7800     219.3926   -118.53512    130047.41   -40440.986     2729.661   -43170.647    17.632865    0.9603689 
    7900    218.70875   -155.46981    130142.58   -40527.155    2721.1527   -43248.308    17.850537   0.95966666 
    8000    217.14602   -321.56381    130200.97   -40499.493    2701.7093   -43201.202    18.157101   0.95923629 
    8100    218.70417   -314.58718    130127.55   -40580.575    2721.0957   -43301.671    18.209214   0.95977748 
    8200    216.89325   -391.00275     130031.6   -40605.426    2698.5643    -43303.99    18.509185   0.96048571 
    8300    216.05157   -331.75848     129921.2   -40598.153    2688.0923   -43286.246    18.633993   0.96130188 
    8400    217.96949   -238.05448     130208.8   -40553.244    2711.9549   -43265.199    18.608798   0.95917858 
    8500    221.28918   -358.43894    130205.08   -40480.954    2753.2581   -43234.212    18.666734   0.95920598 
    8600    223.09154   -429.80584    130390.16   -40494.877    2775.6829    -43270.56    18.850241   0.95784445 
    8700    224.12335   -412.78639    130344.19   -40486.765    2788.5206   -43275.286    19.144003   0.95818229 
    8800     219.1519   -263.93306    130391.82   -40538.643    2726.6663   -43265.309    19.315274   0.95783225 
    8900    219.07214   -404.63081    130233.83   -40627.891    2725.6739   -43353.565    19.360447   0.95899426 
    9000    222.03441   -244.91752    130265.88   -40591.455    2762.5302   -43353.986    19.374422    0.9587583 
    9100    218.57794   -208.73434    130377.84    -40662.56    2719.5251   -43382.085    19.422929   0.95793493 
    9200    219.63261   -275.72644    130320.45   -40570.245    2732.6473   -43302.893    19.675443   0.95835681 
    9300     217.0513     -324.536    130294.69    -40630.41    2700.5308   -43330.941    19.786111   0.95854626 
    9400    217.73673   -208.88816    130185.77   -40579.652    2709.0589   -43288.711    20.109502   0.95934825 
    9500     214.6728   -266.06842    130174.01   -40575.895    2670.9377   -43246.833    20.107962   0.95943492 
    9600    219.74112   -338.85496    130150.19   -40538.955    2733.9972   -43272.952    20.133443   0.95961052 
    9700    223.55506   -230.13708    130298.33   -40473.623      2781.45   -43255.073    20.358291   0.95851953 
    9800     224.2253   -221.43093    130464.27   -40558.485     2789.789   -43348.274    20.456465   0.95730037 
    9900    217.86723    -256.6016    130318.94   -40629.118    2710.6825     -43339.8     20.50075   0.95836795 
   10000    219.41939   -274.46417    130297.34   -40629.309    2729.9943   -43359.304    20.734771   0.95852679 
   10100    218.28651   -290.39176    130405.39   -40590.422    2715.8992   -43306.321    20.678315   0.95773256 
   10200    217.51067   -247.81885    130495.44   -40650.955    2706.2462   -43357.201    20.852385   0.95707172 
   10300    216.11554   -429.28933     130525.6   -40642.541    2688.8882   -43331.429    21.123477   0.95685053 
   10400    219.76916   -240.93199    130541.95   -40586.955    2734.3461   -43321.301    21.311684   0.95673071 
   10500     220.5744   -323.66542    130549.94   -40579.648    2744.3649   -43324.013    21.439606   0.95667215 
   10600    222.31979   -70.208012    130574.04   -40519.931    2766.0809   -43286.012    21.558806   0.95649558 
   10700    222.49125   -155.78394    130748.39   -40506.263    2768.2142   -43274.477    21.577021   0.95522011 
   10800    228.17167   -313.73339    130710.41   -40506.159    2838.8893   -43345.048    21.617026   0.95549765 
   10900      223.538   -337.99185    130749.51    -40522.75    2781.2377   -43303.987    21.864238   0.95521191 
   11000    221.23852   -367.86786    130856.44   -40530.488    2752.6278   -43283.116    22.108257   0.95443136 
   11100    216.76856   -450.77161    130802.53   -40560.547     2697.013    -43257.56    22.157406   0.95482471 
   11200    218.27533   -241.53746     130685.3   -40553.529    2715.7601   -43269.289    22.221748   0.95568124 
   11300    221.16388    -171.6137    130886.78    -40548.84    2751.6992    -43300.54    22.269396   0.95421013 
   11400    218.43055   -335.35126    130898.23   -40555.679    2717.6913    -43273.37    22.520209   0.95412669 
   11500    218.06802   -256.98039    130720.46   -40575.594    2713.1807   -43288.775    22.725061   0.95542421 
   11600    220.83195   -302.85475     130806.5    -40587.41    2747.5693   -43334.979    22.784632   0.95479575 
   11700    220.76983   -280.31886    130746.47   -40493.974    2746.7964    -43240.77    22.981616   0.95523415 
   11800    222.45564   -335.79264     130875.7   -40560.797    2767.7711   -43328.568     23.13503    0.9542909 
   11900    217.03304   -251.90893    131055.34   -40572.885    2700.3036   -43273.188    23.445702   0.95298287 
   12000    218.65468   -341.42118    131002.82   -40571.217    2720.4799   -43291.696    23.710841   0.95336488 
   12100    220.81137   -428.40728    130919.54   -40527.777    2747.3133    -43275.09    23.781711   0.95397137 
   12200    218.49178   -302.96126    130765.36   -40522.955    2718.4531   -43241.408    23.972352   0.95509612 
   12300    217.75172    -395.7617    130625.32   -40537.439    2709.2453   -43246.685    24.198784    0.9561201 
   12400    222.62308   -281.37024    130668.86   -40518.657    2769.8543   -43288.511    24.366364   0.95580149 
   12500    214.63817   -263.42458    130671.67   -40608.027    2670.5069   -43278.534    24.529467   0.95578091 
   12600    224.20695   -318.98244    130670.54   -40528.309    2789.5607   -43317.869    24.582089   0.95578922 
   12700    221.27382   -426.16386    130754.22    -40519.82     2753.067   -43272.887    24.774503   0.95517752 
   12800    223.38717    -331.5819    130543.77   -40496.547    2779.3611   -43275.908    25.170512   0.95671736 
   12900    218.10424   -179.95265    130714.15   -40551.006    2713.6314   -43264.637    25.332478   0.95547033 
   13000    223.07313   -97.646679    130980.28   -40490.181    2775.4538   -43265.635    25.486212   0.95352895 
   13100    223.56036   -412.80917    131101.66   -40482.771    2781.5159   -43264.287    25.700461   0.95264615 
   13200    224.32507   -388.43346    130904.75   -40425.069    2791.0303   -43216.099    25.602222   0.95407915 
   13300     220.5114   -206.42434    130867.37   -40472.727     2743.581   -43216.308    25.666352   0.95435165 
   13400    219.21757   -189.73673    131066.28   -40563.416    2727.4834     -43290.9    26.009884   0.95290331 
   13500    221.94511   -328.57965    130850.01   -40605.618    2761.4191   -43367.037    26.093572   0.95447827 
   13600    219.44665   -389.08681    130749.16   -40630.807    2730.3336   -43361.141     26.08075    0.9552145 
   13700    219.84155   -417.39436    130839.99   -40627.875    2735.2468   -43363.122    26.095638   0.95455137 
   13800    223.53142   -352.05772    130528.26   -40538.124    2781.1559    -43319.28    26.193266   0.95683106 
   13900    219.79462   -323.90345    130400.76    -40576.53     2734.663   -43311.193    26.317955   0.95776658 
   14000    223.62188   -266.21064    130499.78   -40580.236    2782.2814   -43362.517    26.475539   0.95703988 
   14100    222.13987   -300.62548       130605   -40586.393    2763.8423   -43350.236    26.571879   0.95626883 
   14200    221.15542   -486.98152    130678.06   -40630.143    2751.5939   -43381.737    26.684774    0.9557342 
   14300    220.97028   -311.90568    130661.62   -40688.198    2749.2904   -43437.489    26.803383   0.95585442 
   14400    221.87469   -43.886305    130874.68   -40659.522    2760.5429   -43420.065    26.851668   0.95429836 
   14500    220.35726   -225.68619    130898.05   -40614.423    2741.6632   -43356.087    26.955727   0.95412798 
   14600    223.87581   -196.67038     130989.8   -40629.794    2785.4407   -43415.235    27.215736    0.9534597 
   14700    216.59501   -494.85918    131071.74   -40691.277    2694.8537   -43386.131    27.396863   0.95286361 
   14800    216.80197   -258.70168    130986.88   -40729.114    2697.4287   -43426.543    27.440596   0.95348093 
   14900    217.71878   -217.60675    130879.36   -40790.296    2708.8355   -43499.132    27.577268    0.9542642 
   15000    217.67759    -263.3118    130890.16   -40791.098    2708.3231   -43499.421    27.644618   0.95418549 
   15100    217.72372   -375.25435     130684.6   -40815.026    2708.8969   -43523.923    27.598043   0.95568634 
   15200    218.37203    -195.6215    130762.51   -40735.564    2716.9632   -43452.527    27.898003   0.95511697 
   15300    216.47583   -176.66855    130925.74   -40734.147    2693.3708   -43427.518    28.122859   0.95392617 
   15400    218.83465   -419.10453    130770.95   -40730.616     2722.719   -43453.335    28.336942   0.95505528 
   15500    218.14543   -196.80544    130983.34    -40691.45    2714.1439   -43405.594    28.439937   0.95350668 
   15600    220.82225   -228.50436       131086   -40631.035    2747.4486   -43378.483    28.477603   0.95275995 
   15700    216.57372   -220.36203    130949.04    -40721.88    2694.5888   -43416.469    28.272041   0.95375644 
   15800    218.86304   -133.94535    131122.49   -40711.557    2723.0723    -43434.63    28.469402   0.95249479 
   15900    218.06932   -355.17544    130988.39   -40751.739    2713.1969   -43464.936    28.660828   0.95346992 
   16000    217.95057   -77.043633    131174.97   -40693.545    2711.7195   -43405.265    28.774288   0.95211377 
   16100    220.37968   -300.12742    131135.85   -40647.293    2741.9421   -43389.235    28.855983   0.95239778 
   16200    216.30029   -484.96538    130990.24   -40705.439    2691.1868   -43396.626    28.894373   0.95345645 
   16300    216.87951   -191.13735    131090.98   -40716.676    2698.3935    -43415.07    29.094331   0.95272373 
   16400    226.25254   -363.04635    130952.76    -40640.41    2815.0118   -43455.422    29.157464   0.95372936 
   16500    223.04154   -196.44125    130993.31   -40635.041    2775.0608   -43410.102    29.246301   0.95343413 
   16600    221.74018    -469.1965    130914.71   -40616.429    2758.8694   -43375.298      29.3639   0.95400657 
   16700    221.99181   -352.60146    130846.46   -40654.072    2762.0002   -43416.072    29.656493   0.95450419 
   16800    221.30088   -281.81128    130852.67   -40645.825    2753.4037   -43399.229     29.88282   0.95445883 
   16900     219.3538   -317.79435     130948.5   -40614.447    2729.1783   -43343.626      30.0021   0.95376038 
   17000    221.72704   -421.51318     131014.7   -40627.584     2758.706    -43386.29    30.030113   0.95327844 
   17100    220.23221   -392.96451    130958.77   -40556.605    2740.1074   -43296.712    30.119894    0.9536856 
   17200    222.81912   -404.33317    131075.01   -40574.472    2772.2935   -43346.766    30.282055   0.95283986 
   17300    225.10411   -169.69638    131208.53   -40646.237    2800.7231    -43446.96    30.456833    0.9518702 
   17400    222.05976    -246.8157    131316.02   -40672.344    2762.8456    -43435.19    30.631299   0.95109106 
   17500    222.85146   -403.85829    131187.68   -40673.034    2772.6959    -43445.73     30.72662   0.95202149 
   17600    219.23358   -282.29237    131239.79   -40652.146    2727.6826   -43379.828    30.790785   0.95164352 
   17700    222.83814   -286.31124    131187.17   -40675.395    2772.5301   -43447.925    30.853757   0.95202519 
   17800    219.02941   -389.52042    131261.97   -40673.412    2725.1423   -43398.554    30.942679   0.95148272 
   17900    222.77866   -114.76006    131276.32   -40635.287    2771.7901   -43407.077    31.039711   0.95137869 
   18000    224.25165   -322.84936    131497.78   -40586.915    2790.1169   -43377.032    31.183937   0.94977643 
   18100     220.2775   -139.85091     131447.2   -40689.038    2740.6709   -43429.709    31.341297   0.95014189 
   18200    219.68725   -223.84509    131710.78   -40674.027     2733.327   -43407.354    31.534071   0.94824044 
   18300    224.41052   -304.21339    131716.12   -40603.132    2792.0935   -43395.225     31.60851     0.948202 
   18400    222.70736   -264.60544    131681.41   -40674.911     2770.903   -43445.814    31.811261   0.94845192 
   18500    224.39087   -411.30648    131523.67   -40645.948     2791.849   -43437.797    31.770459   0.94958948 
   18600    218.90434   -400.88887    131342.54    -40703.55    2723.5862   -43427.136    31.770244   0.95089904 
   18700    221.66841   -263.42994    131266.68   -40670.382    2757.9764   -43428.358    31.767636   0.95144852 
   18800     221.3389   -229.19057    131284.56   -40655.241    2753.8767   -43409.118    31.967415   0.95131896 
   18900    224.53844   -348.92014    131493.38   -40696.859    2793.6851   -43490.545    32.159271   0.94980823 
   19000    222.67061   -296.36115    131745.52   -40680.094    2770.4458    -43450.54    32.298135    0.9479904 
   19100    219.53554   -288.73351    131735.27   -40754.769    2731.4395   -43486.208    32.336219    0.9480642 
   19200    225.32905   -436.05247    131654.71   -40741.745    2803.5217   -43545.267    32.508063    0.9486443 
   19300    222.93272   -333.12671    131785.61   -40699.267    2773.7068   -43472.974    32.669352   0.94770204 
   19400    223.52896   -367.93093    131531.41   -40702.466    2781.1252   -43483.592     32.61213   0.94953356 
   19500    225.09883   -114.28299    131535.92   -40705.546    2800.6574   -43506.204    32.616831   0.94950099 
   19600    219.00083    -426.1826    131509.59   -40741.799    2724.7867   -43466.585    32.742108   0.94969112 
   19700    219.51441   -336.76116    131302.53   -40717.331    2731.1766   -43448.508    32.839139   0.95118877 
   19800    220.48041   -519.54428    131200.12   -40756.402    2743.1955   -43499.597    32.707267    0.9519312 
   19900    223.29307    -242.0951    131159.98   -40753.508    2778.1903   -43531.698    33.034662   0.95222256 
   20000    216.84562   -108.85102    131329.92   -40802.946    2697.9718   -43500.918    33.195998   0.95099038 
   20100    224.26384   -432.76299    131337.95   -40778.344    2790.2685   -43568.612    33.172272   0.95093227 
   20200    221.51662   -144.97452    131332.94    -40823.25    2756.0879   -43579.338    33.264484    0.9509685 
   20300    216.38603   -204.24871    131267.84   -40847.922    2692.2536   -43540.176     33.29454   0.95144011 
   20400    219.86054   -378.20769    131415.98   -40845.634    2735.4831   -43581.117    33.298863    0.9503676 
   20500    218.37019   -294.14063    131527.18   -40800.441    2716.9403   -43517.381    33.340643   0.94956414 
   20600    220.11115   -81.179829    131510.76   -40833.445    2738.6012   -43572.046    33.473403    0.9496827 
   20700    221.62555   -17.029313    131666.31   -40776.044    2757.4432   -43533.488    33.740625    0.9485607 
   20800     218.4255    -295.5947    131819.17   -40782.387    2717.6285   -43500.016     34.04335   0.94746073 
   20900    220.00451    -456.0547    131789.88   -40819.963    2737.2743   -43557.237    34.117806   0.94767133 
   21000    217.97714   -256.05016    131719.39   -40910.936    2712.0501   -43622.986    34.136476   0.94817847 
   21100    215.32684   -208.09776    131802.49   -40924.869    2679.0752   -43603.944     34.14077   0.94758067 
   21200    217.64208   -384.64679    131784.37   -40909.349    2707.8813    -43617.23    34.443971   0.94771093 
   21300    217.79826   -185.92062    131907.77   -40914.003    2709.8244   -43623.827    34.615823   0.94682438 
   21400    218.96927   -220.85427    131956.62   -40886.907    2724.3941   -43611.301    34.464784   0.94647389 
   21500    215.33382   -402.09786    131942.98   -40886.123    2679.1622   -43565.285    34.215617    0.9465717 
   21600    220.02845   -177.67511    131910.13   -40836.938    2737.5722   -43574.511    34.189659    0.9468074 
   21700    223.86006    -155.8248    131854.22   -40794.717    2785.2447   -43579.961    34.219624   0.94720889 
   21800    224.92838   -363.94991    131714.95   -40792.115    2798.5367   -43590.652    34.337687   0.94821044 
   21900    219.53864   -282.36747    131609.14   -40812.249     2731.478   -43543.727    34.484284   0.94897278 
   22000    219.59108    -259.0617    131556.36   -40843.782    2732.1305   -43575.913     34.49667   0.94935348 
   22100    227.96911   -392.49867    131764.47   -40786.362    2836.3692   -43622.732    34.741886   0.94785408 
   22200     215.2622   -258.10916    131824.26   -40819.099     2678.271    -43497.37     34.93575   0.94742421 
   22300    223.58602   -206.67738     131963.1   -40790.403    2781.8352   -43572.238    35.244216   0.94642739 
   22400    223.94857   -525.66776    131827.92   -40767.017     2786.346   -43553.363    35.145807   0.94739787 
   22500    220.17008   -256.36473    131712.49   -40778.778    2739.3344   -43518.113    35.013426   0.94822818 
   22600    218.88643   -461.25528    131798.05   -40747.081    2723.3633   -43470.444     35.10564    0.9476126 
   22700    222.41293   -217.85158    131831.43   -40743.799    2767.2397   -43511.038    35.202685   0.94737265 
   22800    218.13436   -157.50417    131921.97   -40720.049    2714.0062   -43434.055    35.438398   0.94672248 
   22900    227.20203   -305.45202    131848.84    -40770.93    2826.8252   -43597.755    35.551548   0.94724759 
   23000    220.71176   -313.16032    131799.56   -40751.344    2746.0739   -43497.418     35.56495   0.94760173 
   23100    217.12425   -248.71956    131975.55   -40858.147    2701.4384   -43559.586    35.683256   0.94633809 
   23200     217.9116   -431.66693    131760.57   -40820.419    2711.2346   -43531.653    35.549818   0.94788217 
   23300     217.8271   -300.87547    131780.35   -40869.852    2710.1833   -43580.035    35.735068   0.94773989 
   23400    223.98425   -164.78506    131955.13    -40799.31    2786.7899     -43586.1    35.742322   0.94648456 
   23500    219.45589   -388.63637    131987.35   -40836.591    2730.4485    -43567.04    35.840326    0.9462535 
   23600     219.2528   -350.82032    131829.88   -40824.619    2727.9216   -43552.541    35.933241   0.94738382 
   23700    217.19132   -235.46071    132007.16   -40855.959     2702.273   -43558.232    36.129057   0.94611146 
   23800    217.37331    -241.3301    131894.13   -40930.806    2704.5372   -43635.343    36.040602    0.9469223 
   23900    214.34393   -316.97992    131903.54   -40929.814     2666.846    -43596.66    36.153405   0.94685474 
   24000    220.57145   -477.85856    131866.21   -40856.228    2744.3282   -43600.556    36.229438   0.94712276 
   24100      218.849   -330.77721    131909.11   -40856.866    2722.8977   -43579.764    36.206198   0.94681472 
   24200    212.94874   -417.79898    131958.76   -40913.965    2649.4871   -43563.452     36.46736   0.94645848 
   24300    220.23717   -102.59182    131935.92   -40885.887    2740.1691   -43626.056    36.667665   0.94662233 
   24400    219.20353   -301.05742    131806.28   -40927.536    2727.3086   -43654.845    36.560927   0.94755342 
   24500    214.66464   -295.64668    131753.24   -40862.103    2670.8362   -43532.939    36.913869   0.94793487 
   24600    220.52023    -395.7646    131649.24   -40837.567    2743.6909   -43581.258    36.967506   0.94868373 
   24700    216.85099   -394.82335    131656.96    -40850.82    2698.0386   -43548.859    37.073636   0.94862808 
   24800    218.08151   -284.11853    131659.38   -40847.527    2713.3486   -43560.876    36.945761   0.94861063 
   24900    223.36988   -309.80244    131668.89    -40797.54     2779.146   -43576.686    37.144877   0.94854218 
   25000    219.10489   -360.67494    131737.23   -40778.219    2726.0813   -43504.301    37.190287   0.94805009 
   25100    223.23119    -79.15251     131799.3   -40780.666    2777.4203   -43558.086    37.308742   0.94760358 
   25200    219.73766   -228.91064    132121.03   -40821.104    2733.9543   -43555.058    37.192988   0.94529609 
   25300     219.2455    -366.5224    131905.95   -40835.532    2727.8309   -43563.363    37.382996    0.9468374 
   25400    222.86485   -412.16095    131935.55   -40836.757    2772.8624   -43609.619     37.44397   0.94662502 
   25500    217.81965    -480.1782    131989.63   -40800.652    2710.0905   -43510.743    37.321598   0.94623717 
   25600    218.01361   -97.084268    132041.63   -40880.486    2712.5038    -43592.99    37.367513   0.94586452 
   25700    218.66186   -341.17095    132076.07   -40901.588    2720.5692   -43622.157    37.645837   0.94561784 
   25800    221.08543   -459.13681    131909.81   -40890.511     2750.723   -43641.234    37.784223   0.94680972 
   25900    219.05773   -271.29452    131840.86   -40849.928    2725.4946   -43575.422    37.817096   0.94730488 
   26000    218.67053   -239.56033    131819.71   -40775.146    2720.6771   -43495.823    37.918785    0.9474569 
   26100    217.03418    -313.5961    131877.88   -40852.981    2700.3178   -43553.299     38.02192   0.94703894 
   26200     221.6881   -320.99473    131920.98   -40844.965    2758.2214   -43603.187    38.282496   0.94672959 
   26300    220.89732   -332.72307    131842.44   -40824.785    2748.3826   -43573.168    38.231097   0.94729355 
   26400    226.12828   -333.60662    131806.17   -40813.265    2813.4657   -43626.731    38.391558   0.94755419 
   26500    217.04163   -254.33546     131706.5   -40866.603    2700.4105   -43567.014    38.364421   0.94827127 
   26600    218.69206   -245.26009    131893.83   -40903.569     2720.945   -43624.514    38.405769   0.94692447 
   26700    219.73132   -249.25901    131995.82   -40935.147    2733.8753   -43669.022    38.581474   0.94619275 
   26800    223.02739   -175.97266    131920.04   -40859.622    2774.8847   -43634.507    38.573224   0.94673629 
   26900    221.87773   -189.40547     132045.7   -40854.147    2760.5808   -43614.727    38.508733   0.94583534 
   27000    217.65129   -245.21073    132059.72   -40896.302    2707.9958   -43604.298    38.607854   0.94573497 
   27100    219.64034   -436.90163    132001.23   -40908.404    2732.7434   -43641.147    38.781874   0.94615399 
   27200    217.84665   -334.06836    131961.22   -40929.203    2710.4264    -43639.63    38.763152   0.94644087 
   27300    215.02022   -344.01582       131886   -40961.316    2675.2603   -43636.577    38.847637   0.94698068 
   27400    223.59915    -173.8824    131839.67   -40905.937    2781.9986   -43687.935    38.893047   0.94731341 
   27500    225.82884   -285.44993    131967.84   -40838.599    2809.7401   -43648.339    39.050436   0.94639339 
   27600    226.00318   -168.22805    131992.58   -40875.262    2811.9092   -43687.171    39.068851   0.94621598 
   27700     218.4207   -412.05735    131895.04   -40885.232    2717.5688   -43602.801    39.162215   0.94691578 
   27800    223.56158   -267.62999    131937.92   -40823.162    2781.5311   -43604.693    39.156575   0.94660801 
   27900    219.74072    -201.5637    132066.64    -40839.24    2733.9924   -43573.232    39.107182   0.94568536 
   28000    221.32266   -215.86749    132082.53   -40875.362    2753.6746   -43629.037    39.134813   0.94557159 
   28100    218.10948   -356.54121    132052.66   -40858.614    2713.6966    -43572.31    39.398546   0.94578551 
   28200    221.26896   -318.43476    132323.22   -40905.927    2753.0065   -43658.934    39.636869   0.94385169 
   28300    218.36608   -236.35905    132361.63    -40892.87    2716.8891    -43609.76    39.680285   0.94357778 
   28400    221.47461   -551.03448    132394.68    -40935.31    2755.5652   -43690.875     39.63868   0.94334224 
   28500    215.25435   -366.02473    132437.53   -40963.429    2678.1734   -43641.602    39.641482     0.943037 
   28600    220.15042   -333.74649    132398.42   -40918.277    2739.0898   -43657.367    39.608448   0.94331556 
   28700     215.8448   -402.38103    132452.08   -40939.837    2685.5196   -43625.357    39.679437   0.94293342 
   28800    219.04793   -345.93084    132296.68    -40901.73    2725.3727   -43627.103     39.78083   0.94404098 
   28900    219.86361   -247.96281    132191.16   -40871.227    2735.5213   -43606.748    39.982043   0.94479455 
   29000    218.65853   -243.19826    132432.66   -40948.564    2720.5278   -43669.092    39.946556   0.94307171 
   29100    218.48015    -371.6063    132270.22   -40902.811    2718.3084    -43621.12    39.977164   0.94422987 
   29200    222.87418   -404.12733    132326.15   -40872.917    2772.9785   -43645.895    40.215343   0.94383076 
   29300    216.88393   -356.87372    132106.16   -40943.888    2698.4485   -43642.336    40.227053   0.94540247 
   29400    217.36126   -290.86463    131953.39   -40996.951    2704.3874   -43701.338    39.980848   0.94649703 
   29500    214.62321    -311.6341    131744.39   -41022.245    2670.3207   -43692.565    40.100535   0.94799854 
   29600     216.1202   -373.07791    131707.26   -40934.528    2688.9462   -43623.474    39.900013    0.9482658 
   29700    217.60207   -286.13366    131690.42    -40975.43    2707.3834   -43682.814    40.119017   0.94838704 
   29800    218.36467   -302.54952    131625.11   -40961.812    2716.8717   -43678.684    40.201879   0.94885764 
   29900    216.02728   -328.28404    131689.92   -40998.738      2687.79   -43686.528     40.31018   0.94839067 
   30000    220.80949   -426.14596    131882.62   -40982.022    2747.2898   -43729.312    40.471118   0.94700494 
   30100     220.7598   -340.12289    131759.17   -40973.293    2746.6716   -43719.965    40.576253   0.94789222 
   30200    219.39356   -439.00704     131545.3   -40989.379     2729.673   -43719.052    40.593991   0.94943333 
   30300    222.83003   -237.41558     131495.7   -40948.891    2772.4292    -43721.32    40.591257   0.94979141 
   30400    219.57575   -295.36425    131595.91   -40919.529    2731.9398   -43651.469    40.853768   0.94906817 
   30500    219.33122    -338.8643    131551.72   -40923.289    2728.8974   -43652.186     40.92973   0.94938698 
   30600    216.12849   -273.90061    131705.17   -40902.171    2689.0494   -43591.221    40.870142   0.94828085 
   30700    216.95941     -331.607    131610.14   -40923.678    2699.3876   -43623.065    40.759418   0.94896553 
   30800    227.48464   -299.63299    131806.48   -40858.707    2830.3414   -43689.048    41.156556   0.94755198 
   30900    219.49773   -379.14045    131626.05   -40983.187     2730.969   -43714.156    41.365802   0.94885086 
   31000    211.13094   -334.62245    131686.04   -40998.748    2626.8703   -43625.618    41.281847   0.94841862 
   31100    211.93397   -323.97639     131682.7   -40989.988    2636.8615   -43626.849     41.26297    0.9484427 
   31200    214.73646   -228.04384    131571.51   -41008.556    2671.7298   -43680.285    41.099386   0.94924416 
   31300    222.90698   -262.00985    131685.45   -40964.992    2773.3867   -43738.379    41.248658   0.94842283 
   31400    215.51545   -262.51702    131622.01   -40934.522    2681.4219   -43615.943    41.345633   0.94887997 
   31500    217.51076   -334.75674    131653.07   -40988.266    2706.2474   -43694.513    41.482097   0.94865614 
   31600    219.71119   -291.46655    131890.79   -40919.789    2733.6249   -43653.414    41.688893   0.94694629 
   31700    220.04122   -492.95193     131845.1   -40961.195    2737.7312   -43698.926    41.669017   0.94727444 
   31800      223.786   -340.04435    131865.38   -40899.551    2784.3233   -43683.874     41.79139   0.94712873 
   31900    221.92283   -488.43023    131775.77   -40882.889     2761.142   -43644.031     41.84003   0.94777279 
   32000    219.50731   -221.69014    131586.13   -40892.058    2731.0882   -43623.146    42.018783   0.94913872 
   32100    221.10828   -290.83436    131786.48   -40893.845    2751.0074   -43644.853    42.010676   0.94769582 
   32200    223.03016   -321.92527    131910.65   -40898.215    2774.9193   -43673.135    42.190049   0.94680372 
   32300     222.4942   -453.97039    131963.31   -40895.325    2768.2508   -43663.576     41.95355   0.94642587 
   32400    219.15953   -421.58368    132070.37   -40959.346    2726.7612   -43686.107    42.090758   0.94565866 
   32500    215.88077   -194.40891    131895.76   -40970.725    2685.9673   -43656.692    42.225696   0.94691055 
   32600    218.85471   -459.64499    131815.78   -40911.902    2722.9686   -43634.871    42.379489   0.94748515 
   32700     219.9683   -111.07383    131947.95    -40970.41    2736.8238   -43707.234    42.385661   0.94653607 
   32800    217.96215   -300.09396    132080.53   -40997.015    2711.8635   -43708.878    42.476519   0.94558592 
   32900    220.79138   -111.42993    132162.29   -40991.624    2747.0645   -43738.689     42.39941   0.94500094 
   33000    217.66525   -444.54794    132114.81   -41045.861    2708.1696   -43754.031    42.441103    0.9453406 
   33100    221.64785   -241.82578    132303.39   -40968.564    2757.7206   -43726.284    42.780889   0.94399315 
   33200    220.70378     -286.751     132262.9   -41007.383    2745.9747   -43753.357    42.970956   0.94428212 
   33300     218.9444   -242.06281    132367.39    -40942.64    2724.0846   -43666.725    43.014111   0.94353669 
   33400    216.71895   -401.77157    132288.96   -41046.468    2696.3958   -43742.864    42.938247    0.9440961 
   33500     223.7844   -216.14735    132253.66   -41018.448    2784.3034   -43802.751    42.891541   0.94434805 
   33600    223.73996   -166.26552    132304.47   -40985.223    2783.7505   -43768.973    43.214831   0.94398542 
   33700    217.58176   -420.84415    132376.72   -40973.797    2707.1308   -43680.928    43.228685   0.94347022 
   33800    215.25088   -309.52331    132439.56   -40959.898    2678.1301   -43638.029    43.383097   0.94302255 
   33900    216.58608   -227.44732    132527.26    -40957.17    2694.7426   -43651.913    43.372923   0.94239849 
   34000    221.32454   -269.53971    132426.62   -40932.542     2753.698    -43686.24    43.164382   0.94311469 
   34100    223.60605   -387.87651    132483.35    -40973.81    2782.0843   -43755.894     43.20368   0.94271088 
   34200    219.94576   -411.14837    132358.35   -40989.176    2736.5434   -43725.719    43.367154   0.94360112 
   34300    218.66841   -120.55094    132263.17   -41040.171    2720.6507   -43760.821    43.376568   0.94428016 
   34400    216.84417   -295.27126    132314.06   -40970.553    2697.9537   -43668.507    43.509261   0.94391701 
   34500    222.31148   -175.03914    132275.62   -41002.221    2765.9774   -43768.198    43.597846   0.94419132 
   34600    224.74382   -280.68389    132418.62   -40991.004    2796.2404   -43787.245    43.754559   0.94317168 
   34700    220.78899   -527.76295    132441.16   -41073.587    2747.0348   -43820.622    43.774471   0.94301113 
   34800    216.52924   -319.10452    132429.63   -41058.194    2694.0354    -43752.23    43.946811   0.94309328 
   34900    214.93773   -292.64699    132287.22    -41076.67     2674.234   -43750.904    43.993569   0.94410849 
   35000    215.71956   -172.31148    132320.21   -41143.027    2683.9615   -43826.989    44.103065   0.94387313 
   35100    220.46255   -254.56835    132553.23   -41071.729    2742.9733   -43814.702    44.082329   0.94221388 
   35200     220.1279   -349.79135    132764.83    -41072.58    2738.8095    -43811.39     44.09602    0.9407122 
   35300    216.90397   -307.61759    132660.28   -41056.597    2698.6978   -43755.295    44.228639   0.94145354 
   35400    217.48972   -386.30026    132553.95   -41088.297    2705.9855   -43794.283    44.191618   0.94220874 
   35500    220.59162   -367.80851       132544   -40972.485    2744.5792   -43717.064    44.212996   0.94227948 
   35600    216.91193   -117.48017    132475.47   -41005.659    2698.7967   -43704.455    44.176358   0.94276692 
   35700    219.41129   -210.74769    132454.86   -40960.957    2729.8935   -43690.851    44.309117   0.94291365 
   35800    219.13969   -375.59583    132503.87    -41002.39    2726.5144   -43728.904    44.152359   0.94256487 
   35900    219.06648   -354.11271    132596.06   -40957.954    2725.6035   -43683.558     44.29043   0.94190955 
   36000    221.30041   -347.16526    132690.03   -40911.512    2753.3978   -43664.909    44.332194   0.94124247 
   36100    220.85536   -359.30231    132534.24   -40937.581    2747.8605   -43685.441    44.511491   0.94234886 
   36200    219.62888   -252.66571    132565.38   -40971.351    2732.6008   -43703.951    44.787683   0.94212754 
   36300     219.0395   -452.12212    132506.37   -41036.209    2725.2677   -43761.476    44.754316    0.9425471 
   36400    221.04401   -267.90674    132799.86   -40989.451    2750.2077   -43739.659    44.794198   0.94046404 
   36500    218.74804   -290.12933    132829.75   -40970.338    2721.6415   -43691.979    44.764165   0.94025237 
   36600    222.12118   -246.92637    132930.41   -41115.497    2763.6097   -43879.107    44.737775   0.93954041 
   36700    218.73556    -219.7347    132718.63   -41062.053    2721.4862   -43783.539    44.830404    0.9410396 
   36800    219.13814   -251.10185     132649.1   -41058.649    2726.4951   -43785.144     44.88691   0.94153287 
   36900    217.40618   -307.80022    132716.65    -41079.62    2704.9462   -43784.566    44.913746   0.94105365 
   37000    219.46462   -301.09842    132752.36   -41028.586    2730.5571   -43759.143    44.891012   0.94080054 
   37100    221.39399   -232.75101    132911.17   -41004.934    2754.5621   -43759.496    45.170644   0.93967643 
   37200     217.8985     -460.499    132751.03    -41074.97    2711.0716   -43786.042    45.410154   0.94080992 
   37300    217.73489   -388.65498    132592.44   -41085.245    2709.0359   -43794.281    45.265108   0.94193524 
   37400    220.20549   -313.74742    132622.25   -41120.353    2739.7749   -43860.128    45.570492    0.9417235 
   37500    219.58143    -115.6442    132675.65   -41126.392    2732.0104   -43858.403    45.653748   0.94134447 
   37600    217.85381   -294.12187    132950.12    -41076.89    2710.5156   -43787.406    45.966673   0.93940115 
   37700    216.83241    -340.6274    132915.88   -41083.505    2697.8074   -43781.313    45.934331   0.93964313 
   37800    212.69264     -449.092    132891.71   -41186.441    2646.3008   -43832.742    45.795352   0.93981401 
   37900    216.26281   -194.63029    132737.28    -41140.91    2690.7205    -43831.63    45.876093   0.94090743 
   38000    216.52613   -442.32864    132704.47   -41111.296    2693.9967   -43805.293    45.888656   0.94114002 
   38100    217.71941   -337.64097    132700.18   -41051.728    2708.8433   -43760.571    45.780136   0.94117048 
   38200    219.69126   -274.34803    132697.04   -41065.817    2733.3769   -43799.194     45.70122   0.94119273 
   38300    221.27574   -247.37262    132658.49   -41008.607    2753.0909   -43761.698    45.792815   0.94146623 
   38400    220.38418   -391.66098    132720.67   -41080.348    2741.9982   -43822.346    45.678067   0.94102519 
   38500     217.4474   -323.42507    132799.14   -41098.939    2705.4591   -43804.398    45.918838   0.94046915 
   38600     220.3055    -233.8423    132676.68   -41063.064    2741.0193   -43804.084    46.098935   0.94133719 
   38700    219.70881   -229.29672    132641.76   -41069.369    2733.5952   -43802.964    46.125805   0.94158501 
   38800    218.14743   -293.90828    132614.14   -41106.574    2714.1688   -43820.743    46.125665   0.94178113 
   38900    223.44458   -325.37264    132557.67   -41068.682    2780.0754   -43848.757    46.120888   0.94218232 
   39000    221.52828   -400.56683    132563.06    -41122.11     2756.233   -43878.343    46.077748   0.94214398 
   39100    220.52435   -278.41392    132764.58   -41085.902    2743.7422   -43829.645    46.406275   0.94071392 
   39200    219.90821   -219.96905     132737.8   -41108.853    2736.0763   -43844.929    46.386729   0.94090369 
   39300    219.25041   -324.69786    132894.41   -41099.539     2727.892   -43827.431    46.537109    0.9397949 
   39400    220.45075   -446.20551    132967.41   -41058.124    2742.8264    -43800.95    46.534049   0.93927896 
   39500    219.41156   -271.42082    132961.46   -41055.075    2729.8969   -43784.972    46.594156   0.93932097 
   39600    222.27133    -368.6257    133011.32    -41100.98    2765.4779   -43866.457    46.803535   0.93896888 
   39700    222.86764   -456.30867    133059.04   -41052.922    2772.8971   -43825.819    46.755428   0.93863213 
   39800    219.49603   -274.59971    132971.43    -41116.86    2730.9479   -43847.808    46.670947   0.93925056 
   39900    211.47823   -410.54572    132889.46   -41155.145    2631.1913   -43786.336    46.701163   0.93982991 
   40000    213.83353   -324.67715    133111.68   -41181.163    2660.4957   -43841.659    46.922947   0.93826093 
   40100     220.8332   -293.06116    133025.35   -41087.982    2747.5848   -43835.567    46.866356   0.93886984 
   40200     220.0855   -333.17615    132974.88   -41113.928     2738.282    -43852.21    46.741812   0.93922617 
   40300     221.8387   -359.41222     132983.7   -41090.961    2760.0952   -43851.056    46.821528   0.93916388 
   40400    223.03822   -342.63343    132772.94   -41004.038    2775.0195   -43779.057     47.17119    0.9406547 
   40500    219.49116    -377.2808     132800.1   -41019.681    2730.8874   -43750.568    47.184241   0.94046233 
   40600    224.88905    -211.9692     132824.6   -41076.175    2798.0473   -43874.222     47.06256   0.94028885 
   40700    220.60903   -312.09235    132794.93   -41121.301    2744.7957   -43866.096    47.017304   0.94049891 
   40800    217.89406   -457.15318    132923.95   -41167.112    2711.0163   -43878.129    47.086559   0.93958607 
   40900    217.38218   -279.68353    132845.19   -41175.486    2704.6476   -43880.133    46.964985   0.94014315 
   41000    213.83032   -327.10701    132739.26   -41076.123    2660.4557   -43736.578    47.031857   0.94089337 
   41100    221.78643   -384.43219    132823.94   -41049.052    2759.4448   -43808.497    47.298499   0.94029353 
   41200     219.5404   -382.96971    132741.29   -41065.236    2731.4999   -43796.736    47.268609   0.94087897 
   41300    214.79031     -360.539    132928.91   -41215.945    2672.3999   -43888.344    47.410427   0.93955101 
   41400    219.68086   -186.18454    133008.68   -41156.969    2733.2475   -43890.217    47.333929   0.93898749 
   41500    217.09994   -315.05891    132948.38   -41158.999     2701.136   -43860.135    47.391629    0.9394134 
   41600    218.21412   -250.67064    132923.82   -41131.209    2714.9985   -43846.207    47.483585     0.939587 
   41700    220.97264   -308.72714    132989.19   -41112.626    2749.3197   -43861.945    47.405178   0.93912515 
   41800    215.38358   -312.46566    132911.29    -41142.53    2679.7812   -43822.311    47.289289   0.93967554 
   41900    222.70278   -249.03461     132819.2   -41109.799     2770.846   -43880.644    47.432217   0.94032707 
   42000     223.6544   -182.57234    132777.97   -41106.026    2782.6859   -43888.712    47.605036   0.94061907 
   42100    220.60551   -232.30726    132940.33   -41103.101    2744.7519   -43847.853    47.395686   0.93947026 
   42200    219.16046   -377.80596    132976.98   -41046.849    2726.7727   -43773.622    47.605021   0.93921137 
   42300    222.76686    -219.4557    132936.85   -41030.239    2771.6433   -43801.883    47.600871   0.93949486 
   42400     221.2984   -374.13889    132909.94   -41070.531    2753.3728   -43823.904    47.761856   0.93968513 
   42500    219.23979   -341.97968    132861.86    -41071.33    2727.7598    -43799.09    47.739819   0.94002518 
   42600    220.14981   -306.26258    132890.53   -41067.298    2739.0822    -43806.38      47.6632   0.93982235 
   42700    219.34247   -168.53506    132898.53   -41077.463    2729.0374     -43806.5    47.903905   0.93976576 
   42800    227.39371   -289.10477    132846.14   -41031.001    2829.2101   -43860.211    48.034828   0.94013641 
   42900    221.60354   -214.79569    132937.29   -41112.157    2757.1694   -43869.326    48.047792   0.93949175 
   43000    219.92752   -166.47175    133008.77   -41137.549    2736.3165   -43873.865    48.026602   0.93898691 
   43100    222.48609   -296.50617    133126.66    -41109.69    2768.1499    -43877.84    48.344453    0.9381554 
   43200    221.62846   -299.71712     133082.7   -41070.237    2757.4794   -43827.717    48.166803   0.93846526 
   43300    221.47358   -239.79881    133095.95   -41076.722    2755.5524   -43832.275    48.056286   0.93837182 
   43400    221.13436   -265.00396    133051.09   -41017.216    2751.3318   -43768.547    48.151267   0.93868825 
   43500    220.20945    -385.4482    132826.62   -41029.418    2739.8243   -43769.242    48.310089   0.94027456 
   43600    223.19269    -340.7291    132803.62   -40926.079    2776.9414   -43703.021    48.595566   0.94043738 
   43700    221.82177   -142.71876    132955.19   -40952.425    2759.8846   -43712.309    48.464098   0.93936527 
   43800     222.9712   -250.43778    133247.79   -40962.686    2774.1857   -43736.871    48.414033   0.93730255 
   43900    223.75037   -373.79042    133091.94   -41016.516      2783.88   -43800.396    48.412697   0.93840015 
   44000    221.05108   -123.05856    133111.97   -41057.044    2750.2957   -43807.339    48.472567   0.93825892 
   44100    220.99883   -333.70478    133169.69   -41083.067    2749.6456   -43832.712    48.520017   0.93785221 
   44200    220.18292   -418.64407    133182.25   -41127.052    2739.4941   -43866.546    48.573576    0.9377638 
   44300    218.23649   -239.02669    132988.77    -41137.68    2715.2769   -43852.957    48.614635   0.93912809 
   44400    222.84254   -174.29757    132990.66   -41096.491    2772.5848   -43869.076    48.829472   0.93911475 
   44500    218.87147   -271.15724    132913.68   -41123.741    2723.1772   -43846.918    48.847398    0.9396587 
   44600    212.89396   -314.15025    132880.97   -41184.987    2648.8057   -43833.793    48.680678   0.93988999 
   44700    214.10117    -285.5136    132831.94   -41148.301    2663.8256   -43812.126    48.736912   0.94023692 
   44800     217.9998   -356.06525    132851.48    -41113.14    2712.3319   -43825.472    48.677358   0.94009861 
   44900    222.49675   -285.85587    133131.93   -41068.384    2768.2826   -43836.666    48.730696   0.93811821 
   45000    220.47965   -313.86328    133123.89   -41069.172    2743.1861   -43812.358    49.038004   0.93817487 
   45100    223.88316   -311.64018    133048.63   -41013.786    2785.5322   -43799.318    49.208117   0.93870555 
   45200    221.31283   -260.03834       132997   -41069.727    2753.5524    -43823.28    49.251633   0.93906998 
   45300    218.68875   -107.17267    133064.62     -41073.2    2720.9038   -43794.104    49.394637    0.9385928 
   45400    216.84736   -218.53099    133058.97   -41048.341    2697.9934   -43746.334    49.209259    0.9386326 
   45500    223.42725   -424.29429    132995.48   -41067.158    2779.8597   -43847.018    49.192749    0.9390807 
   45600    221.01563   -271.72137    133002.44   -41072.044    2749.8546   -43821.899    49.068064    0.9390316 
   45700    218.19659   -208.24198    133204.09    -41086.96    2714.7805    -43801.74    49.223757   0.93761003 
   45800    224.97625   -315.82411    133239.56   -41040.406    2799.1323   -43839.538    49.523836   0.93736042 
   45900    225.60794   -230.29021    133261.64   -40983.529    2806.9916    -43790.52    49.647416   0.93720515 
   46000    225.31773   -407.10926    133132.46   -40970.532     2803.381   -43773.913    49.703838   0.93811449 
   46100     227.7355   -247.25119    133010.97   -40928.183    2833.4626   -43761.646    49.679684   0.93897135 
   46200    227.67134   -338.72741    133195.48   -40933.096    2832.6643   -43765.761    49.557637   0.93767065 
   46300    227.07749   -305.35321    133181.94   -40957.427    2825.2756   -43782.703    49.745713   0.93776597 
   46400     221.4711   -248.49585    133193.65   -40987.979    2755.5215   -43743.501    50.027406   0.93768353 
   46500    228.31371   -319.24387    133224.52   -41002.149    2840.6566   -43842.806     50.15617   0.93746626 
   46600    224.67116   -308.12948    133192.53   -40998.391    2795.3363   -43793.727    50.396441   0.93769144 
   46700    219.25502   -262.06042    132995.94   -41082.394    2727.9493   -43810.343    50.280147   0.93907748 
   46800    221.07998   -246.72451    133142.08   -41133.547    2750.6552   -43884.203    50.134193   0.93804669 
   46900    221.78647   -208.30501    133122.07   -41063.876    2759.4453   -43823.321    50.093559   0.93818769 
   47000    217.79821   -321.16999     132950.6    -41055.06    2709.8238   -43764.884    50.070183   0.93939771 
   47100    222.87539   -215.83707    132994.59   -41031.548    2772.9936   -43804.542    50.053676   0.93908702 
   47200    220.90475   -262.61343    133058.96   -41073.883    2748.4751   -43822.358    50.050067   0.93863274 
   47300    221.40971   -351.49242     132917.9   -41098.217    2754.7577   -43852.975    50.060832   0.93962885 
   47400    219.33106   -290.82929    132883.81   -41054.856    2728.8953   -43783.751    50.251908   0.93986991 
   47500    218.78645   -170.17403    132781.92   -40986.469    2722.1194   -43708.589    50.300652   0.94059112 
   47600    227.48544   -323.08766    132963.38   -40940.088    2830.3513    -43770.44    50.466239    0.9393074 
   47700     222.6832   -153.30113    133254.27   -40989.881    2770.6024   -43760.484    50.402218   0.93725697 
   47800    224.10609    -313.6876    133243.95   -41011.682    2788.3058   -43799.988    50.437124   0.93732953 
   47900    218.75858   -273.64214    133092.44   -41100.255    2721.7726   -43822.028    50.495305    0.9383966 
   48000    217.46761   -327.09638     133114.3   -41119.127    2705.7105   -43824.837    50.716619    0.9382425 
   48100    218.55033   -161.19934    133176.11   -41078.394    2719.1816   -43797.576    50.937416   0.93780701 
   48200    217.96353   -280.90088    133107.57   -41111.387    2711.8807   -43823.267    50.873342   0.93828995 
   48300    221.59298   -330.65544    133012.49   -41085.856     2757.038   -43842.894    50.751555   0.93896062 
   48400     222.7192   -231.14587    132995.15   -41008.922    2771.0503   -43779.973    50.848061   0.93908306 
   48500    224.72702   -234.51786    133081.44   -41067.638    2796.0313   -43863.669     50.78874   0.93847418 
   48600    226.33813   -347.84219    133153.41   -41063.202    2816.0766   -43879.279    50.810229   0.93796691 
   48700    223.24708   -183.80838    133241.42   -41035.798    2777.6181   -43813.416    50.806408   0.93734736 
   48800    221.73847   -339.13087    133103.11   -41066.225    2758.8481   -43825.074    50.697703   0.93832138 
   48900    220.09274   -418.10083    133114.83   -41059.165    2738.3722   -43797.537     50.89133   0.93823874 
   49000    218.46914   -459.33835    133032.88   -41103.176    2718.1714   -43821.348    50.918959   0.93881675 
   49100    218.97387   -114.14594    132931.71   -41096.956    2724.4512   -43821.407    51.097264   0.93953121 
   49200    213.15498   -291.50615    132786.77   -41114.421    2652.0532   -43766.474    51.051055   0.94055671 
   49300    223.13558    -230.0272    132900.44   -41052.437    2776.2308   -43828.668    51.192047   0.93975227 
   49400    221.45089   -255.65541    132863.47   -41023.322      2755.27   -43778.592    50.994683   0.94001374 
   49500    219.03443   -345.34908    132807.22   -41034.232    2725.2047   -43759.437    50.848055   0.94041192 
   49600    217.99724   -249.47122    132781.83   -41035.001    2712.3001   -43747.301    50.853279   0.94059176 
   49700    217.19671   -332.28819    132733.76   -41043.402    2702.3401   -43745.742    51.138835   0.94093234 
   49800     220.6242   -313.59031    132855.63   -41087.643    2744.9844   -43832.627    51.319323   0.94006922 
   49900    221.68162   -448.70672    132687.04    -40974.51    2758.1408    -43732.65    51.129014    0.9412637 
   50000    219.61868   -214.33834    132765.29   -40995.648    2732.4739   -43728.122    51.343827   0.94070889 
   50100    224.05911   -212.11672    132834.02   -41014.179    2787.7212     -43801.9    51.440816   0.94022221 
   50200    223.10281   -414.80438    132787.97   -41051.988    2775.8232   -43827.811    51.341557    0.9405482 
   50300    221.75227   -261.17656    132944.88   -41026.803    2759.0198   -43785.822    51.467388   0.93943814 
   50400    218.56704     -346.622    132771.42   -41056.522    2719.3895   -43775.911    51.524222   0.94066549 
   50500    217.32021   -250.59253    132865.23   -41082.218    2703.8765   -43786.095    51.383068   0.94000134 
   50600    219.39743   -311.69476    132876.25   -41120.439    2729.7211    -43850.16    51.690056   0.93992335 
   50700    219.47277   -454.20703    132790.84   -41129.328    2730.6585   -43859.986    51.835911   0.94052793 
   50800    218.83632   -204.39085     132712.1   -41128.981    2722.7399   -43851.721    52.100049   0.94108591 
   50900    218.55575   -311.76374    132769.89   -41047.096     2719.249   -43766.345    52.286451   0.94067632 
   51000     220.1725   -401.45687    132574.72   -41079.265    2739.3644   -43818.629    52.095123   0.94206115 
   51100    219.66685   -182.82351    132640.62   -41121.175    2733.0732   -43854.248    52.169617   0.94159309 
   51200    218.68616   -254.81797    132757.42   -41100.737    2720.8716   -43821.608     52.33926   0.94076468 
   51300    219.19685    -297.6043    132711.92   -41174.315    2727.2255   -43901.541    52.418923   0.94108722 
   51400    212.74812   -350.41822    132784.57   -41179.383     2646.991   -43826.374    52.565562   0.94057235 
   51500    217.05714   -375.92241    132583.57   -41182.224    2700.6034   -43882.827    52.410182   0.94199822 
   51600     218.4935   -408.77749    132720.48   -41120.539    2718.4745   -43839.013    52.706191   0.94102655 
   51700    216.76629   -372.24997    132621.42   -41101.718    2696.9847   -43798.702    52.909606   0.94172939 
   51800    219.52813   -261.22058    132624.68   -41135.164    2731.3473   -43866.512    52.911406   0.94170623 
   51900    220.43554   -377.25924    132438.51   -41171.848    2742.6372   -43914.485    52.692793   0.94303004 
   52000    214.63588   -331.79458    132335.09   -41189.489    2670.4784   -43859.968    52.816352   0.94376699 
   52100    220.92289   -250.21209    132266.36   -41137.039    2748.7008    -43885.74    52.975768   0.94425738 
   52200     215.7569   -286.18297    132284.11   -41173.526     2684.426   -43857.952    53.203342   0.94413075 
   52300    216.59163   -456.29081    132204.54   -41150.067    2694.8116   -43844.879    53.017239   0.94469893 
   52400     218.8202   -215.57218    132387.42   -41100.993    2722.5393   -43823.532    53.092823   0.94339394 
   52500    219.83906   -415.63913    132353.53   -41104.326    2735.2159   -43839.542    53.129787   0.94363552 
   52600    216.95918   -316.00951    132213.12   -41131.311    2699.3847   -43830.696    53.196569   0.94463762 
   52700    216.34778   -156.59906    132337.08   -41153.562    2691.7777    -43845.34    53.412982   0.94375283 
   52800    221.41494   -382.57383     132326.6   -41101.494    2754.8228   -43856.317    53.431915   0.94382752 
   52900    221.16188    -302.9304    132397.82   -41094.266    2751.6742    -43845.94    53.670818   0.94331984 
   53000    221.98891   -375.15982    132391.41   -41069.017     2761.964   -43830.981     53.60908   0.94336554 
   53100    219.31854   -357.45436    132472.64   -41113.327    2728.7396   -43842.066    53.506514   0.94278705 
   53200    220.65292   -152.93353     132556.1   -41115.165    2745.3418   -43860.507      53.3565   0.94219344 
   53300    219.85332   -333.65608    132615.31   -41123.829    2735.3932   -43859.222    53.459612   0.94177276 
   53400    218.35962   -232.49125    132696.62   -41207.989    2716.8089   -43924.798    53.705661    0.9411957 
   53500    217.96005   -241.34219    132525.69   -41221.512    2711.8374   -43933.349    53.828367   0.94240964 
   53600    215.37936   -387.13765    132585.96   -41216.185    2679.7287   -43895.914    53.841272   0.94198129 
   53700    212.77826    -366.1366    132490.58   -41239.503    2647.3661   -43886.869    53.964112    0.9426594 
   53800    219.62337     -356.687    132668.29    -41111.34    2732.5323   -43843.872     54.18044   0.94139669 
   53900    216.28477   -424.23082    132660.18   -41152.846    2690.9938    -43843.84     54.20722   0.94145423 
   54000    222.31147   -274.13145    132695.58   -41117.114    2765.9773   -43883.091    54.133346   0.94120313 
   54100      217.592   -216.31378    132729.95   -41133.072    2707.2582    -43840.33    54.147001   0.94095937 
   54200    216.52034   -321.84969    132494.14   -41111.066    2693.9247   -43804.991    54.117467   0.94263406 
   54300    218.03162   -242.10583    132662.65   -41087.334    2712.7278   -43800.061    54.159746   0.94143675 
   54400    219.79272    -217.8403    132599.38   -41116.462    2734.6393   -43851.101    54.464763   0.94188595 
   54500    218.88908   -219.48038    132564.94   -41092.005    2723.3963   -43815.401     54.31922   0.94213064 
   54600    224.37776    -159.1584    132640.92   -40997.135    2791.6859   -43788.821    54.316633   0.94159097 
   54700    221.27601   -334.52511    132630.69    -41018.21    2753.0942   -43771.304    54.491137    0.9416636 
   54800    222.98086   -384.84263    132473.25    -41086.45    2774.3058   -43860.756    54.408111   0.94278275 
   54900    219.98664   -328.62532    132372.66   -41124.688     2737.052    -43861.74    54.625146   0.94349914 
   55000    213.32686   -293.62139    132515.97   -41187.772    2654.1918   -43841.963    54.588955    0.9424788 
   55100    222.55193   -317.90489    132332.17   -41167.745    2768.9691   -43936.714     54.49845   0.94378785 
   55200    217.29555   -236.33309     132319.3   -41174.188    2703.5697   -43877.758    54.546386   0.94387963 
   55300    219.40151   -305.39285    132473.74   -41131.817    2729.7719   -43861.589    54.821393   0.94277925 
   55400    221.22718   -251.58033    132618.59   -41098.929    2752.4867   -43851.416    55.045772   0.94174951 
   55500    224.50527    -277.6326     132708.4   -41043.625    2793.2724   -43836.898    54.996145   0.94111219 
   55600    219.64229   -360.04797    132634.41   -41092.626    2732.7677   -43825.394    54.905604   0.94163719 
   55700    221.98893   -320.16761    132780.35   -41088.792    2761.9643   -43850.756    55.061945   0.94060223 
   55800    220.89766    -245.5494    132552.08   -41095.681    2748.3869   -43844.068    55.116774   0.94222204 
   55900    220.00299   -324.25042    132463.03   -41063.605    2737.2554   -43800.861      55.1786   0.94285545 
   56000    220.97516   -263.81439    132637.83   -41051.475    2749.3511   -43800.826    55.128081   0.94161291 
   56100    220.63075   -367.43562    132541.54   -41027.047     2745.066   -43772.113    55.045856   0.94229695 
   56200    222.17115   -266.12956    132579.21   -41033.268    2764.2315   -43797.499    55.149562   0.94202921 
   56300     223.3187    -410.6911    132676.64    -41067.61    2778.5093   -43846.119    55.059182   0.94133749 
   56400    220.10921   -305.51239    132606.92   -41061.119     2738.577   -43799.696    55.288081   0.94183239 
   56500    216.23008   -234.47745    132586.36   -41153.926    2690.3133    -43844.24    55.424078    0.9419784 
   56600     217.1407   -88.612563    132645.24   -41168.521    2701.6432   -43870.164     55.53331   0.94156028 
   56700    219.72851   -143.16474       132718   -41208.143    2733.8404   -43941.983     55.54422    0.9410441 
   56800    217.73305   -224.38318    132888.22   -41131.042    2709.0131   -43840.055    55.573722   0.93983868 
   56900    218.57541   -373.27089    132971.17    -41110.39    2719.4936   -43829.884    55.711621   0.93925244 
   57000    221.91077   -124.04961    133016.72   -41057.552    2760.9919   -43818.543    55.834922   0.93893078 
   57100    218.87371    -257.7525    133013.09   -41121.718     2723.205   -43844.923    55.858547    0.9389564 
   57200    215.90465   -286.64317    133105.11   -41173.133    2686.2643   -43859.397    55.764078   0.93830724 
   57300    212.91146   -163.96679    133040.45   -41227.521    2649.0234   -43876.545    55.971089   0.93876327 
   57400    217.88224   -298.40292    132940.61   -41241.335    2710.8693   -43952.205    56.016859   0.93946831 
   57500    213.22619   -210.85554    132959.69   -41295.687    2652.9392   -43948.627    55.680261   0.93933348 
   57600    219.04238    -372.8177    133040.35   -41247.733    2725.3036   -43973.036    55.601249   0.93876402 
   57700    212.26604    -189.7525    132953.79   -41285.683    2640.9931   -43926.676    55.822376   0.93937518 
   57800    212.98789   -415.97546     133116.2   -41298.495    2649.9743   -43948.469    55.951042   0.93822909 
   57900    220.62333   -321.76985    133009.06   -41262.584    2744.9736   -44007.557    55.803235   0.93898485 
   58000    216.49148   -302.65066    133078.32   -41253.092    2693.5655   -43946.658    55.811827   0.93849617 
   58100    218.52416   -223.14047    133037.93   -41188.211     2718.856   -43907.067    55.806118   0.93878106 
   58200    219.18097   -249.58947    132945.77   -41132.137     2727.028   -43859.165    56.068753   0.93943186 
   58300    225.20719   -410.48247    132917.57   -41064.486    2802.0056   -43866.491    56.099888   0.93963119 
   58400    223.16673   -275.07818    132872.51   -41067.485    2776.6183   -43844.103    56.050295   0.93994983 
   58500    223.06054   -458.31837    132868.85   -41068.538    2775.2972   -43843.835    55.893027   0.93997567 
   58600    222.69612   -203.26081     132805.4   -41047.709    2770.7631   -43818.473    56.084954   0.94042479 
   58700    218.51721   -233.29094    133002.87   -41040.526    2718.7695   -43759.296    56.190267   0.93902853 
   58800    223.30896   -295.39609    133035.83   -41082.703     2778.388   -43861.091    56.426889   0.93879587 
   58900    221.16647   -350.76921     132738.5   -41135.423    2751.7313   -43887.154    56.303936   0.94089879 
   59000    217.39204   -388.35036    132885.96   -41116.941    2704.7703   -43821.711    56.484904   0.93985469 
   59100    218.73014   -289.27376     132789.1   -41096.412    2721.4188   -43817.831     56.47632   0.94054024 
   59200    217.44791   -269.37696    132772.23   -41105.484    2705.4654   -43810.949     56.56164    0.9406597 
   59300    216.11575   -177.83125     132681.1   -41107.753    2688.8907   -43796.644    56.551518   0.94130583 
   59400    216.74301   -305.36864    132788.85   -41151.874    2696.6952   -43848.569     56.65565   0.94054202 
   59500     219.4984   -203.40622    132707.73   -41111.617    2730.9773   -43842.594     56.66012   0.94111691 
   59600    218.12785   -351.44206    132646.63   -41086.347    2713.9252   -43800.272    56.678791   0.94155044 
   59700    219.40719   -273.55904    132584.71    -41112.52    2729.8426   -43842.363    56.876457   0.94199018 
   59800    219.07807   -255.06443    132782.77   -41113.476    2725.7477   -43839.223     56.85434   0.94058506 
   59900     221.1353   -340.13738     132908.4   -41100.466    2751.3435    -43851.81    56.920519   0.93969603 
   60000    218.93855   -281.09397    133082.58   -41146.633    2724.0117   -43870.645    57.007296   0.93846613 
   60100    221.39381   -305.39189    133171.04   -41122.024    2754.5599   -43876.583     56.88213   0.93784276 
   60200    223.58257    -269.4689    133015.75   -41106.741    2781.7923   -43888.533    57.185305   0.93893764 
   60300    225.31807   -319.74888    132930.31   -41098.652    2803.3852   -43902.037    57.247988    0.9395411 
   60400    225.49321   -253.05982    132919.09   -41063.474    2805.5642   -43869.038    57.408204   0.93962044 
   60500    219.34874   -348.13237     132880.5   -41093.902    2729.1154   -43823.017    57.500527   0.93989327 
   60600    218.75518   -303.51855     132865.1   -41143.373    2721.7303   -43865.104    57.246447   0.94000226 
   60700    222.11193   -370.65219    132852.92    -41172.13    2763.4947   -43935.624    57.220165   0.94008841 
   60800    223.19657   -295.57747    132867.62    -41134.52    2776.9896    -43911.51    57.045394   0.93998444 
   60900    219.25912   -350.57088    132980.28   -41124.113    2728.0003   -43852.113    57.187099   0.93918806 
   61000    219.13624   -229.53993    133175.46   -41161.947    2726.4715   -43888.418    57.286052    0.9378116 
   61100    218.41986   -326.96783    133145.97   -41198.458    2717.5583   -43916.017    57.426744   0.93801928 
   61200    216.22716   -184.78417     133101.8   -41204.969    2690.2769   -43895.246    57.603999   0.93833056 
   61300    218.36218   -337.76804    133206.33   -41197.373    2716.8407   -43914.213    57.582282   0.93759427 
   61400    218.20604    -445.7499    133103.61    -41233.09    2714.8979   -43947.988    57.538441   0.93831786 
   61500    219.08684    -364.9536    133048.79   -41239.444    2725.8568   -43965.301     57.53928   0.93870443 
   61600    215.53707   -344.10095    133007.98   -41198.663     2681.691   -43880.354    57.688912   0.93899245 
   61700    219.43184   -232.54215    132943.06   -41263.473    2730.1492   -43993.623    57.732814     0.939451 
   61800    212.25247   -304.06928    132925.36   -41318.728    2640.8243   -43959.552    57.708745   0.93957608 
   61900    214.57347   -208.21212    133026.12   -41249.544    2669.7019   -43919.246    57.810015   0.93886445 
   62000    218.54306   -366.01423    133068.96   -41196.822    2719.0911   -43915.913    57.697351   0.93856219 
   62100    217.64854   -288.47463    133047.72   -41211.044    2707.9616   -43919.006    57.598452   0.93871198 
   62200    219.65602   -199.06397    133249.25   -41160.075    2732.9385   -43893.014    57.551076   0.93729229 
   62300    217.09745   -256.09132    133140.49   -41193.465    2701.1051    -43894.57    57.633225   0.93805794 
   62400    219.83958   -262.11045    133214.88    -41134.96    2735.2224   -43870.183    57.841523   0.93753408 
   62500    219.75414   -276.28781    133337.38   -41152.301    2734.1592    -43886.46    57.953248   0.93667279 
   62600    217.27169   -449.98775    133309.44   -41148.016    2703.2728   -43851.289    58.214438   0.93686906 
   62700    213.74125   -259.00153    133134.04   -41165.918    2659.3475   -43825.265    58.277797   0.93810337 
   62800    217.43331   -265.72326    133179.52   -41151.382    2705.2838   -43856.666    58.101104   0.93778302 
   62900    219.92893   -359.79725     133120.2   -41101.474    2736.3339   -43837.808    58.234083   0.93820086 
   63000    222.36861    -392.7444    132862.59    -41065.11    2766.6883   -43831.798    57.951674   0.94001999 
   63100    226.65825   -173.44951    132874.68   -41058.563    2820.0596   -43878.622     57.94968   0.93993447 
   63200    223.28465   -350.30595     132914.8   -41086.073    2778.0855   -43864.158    58.195854   0.93965073 
   63300    221.59675   -403.14082     133022.8   -41122.013    2757.0849   -43879.098    58.316126   0.93888785 
   63400    223.24962   -240.46635    132983.83   -41048.917    2777.6497   -43826.567    58.445907   0.93916296 
   63500    215.65912    -371.8176    132819.25   -41140.054    2683.2094   -43823.264    58.434707   0.94032676 
   63600    218.80642   -501.75741    132711.56    -41133.31    2722.3679   -43855.678     58.46438   0.94108973 
   63700    221.48441   -318.48428    132895.46   -41136.719    2755.6871   -43892.406     58.64468   0.93978752 
   63800    218.63137   -258.60906    132880.64   -41245.831    2720.1899   -43966.021    58.534504   0.93989229 
   63900    214.53973    -386.6328    132843.17   -41240.214    2669.2821   -43909.496    58.537117   0.94015744 
   64000    215.99924   -322.48012    132818.97   -41226.672    2687.4412   -43914.114    58.644963    0.9403287 
   64100    220.09568    -223.6532    132865.53   -41144.696    2738.4087   -43883.104    58.858876   0.93999917 
   64200    220.90523    -435.1593    132994.88   -41131.251     2748.481   -43879.732    58.898362   0.93908495 
   64300    219.05673   -325.43202    133113.82   -41033.708    2725.4821    -43759.19    59.188093   0.93824584 
   64400    224.14083   -281.96725     133156.4   -41061.658     2788.738   -43850.396    59.169845   0.93794586 
   64500    224.79906   -214.21126    133304.44    -41057.33    2796.9277   -43854.258    59.187352    0.9369042 
   64600    225.02965   -114.57518    133353.67   -41126.106    2799.7966   -43925.902    59.262565   0.93655836 
   64700    222.11734    -347.7731     133373.9   -41154.755     2763.562   -43918.317    59.393797    0.9364163 
   64800    218.65954   -414.11117    133080.85   -41179.419    2720.5404    -43899.96    59.394375   0.93847834 
   64900    221.34253   -378.50931    133066.29   -41167.338    2753.9218    -43921.26    59.604213   0.93858102 
   65000    223.92156   -345.89569    133079.31   -41143.374      2786.01   -43929.384    59.461734   0.93848913 
   65100    219.54986   -429.83101    133180.83   -41172.941    2731.6176   -43904.558    59.604011   0.93777382 
   65200    219.42418   -347.96151    133063.86   -41160.186     2730.054    -43890.24    59.475411   0.93859813 
   65300    222.35839   -326.36311    133188.49   -41165.914    2766.5611   -43932.475    59.710826   0.93771982 
   65400    223.17776   -253.90008    133053.16   -41091.208    2776.7556   -43867.964    59.707045    0.9386736 
   65500    222.77902    -470.1713    133002.78   -41172.881    2771.7945   -43944.676    59.578779   0.93902919 
   65600    219.86758   -377.26471    132960.96   -41214.228    2735.5707   -43949.799    59.681015   0.93932456 
   65700    213.44777   -387.79316    132782.05    -41253.08    2655.6961   -43908.776    59.825579   0.94059017 
   65800    215.87707   -294.02178       132718   -41253.207    2685.9211   -43939.128    60.079585   0.94104407 
   65900    219.62645    -181.6586    132719.99   -41213.371    2732.5706   -43945.941    60.059362   0.94102998 
   66000    221.04724   -314.24264    132984.06     -41111.9    2750.2479   -43862.148    59.959243   0.93916137 
   66100    225.14257   -332.31911    132943.19   -41069.731    2801.2016   -43870.933    59.808152   0.93945008 
   66200    225.49137   -169.92648     132820.2   -41060.525    2805.5413   -43866.066    59.863615   0.94031997 
   66300     223.0503   -351.10545    132908.85   -41105.373    2775.1698   -43880.543    59.923903   0.93969285 
   66400    221.75114   -344.95554    132877.58   -41152.565    2759.0058   -43911.571    60.112727   0.93991397 
   66500    220.41676   -241.18091     132910.2   -41156.487    2742.4036   -43898.891    60.088556    0.9396833 
   66600    219.64721   -395.27539     132708.1   -41172.797    2732.8289   -43905.626    60.142879   0.94111427 
   66700    218.39584   -247.66914    132723.06   -41193.124    2717.2595   -43910.384     60.14356   0.94100822 
   66800    218.66013   -444.62543    132797.15   -41118.902    2720.5477   -43839.449    60.047271   0.94048321 
[...]
   84600     217.6007   -192.77105     132958.5   -41251.192    2707.3664   -43958.559    69.271293   0.93934193 
   84700    217.08701   -170.51952    132947.83   -41272.175    2700.9751   -43973.151    69.497663   0.93941728 
   84800    215.74303   -400.28797     132979.1   -41237.892    2684.2534   -43922.146     69.32657   0.93919641 
   84900    219.66799   -173.19341    133073.83   -41234.263    2733.0875   -43967.351    69.578505    0.9385278 
   85000    221.72694   -303.11303    133051.84   -41182.136    2758.7046   -43940.841    69.457037   0.93868296 
   85100     221.2893   -215.84531    133168.26   -41189.237    2753.2596   -43942.497    69.386312   0.93786231 
   85200    217.31777   -399.95499    133165.62   -41201.662    2703.8462   -43905.508    69.662017    0.9378809 
   85300    215.30664   -389.14765    133280.28   -41241.722     2678.824   -43920.546    69.790485   0.93707407 
   85400    218.04676   -364.19451    133314.34   -41234.591    2712.9162   -43947.508    69.998085   0.93683466 
   85500    220.80609   -297.66998    133310.36   -41211.368    2747.2475   -43958.616    69.761033   0.93686259 
   85600    224.80201   -294.82054    133222.54   -41191.985    2796.9644    -43988.95     70.05558   0.93748016 
   85700    216.51925   -310.55527    133311.62   -41227.872    2693.9111   -43921.784     69.82225   0.93685377 
   85800    219.68992   -388.03582    133290.33   -41222.498    2733.3603   -43955.858    69.621198   0.93700339 
   85900    221.41273    -239.3961    133362.07   -41118.958    2754.7953   -43873.753    70.069053   0.93649932 
   86000    217.23753   -301.52331    133177.71   -41168.235    2702.8479   -43871.083    70.116502   0.93779578 
   86100    218.16674   -288.64439     133175.9   -41156.751     2714.409    -43871.16    70.220254   0.93780848 
   86200    221.82465   -362.39507    133304.96   -41127.377    2759.9203   -43887.298     70.46898   0.93690055 
   86300    216.88031   -305.93827     133109.5   -41164.606    2698.4034   -43863.009    70.328931    0.9382763 
   86400    220.12209   -276.85779    133242.61   -41172.322    2738.7373   -43911.059    70.034125   0.93733899 
   86500    226.04141   -343.70999    133283.78    -41159.28    2812.3849   -43971.665    70.143105   0.93704943 
   86600    225.14323   -324.79503     133283.9   -41101.344    2801.2098   -43902.554    70.323282   0.93704858 
   86700    222.06858   -360.47887    133247.75   -41091.769    2762.9553   -43854.724    70.355283   0.93730282 
   86800    219.50458    -253.1679    133308.55   -41159.332    2731.0543   -43890.386    70.434548   0.93687536 
   86900    216.05323    -426.5557    133299.69   -41119.662     2688.113   -43807.775    70.327066    0.9369376 
   87000    221.94896   -424.90999     133314.9    -41134.81    2761.4671   -43896.277     70.36938   0.93683072 
   87100    220.57483   -323.48759    133326.57   -41175.999    2744.3702   -43920.369    70.382254   0.93674872 
   87200    221.64438    -292.0293    133449.14     -41170.7    2757.6775   -43928.378    70.541674   0.93588835 
   87300    223.61691    -250.4294     133421.1   -41182.682    2782.2195   -43964.902    70.807789     0.936085 
   87400    219.32008   -261.95186    133170.94   -41186.278    2728.7588   -43915.037    70.758225   0.93784345 
   87500    218.09696   -312.70264    133217.37   -41191.976    2713.5409   -43905.516     70.73132   0.93751654 
   87600    219.40062   -339.03794    133331.75   -41189.258    2729.7608   -43919.019    70.619134   0.93671228 
   87700    216.36458   -110.64172    133359.05   -41199.011    2691.9867   -43890.997    70.475428   0.93652057 
   87800    222.33708   -392.48765    133483.93   -41183.775     2766.296   -43950.071    70.331361   0.93564443 
   87900    222.20075   -185.88617    133541.41   -41201.363    2764.5998   -43965.963    70.588874   0.93524164 
   88000    219.72892   -302.43257     133728.2   -41229.632    2733.8455   -43963.478    70.936602    0.9339353 
   88100    221.99011   -302.72699    133642.44   -41173.953     2761.979   -43935.933    71.112622   0.93453465 
   88200    220.20888   -196.86966    133710.55    -41158.62    2739.8171   -43898.437    71.245129   0.93405865 
   88300    219.76472   -407.35953     133577.3   -41194.898     2734.291   -43929.189    71.319582   0.93499038 
   88400     214.5348   -346.36673    133588.68   -41303.455    2669.2208   -43972.676    71.219823   0.93491074 
   88500    225.14342   -279.84964    133648.75   -41200.328    2801.2122    -44001.54    71.301714   0.93449053 
   88600    219.33364   -379.35123    133662.15    -41145.31    2728.9275   -43874.237    71.163937   0.93439686 
   88700    221.94126    -287.0371    133865.97   -41119.711    2761.3712   -43881.082    71.148949   0.93297415 
   88800    224.19164   -301.61624    133855.67   -41062.035    2789.3702   -43851.405     71.17844   0.93304592 
   88900    221.85403   -254.25074    133759.96   -41103.134    2760.2859   -43863.419    71.275775   0.93371356 
   89000     222.5925   -344.18253     133630.9   -41087.653    2769.4739   -43857.127    71.347052   0.93461534 
   89100    219.13808   -186.85871    133519.52   -41188.138    2726.4943   -43914.633    71.201556   0.93539503 
   89200    215.84491   -404.32956    133464.28   -41223.038    2685.5211   -43908.559    71.384838   0.93578218 
   89300    219.80586   -215.06934    133571.76   -41226.783    2734.8027   -43961.585    71.316027   0.93502919 
   89400    219.92568   -188.93642    133789.28    -41259.03    2736.2936   -43995.324    71.330186   0.93350893 
   89500    218.63146   -311.76382    133793.01   -41301.747    2720.1911   -44021.938    71.464423   0.93348296 
   89600    212.02622   -279.27439     133954.9   -41347.423    2638.0092   -43985.432    71.531325   0.93235479 
   89700    213.56374   -235.30016    133835.83   -41311.853     2657.139   -43968.992    71.476382   0.93318425 
   89800    213.85726   -332.58608    133914.21   -41274.711    2660.7909   -43935.502     71.59047   0.93263809 
   89900    217.18174   -297.47047    133709.94   -41341.044    2702.1538   -44043.198    71.534814    0.9340629 
   90000    217.64785   -343.31484    133636.03   -41251.993    2707.9531   -43959.946    71.457099   0.93457947 
   90100    218.70047   -253.70368    133670.01    -41259.32    2721.0497    -43980.37    71.508066   0.93434189 
   90200     216.9413   -265.71435    133616.65   -41291.505    2699.1623   -43990.667    71.667901   0.93471502 
   90300    217.78905   -325.43701    133557.91   -41294.312    2709.7098   -44004.022    71.714339   0.93512611 
   90400    217.06707   -106.52747    133629.08   -41287.924    2700.7271   -43988.651    72.012009   0.93462812 
   90500    217.18555   -304.42308    133741.66   -41250.147    2702.2011   -43952.349    72.148916   0.93384131 
   90600    218.37264   -179.73571    133873.46   -41157.859    2716.9708    -43874.83    71.977916   0.93292198 
   90700    221.03286   -263.38973    133951.07   -41181.123     2750.069   -43931.192    71.815676   0.93238142 
   90800    221.08704   -322.23127    134151.75    -41216.78    2750.7431   -43967.523    72.002242   0.93098664 
   90900    219.77402   -405.96311    134248.24   -41319.995    2734.4067   -44054.401    72.336608   0.93031756 
   91000    214.52174    -279.6018    134134.68   -41340.673    2669.0583   -44009.731    72.499624   0.93110516 
   91100    217.23508   -336.16301    134189.68    -41329.35    2702.8174   -44032.168    72.402394   0.93072351 
   91200    218.32394   -336.09784    134126.73   -41285.739    2716.3648   -44002.104    72.124664   0.93116036 
   91300    219.79013   -377.84995    134132.15   -41189.847     2734.607   -43924.454    72.029857   0.93112269 
   91400    222.25787   -289.05463    134160.92   -41167.666    2765.3105   -43932.976     72.18451   0.93092301 
   91500    225.20197   -282.24755    134106.51    -41190.21    2801.9407    -43992.15    72.443689   0.93130076 
   91600    220.44259   -270.10249    134045.65    -41220.18    2742.7249   -43962.905     72.34856   0.93172355 
   91700    218.61824   -380.08926    134117.09   -41301.884    2720.0265   -44021.911    72.499843   0.93122724 
   91800    219.31262   -367.87395     134081.7   -41262.331     2728.666   -43990.997    72.325518   0.93147307 
   91900    220.37508   -366.64343    134016.32    -41264.35     2741.885   -44006.235     72.46113   0.93192749 
   92000    216.35644   -343.52421    133997.04   -41288.515    2691.8854   -43980.401     72.55079   0.93206154 
   92100     219.6361   -419.60584    133848.07   -41339.101    2732.6907   -44071.791    72.204725   0.93309891 
   92200    221.62536   -372.48812    133856.67   -41282.154    2757.4408   -44039.595     72.53403     0.933039 
   92300    221.84892   -375.16163    133762.88    -41203.04    2760.2224   -43963.263    72.599173   0.93369322 
   92400    219.57246   -384.18897    133656.31   -41207.367    2731.8989   -43939.266    72.734275    0.9344377 
   92500    220.85796   -138.97384    133826.19   -41258.014    2747.8929   -44005.907    72.732851   0.93325151 
   92600    221.69067   -265.23985    133819.89   -41227.582    2758.2534   -43985.835    72.752525   0.93329545 
   92700    223.23642   -310.74124    133871.89   -41214.562    2777.4855   -43992.048    72.775422   0.93293294 
   92800     216.9316   -239.71326    133889.91   -41263.707    2699.0416   -43962.748    72.553371   0.93280737 
   92900    223.42898      -248.09    134039.77   -41235.642    2779.8813   -44015.524    72.597215   0.93176442 
   93000    220.71246   -400.10523    133966.99   -41267.088    2746.0827   -44013.171    72.740957   0.93227066 
   93100    223.18454   -370.89456    133891.56   -41215.254      2776.84   -43992.094    72.824166   0.93279587 
   93200    221.53975   -290.48032    133691.24   -41233.699    2756.3756   -43990.075    72.755401   0.93419355 
   93300    222.84222   -273.97621    133642.38    -41259.35    2772.5809   -44031.931    72.728128    0.9345351 
   93400    217.60151   -309.11477    133693.29   -41291.659    2707.3764   -43999.035    72.891243   0.93417917 
   93500    218.83112   -338.75941    133665.39   -41338.642    2722.6752   -44061.317    73.136136   0.93437421 
   93600    215.85094   -301.18736    133623.74   -41397.323    2685.5961   -44082.919    73.294042   0.93466543 
   93700    217.29356   -314.39988    133457.98   -41351.356     2703.545   -44054.901    72.954054   0.93582633 
   93800    218.24121   -290.05174    133479.74   -41313.761    2715.3356   -44029.096    72.827962   0.93567373 
   93900     218.2004   -243.50084     133428.9   -41293.701    2714.8278   -44008.529    72.949298   0.93603028 
   94000    218.25948   -325.28369    133539.54   -41304.405    2715.5629   -44019.968    73.012777   0.93525477 
   94100    218.07504   -316.74894    133682.95   -41311.208    2713.2681   -44024.476    72.963166   0.93425148 
   94200    217.57302   -253.37371    133668.23   -41295.081     2707.022   -44002.102    73.187634   0.93435431 
   94300    217.76294   -268.36386    133691.58   -41256.407     2709.385   -43965.792    73.266219   0.93419117 
   94400    222.61336   -270.32349    133628.74   -41246.935    2769.7334   -44016.669    73.502451   0.93463046 
   94500    226.91704   -279.00565    133814.02   -41191.609    2823.2794   -44014.888    73.737262   0.93333634 
   94600    220.18566   -190.62094    133711.04   -41233.281    2739.5282   -43972.809    73.328654   0.93405517 
   94700    219.92622   -365.85111    133861.44    -41279.54    2736.3003   -44015.841    73.524059   0.93300574 
   94800    218.05765   -351.23088    133788.96   -41269.476    2713.0517   -43982.527     73.53223    0.9335112 
   94900    221.94549   -319.00536     133584.7   -41240.935    2761.4239   -44002.359    73.653754   0.93493856 
   95000    222.97326    -166.3801    133682.02   -41220.419    2774.2113   -43994.631    73.668544   0.93425797 
   95100    223.06642    -337.3258    133666.39   -41209.618    2775.3704   -43984.989    73.647433   0.93436721 
   95200    221.23848   -296.33412    133820.55   -41235.267    2752.6273   -43987.894    73.890222   0.93329084 
   95300    219.81041   -392.05156    133792.14   -41132.709    2734.8593   -43867.569     74.08811     0.933489 
   95400    222.12816   -314.82605    133780.68   -41196.428    2763.6966   -43960.125    73.885724   0.93356895 
   95500    219.12895   -249.73245    133727.39   -41214.034    2726.3807   -43940.415    73.749825   0.93394102 
   95600    223.53097   -250.07816    133719.63   -41207.655    2781.1502   -43988.805     73.84497   0.93399521 
   95700    222.65566   -293.31898    133801.47   -41274.841    2770.2598   -44045.101    74.036995   0.93342394 
   95800    216.67754   -349.61544     133788.9   -41330.124    2695.8806   -44026.005    73.740384   0.93351164 
   95900     217.3638   -243.64754    133893.22   -41269.749     2704.419   -43974.168    73.767497   0.93278428 
   96000    218.13319    -103.0275    133937.49   -41340.436    2713.9916   -44054.427    74.048128   0.93247594 
   96100    216.52818   -391.82401    133902.89   -41284.319    2694.0222   -43978.341    73.963082   0.93271694 
   96200    213.87045   -353.05177    133814.91   -41316.464     2660.955   -43977.419     74.10994   0.93333018 
   96300    219.97009   -347.25864    133710.48   -41267.432    2736.8462   -44004.278    73.877549   0.93405909 
   96400    222.50232   -204.54005    133811.23   -41242.867    2768.3519   -44011.219    73.933088   0.93335582 
   96500    218.67023    -171.6333    133804.07   -41281.459    2720.6734   -44002.132    74.115987   0.93340579 
   96600    219.16375   -255.20063    133790.67   -41286.616    2726.8137    -44013.43    74.281942   0.93349925 
   96700    218.40394   -305.12652    133800.97   -41366.474    2717.3603   -44083.834    74.054027   0.93342742 
   96800    214.06995   -242.44471    133847.44   -41410.586    2663.4372   -44074.024    74.001577   0.93310332 
   96900    218.72935   -384.70742    133880.31   -41355.166    2721.4089   -44076.575     73.99845   0.93287422 
   97000    217.50112   -239.21893    133912.97   -41360.918    2706.1274   -44067.045    74.095849   0.93264674 
   97100      218.717   -256.40981    134016.29   -41346.503    2721.2553   -44067.758    74.179554   0.93192771 
   97200    220.04905    -373.2238    133942.17    -41352.15    2737.8285   -44089.978    74.019343   0.93244339 
   97300    216.27118   -438.90933    133886.42   -41358.985    2690.8246    -44049.81    73.717592   0.93283166 
   97400     215.7327   -349.68197    133867.66   -41365.271    2684.1249   -44049.396    73.825692   0.93296239 
   97500    220.85671   -218.99481    133820.66   -41257.932    2747.8774   -44005.809    74.064401   0.93329005 
   97600    219.05528    -327.8671    133796.12   -41324.528    2725.4642   -44049.992    74.053746   0.93346125 
   97700    220.79482   -229.14504    133685.56   -41260.883    2747.1074    -44007.99    73.899285   0.93423321 
   97800    218.04442   -298.99979    133872.18    -41229.09    2712.8871   -43941.977     74.03483   0.93293087 
   97900    224.58867   -166.72705    133839.17    -41198.16      2794.31    -43992.47    74.080196     0.933161 
   98000    223.70062   -274.11242    133859.99   -41231.056    2783.2611   -44014.317    74.095869   0.93301581 
   98100    224.28401   -266.10749    133761.42   -41315.439    2790.5194   -44105.958    74.039587   0.93370339 
   98200     219.0903   -299.05052    133869.88   -41292.987    2725.8999   -44018.886    73.965913   0.93294692 
   98300    218.21224   -333.75861    133780.51   -41308.948    2714.9751   -44023.923     73.83846   0.93357014 
   98400     217.8105   -277.40109    133725.64   -41309.729    2709.9766   -44019.706    73.935513   0.93395324 
   98500    218.37122   -299.93408    133772.33   -41310.965    2716.9531   -44027.918    74.217159   0.93362721 
   98600    219.13038    -322.8578    133633.83   -41325.863    2726.3986   -44052.261    74.308654   0.93459483 
   98700    215.20751   -267.83851    133562.44   -41361.677    2677.5906   -44039.268     74.17718   0.93509444 
   98800    216.49626   -283.76565    133670.97    -41320.47     2693.625   -44014.095    74.225504   0.93433517 
   98900    215.35689   -229.85555    133671.54   -41324.497    2679.4492   -44003.946     74.19112   0.93433121 
   99000    217.85957   -261.84107     133609.2   -41356.555    2710.5873   -44067.142     74.41673   0.93476714 
   99100    216.19747   -351.80064    133554.48   -41275.379    2689.9075   -43965.287     74.30335   0.93515011 
   99200     216.3713   -433.47757    133690.23   -41263.536    2692.0703   -43955.606    74.385532    0.9342006 
   99300    220.23329   -292.28939    133741.44   -41219.167    2740.1209   -43959.287    74.596911   0.93384288 
   99400    221.43008   -299.76388    133666.43   -41192.096    2755.0112   -43947.107    74.534404   0.93436691 
   99500    225.77951   -300.60524    133561.18   -41073.862    2809.1263   -43882.988    74.439413   0.93510321 
   99600    227.58074   -339.70092    133491.38   -41112.225    2831.5371   -43943.762    74.526308   0.93559215 
   99700    225.98335   -229.82171    133425.68   -41130.397    2811.6625    -43942.06    74.428637   0.93605286 
   99800    223.23013    -356.0289    133506.48   -41153.265    2777.4072   -43930.672    74.531095   0.93548637 
   99900    224.83803   -178.16687    133443.86   -41219.089    2797.4125   -44016.502    74.620205   0.93592538 
  100000     222.9728   -413.04517    133455.05   -41232.163    2774.2056   -44006.369    74.539707   0.93584684 
  100100    222.83025   -426.74279    133534.27   -41172.753    2772.4319   -43945.185    74.447213   0.93529166 
  100200    223.67822   -372.14079    133506.22   -41178.318    2782.9824     -43961.3    74.309734    0.9354882 
  100300    223.98635   -426.68795    133646.76   -41168.392     2786.816   -43955.208    74.466727   0.93450444 
  100400    219.66151   -371.49084    133476.93   -41203.154    2733.0068   -43936.161    74.302731   0.93569347 
  100500    221.49483   -387.04989    133342.08   -41123.301    2755.8168   -43879.118    74.414549   0.93663973 
  100600    217.98311   -280.50281    133309.66   -41196.404    2712.1243   -43908.528    74.568093   0.93686755 
  100630    219.68196   -322.98538    133316.73   -41178.315    2733.2612   -43911.576    74.691116   0.93681781 
Loop time of 78.6704 on 6 procs for 100000 steps with 4175 atoms

Performance: 549.126 ns/day, 0.044 hours/ns, 1271.126 timesteps/s
98.4% CPU use with 6 MPI tasks x no OpenMP threads

MPI task timing breakdown:
Section |  min time  |  avg time  |  max time  |%varavg| %total
---------------------------------------------------------------
Pair    | 59.431     | 62.966     | 65.783     |  25.5 | 80.04
Neigh   | 5.024      | 5.0808     | 5.2232     |   2.9 |  6.46
Comm    | 5.2426     | 8.0593     | 11.664     |  71.1 | 10.24
Output  | 0.15961    | 0.16031    | 0.16359    |   0.4 |  0.20
Modify  | 1.7431     | 1.7621     | 1.7841     |   1.1 |  2.24
Other   |            | 0.6417     |            |       |  0.82

Nlocal:        695.833 ave         707 max         665 min
Histogram: 1 0 0 0 0 0 1 0 1 3
Nghost:        1460.50 ave        1482 max        1436 min
Histogram: 1 0 0 1 1 0 2 0 0 1
Neighs:        0.00000 ave           0 max           0 min
Histogram: 6 0 0 0 0 0 0 0 0 0
FullNghs:      19034.7 ave       19458 max       17903 min
Histogram: 1 0 0 0 0 0 1 0 1 3

Total # of neighbors = 114208
Ave neighs/atom = 27.355210
Neighbor list builds = 5478
Dangerous builds = 0

undump              1
unfix               2
unfix               3
unfix               4


################################################
#######         Run Simulation         #########
################################################

reset_timestep      0
log                 log.run_${NAME}
log                 log.run_liquid_density_MLmW
