LAMMPS data file via write_data, version 29 Oct 2020, timestep = 800000

4175 atoms
1 atom types

-0.8207133981691577 50.820713398165864 xlo xhi
-0.8207133981691577 50.820713398165864 ylo yhi
-0.8207133981691577 50.820713398165864 zlo zhi

Masses

1 18.015

Atoms # atomic

1579 1 1.9698772289690232 2.141771771330496 1.8415307140069523 0 0 1
198 1 5.306595923000717 -0.31082828462357026 2.190116042951248 0 0 0
1701 1 32.52883289993639 10.561919024907066 -0.6889052251583196 0 0 1
1911 1 9.404506955341638 0.9369488534395023 0.21262409897259782 0 0 1
2728 1 2.9229510000794403 22.900016354341297 0.0026153200041765245 0 0 0
245 1 15.300523388233291 0.15706048177484322 2.210525580775628 0 0 0
2242 1 19.758554257830053 0.17030372149651318 0.3791603563501498 0 1 0
2647 1 37.33294468231388 21.668501430120173 -0.18900006975882033 0 0 0
569 1 25.00412863485201 2.197814666204472 0.7527725737320834 0 0 0
389 1 30.842302912398434 2.4117740883947114 2.2173201033714585 0 0 0
1668 1 32.068897864322224 1.9840128428032515 -0.3482136116516538 0 0 1
1997 1 38.42960819286081 0.7086003981454563 0.756638693360872 0 0 1
190 1 42.688781138567634 0.5269119951485177 0.8117404357800342 0 0 0
267 1 47.97132711747264 0.24344118706368212 0.6910570280076618 0 0 0
388 1 50.567623251106866 4.916596552208065 0.9951471577461608 0 0 0
379 1 4.777330131109972 2.2989150013798794 2.0293549915892344 0 0 0
1505 1 5.6657945700586385 3.88318208553546 -0.18759488844293282 0 0 1
221 1 10.580524439879492 2.721037431287714 2.0211470658106863 0 0 0
48 1 12.281559902378328 4.106678190533721 0.6346095046409299 0 0 0
107 1 14.496173381979345 2.2992531567451597 0.7774563017840472 0 0 0
493 1 16.75700048168755 4.16686898140972 1.3290663300977803 0 0 0
109 1 19.03574036027097 2.8298233656695158 0.6663651489819076 0 0 0
358 1 42.42533884608825 -0.17987951893693477 12.40519537306827 0 0 0
423 1 21.17621441219818 4.682860700974123 1.3136700702053141 0 0 0
151 1 35.01698879525706 24.540618146902332 7.466334424259985 0 0 0
269 1 28.86372186388292 4.324152857492271 1.9557823393956224 0 0 0
1874 1 34.67601808245762 3.1268253245168776 -0.4984358555325411 0 0 1
1729 1 35.87465073675031 4.22042722126505 1.8464137064030846 0 0 1
2306 1 40.27214664129069 4.610718940521216 0.3660511937510731 0 1 0
1954 1 41.6783073000194 4.273998894588215 2.848018697043053 0 0 1
1832 1 46.967068601818525 2.6897108923331183 -0.3045823354423828 0 0 1
1592 1 46.56764841040204 4.232872291545555 2.0638823517091454 0 0 1
532 1 0.734722597075923 7.048898512126435 -0.40475495494490754 0 0 0
1806 1 2.509518383701059 8.54970525594318 1.3456682509084366 0 0 1
1841 1 5.150300537422052 8.266944770528209 0.15662578076988176 0 0 1
610 1 7.038414651198992 6.302386225173947 0.5037450089102753 0 0 0
1840 1 10.694363152574619 8.254652998130867 1.1708872435452127 1 0 1
254 1 8.779665703105694 7.003568873968932 2.666778753073253 0 0 0
32 1 12.91496802912591 6.440674880105986 1.7112471740299027 0 0 0
1972 1 17.03844780409475 6.939307460681779 1.2183339777739257 0 0 1
595 1 14.634478530527232 7.628435044881192 -0.05491226182105147 0 0 0
495 1 21.21603646229521 7.255824831777119 0.11510774204228258 0 0 0
115 1 22.100513672658984 8.857676895080182 2.3412684922189686 0 0 0
474 1 25.57284811731434 6.383950185856996 1.8816900402920202 0 0 0
1648 1 39.87120277203594 18.332681080393495 -0.7636388892707511 0 0 1
1970 1 3.0982200902728017 16.212914164447028 -0.5116672477544503 0 0 1
411 1 33.28636168426287 7.727025198307903 -0.343707674206997 0 0 0
2069 1 33.41368121876499 7.745947628640131 2.4711670473540397 0 0 1
157 1 47.86918613179759 24.517763210899925 15.206437687870554 0 0 0
1443 1 37.94605268868784 5.924512521711619 1.6134693366066224 0 0 1
1851 1 44.08783028681462 5.687304676609049 2.2863046875994097 0 0 1
1968 1 43.03190093074207 8.351669724637611 2.3251114458335262 0 0 1
581 1 48.212711213799835 8.352473003397385 0.40272124498565764 0 0 0
1510 1 48.48849152140106 5.993853197145155 2.098827987941824 -1 0 1
2053 1 2.4762745851359322 11.233872581465123 0.7993225667095856 0 0 1
2625 1 36.230669584681735 24.928167947262875 5.244209424325224 0 0 0
431 1 6.4062419770316605 10.637163268284647 0.5393174010098287 0 0 0
113 1 11.71073084895354 10.610232522492714 2.313948700649057 0 0 0
554 1 13.488465717385557 11.801011568973326 0.32246003793749356 0 0 0
452 1 23.119804633714033 11.212293115606789 1.1318390662400704 0 0 0
1501 1 28.712718521618882 8.52368294201988 0.527290551253663 0 0 1
217 1 30.528620781691142 10.588763574271404 1.4546592064282398 0 0 0
268 1 44.81133716728199 -0.7319047427930897 6.3897687524088695 0 0 0
1905 1 13.169726190165797 16.13143068820274 -0.7091142508220976 0 0 1
1726 1 36.46587246581875 10.021642835900366 0.9826563293733688 0 0 1
1416 1 38.91209046535489 11.346583769250232 1.4012188898760685 0 0 1
47 1 43.46732902591596 9.737409286655511 0.1734366211097722 0 0 0
43 1 44.43086445469042 12.07763609684807 0.6715065157639393 0 0 0
462 1 48.264076217958674 10.682614024118244 2.0399027095280955 0 0 0
93 1 47.52000220707704 24.29017918346792 9.53054991787089 0 0 0
139 1 -0.6657404671850791 14.30234798217868 2.104391509267943 0 0 0
163 1 33.723383852917166 -0.538172465353203 15.526198441480059 0 0 0
344 1 2.0020373675898786 13.432709782900742 2.570198735961423 0 0 0
132 1 28.92135543657558 22.499967076228813 14.498296503821 0 0 0
213 1 10.170539973206704 12.754087691250625 2.793706670979471 0 0 0
1862 1 9.72951863478196 13.236007464059341 -0.11258211411131946 0 0 1
370 1 15.73473350876894 12.789939996976821 1.75767581827495 0 0 0
1783 1 18.130508993202 13.064218298881572 0.26310404609785 0 0 1
1916 1 20.724701114693442 13.018972590068927 1.751488456745153 0 0 1
317 1 22.712858670118848 14.733866187728553 0.8308328533319131 0 0 0
378 1 28.592488250434695 15.122996457002746 1.9095849897731472 0 0 0
438 1 29.845486007535197 13.019311090141073 0.3534932995631912 0 0 0
1863 1 31.73277244317614 17.03196761695863 -0.4161902805057405 0 0 1
29 1 34.05785395366466 14.350733943953928 0.6411900077709174 0 0 0
1423 1 39.7186941213192 15.4396025934944 1.670205601213572 0 0 1
445 1 37.52958649257273 -0.530027659723276 12.362005352770232 0 0 0
1820 1 42.3399972393415 13.795502764893637 1.014118317215664 0 0 1
8 1 49.586402752467606 12.361995197997066 0.586087294154725 0 0 0
252 1 -0.6491752696011464 16.187528969473316 0.08276603516346304 1 0 0
297 1 5.288272464595337 14.56662236341858 -0.12629156185835333 0 0 0
354 1 18.269753855524197 -0.4806292782232232 5.76510327095574 0 0 0
31 1 14.025822886488397 16.825042779303264 1.8791277444825005 0 0 0
704 1 11.84089167348507 -0.6537086507506358 -0.36063776794544333 0 0 0
1602 1 18.124854463507443 16.637148205110442 1.3163307348916145 0 0 1
2807 1 36.78730667525606 6.373597986061128 16.1662695553588 0 1 0
1631 1 24.769724631708804 16.90489866086428 1.296380574512427 0 0 1
660 1 27.111497408737424 16.68303450228717 0.2767705887920231 0 0 0
2290 1 23.503679136279462 23.26888117046722 14.500679362340788 0 0 0
266 1 35.86233336251331 16.180595311920253 0.5151640276876035 0 0 0
1865 1 38.4333491543767 16.03693608299732 -0.590961891082735 0 0 1
374 1 42.894899632923725 24.604675250638014 11.117998958563364 0 0 0
1752 1 44.53007375135326 16.364926743984757 -0.20731274360713425 0 0 1
562 1 42.6066493423437 16.502763674886282 1.8169489564698988 0 0 0
292 1 46.80965103644222 17.484293165442818 0.6664597250769699 0 0 0
46 1 -0.14558206730264478 18.552182467290727 1.086055507045869 1 0 0
54 1 2.5813527964832232 18.4794707029889 0.9572029202134484 1 0 0
3190 1 24.919231499308765 21.369168720472114 15.979604687468331 0 0 0
1544 1 7.795934507332868 19.662764740573767 1.6255710213017682 0 0 1
1808 1 12.100027077691246 20.389420391445267 0.02215131284195848 0 0 1
81 1 14.145629036840514 19.549067298024458 1.5993347082759661 0 0 0
1712 1 16.392400178897354 20.35533123674565 -0.11315157771825357 0 0 1
333 1 18.58666650822861 19.423718686397716 1.4059498446202054 0 0 0
105 1 21.17236733924428 20.62712906464287 0.6553063717059382 0 0 0
2632 1 22.742990554768433 21.64789068804126 2.5145337633007903 0 0 0
239 1 23.588946632890387 19.11368643818019 -0.15457107130478887 0 0 0
390 1 21.10177544970269 23.60877657540556 15.608017772990419 0 0 0
212 1 15.875370082100204 24.28852395058272 14.744978966964743 0 0 0
555 1 29.42499527845167 20.028050113744406 1.4038119131091555 0 0 0
1430 1 31.475253829231708 18.357288615729026 2.002253912105464 0 0 1
52 1 34.78202663705778 20.50729003377685 0.06360045167094375 0 0 0
669 1 33.92260685047866 19.758094691787306 2.4481262237732007 0 0 0
930 1 16.550359406953614 -0.4938229014934153 15.325839643295577 0 0 0
675 1 41.01796926209035 18.73705561385964 1.8578523770888804 0 0 0
485 1 42.7074094616374 21.156875786880622 1.849371316489734 0 0 0
609 1 47.16786832975768 20.099866238743584 -0.0301504993391275 0 0 0
2246 1 45.53678147787841 21.038449847428073 2.0779925559448094 0 0 0
1473 1 50.03221503290847 20.7729501509669 0.23702820587870055 0 0 1
671 1 -0.7173432631028954 -0.45486935978930426 12.322188171697096 1 0 0
1956 1 2.5861718870291344 23.93254278159638 2.7880406620376155 0 0 1
1969 1 10.231161728333138 21.466745853518656 1.4240076599023674 0 0 1
2177 1 9.201166115000289 23.6689394292526 -0.12503336253199682 0 0 0
1725 1 16.39630648006799 22.950506060834176 -0.37400628251965984 0 0 1
457 1 15.36109106351618 23.563585144422177 2.1615773867934522 0 0 0
617 1 19.345811967569258 22.617536466950387 0.13898696569557223 0 0 0
28 1 19.626877786061637 24.80196839804709 2.0891039766446875 0 0 0
3687 1 26.229260100571345 24.63603286253048 0.6611967247250892 0 0 1
531 1 25.5653544929076 22.152879104381753 1.6396150326533054 0 0 0
6 1 30.521356118453514 22.760132575645244 0.7723630040228695 0 0 0
102 1 37.814296875128875 23.57809990213722 1.6858182601401084 0 0 0
2451 1 40.39834585080082 24.57307857758937 1.12831764862652 0 0 0
2567 1 42.58102464219385 23.154017971013 -0.30302274004235896 0 0 0
463 1 47.108071245674935 23.388755290115537 3.0305819399274054 0 0 0
684 1 49.51186191946101 22.389119201693205 2.6845525680285127 -1 0 0
18 1 2.94134358610955 -0.35924244799168725 5.9260523710138395 0 0 0
200 1 1.2505612918834008 0.19220849627353198 3.391771946569241 1 0 0
604 1 34.12929344334546 -0.7768373852107409 8.324532218286185 0 0 0
2486 1 11.718552781762279 0.27650279916548715 3.194223039363443 0 1 0
416 1 11.813051704273727 1.0803601874298816 6.087343425809967 0 0 0
578 1 15.924079777836315 0.47181188432670584 4.72828996999555 0 0 0
352 1 17.224172285535346 22.147391273679876 13.783225556515982 0 0 0
61 1 20.36355206388319 1.2090636817365357 6.770277307671458 0 0 0
95 1 23.629923599144124 0.8529639926073196 2.8182304390333086 0 0 0
605 1 28.38322323423907 0.6716686412634938 5.112807737648256 0 0 0
638 1 29.84344546562333 -0.12915025216754406 2.94919077389023 0 0 0
674 1 35.12857404381769 1.3242594166186206 4.4219034365580505 0 0 0
349 1 37.017078031382084 2.1084954484226017 2.8884056394350544 0 0 0
2394 1 38.77400118196478 2.7736483462614814 5.248663895084945 0 1 0
2609 1 41.94610250855882 1.4750877604481447 3.18643849607274 -1 1 0
16 1 44.121096577743444 1.688839869838044 4.764178662202226 0 0 0
129 1 24.8188584996725 -0.3936274479776382 8.49224496456042 0 0 0
541 1 49.8791994060184 0.11098938613289566 2.7474993808374335 -1 0 0
312 1 48.89387855069417 1.825948275094592 4.662516289893366 0 0 0
167 1 0.6731904332357801 4.356618826716977 2.9602959699696334 0 0 0
134 1 -0.540208916749949 3.484620562511429 5.2853781128724195 0 0 0
484 1 4.68459591873746 3.3985033168470276 4.475849090829493 0 0 0
92 1 2.4838321701733594 5.35635124963452 4.802336399338835 0 0 0
150 1 7.066018435749532 4.186516742301806 5.497446830183709 0 0 0
530 1 9.427454803712875 4.7477714364652845 3.8506618487165296 0 0 0
2496 1 15.86156140611303 2.9516840695905002 5.7836190060969015 0 1 0
540 1 17.261663978698394 4.746485667798857 4.150570708813222 0 0 0
2750 1 19.677322747014028 5.372280416228819 5.416120961695041 0 1 0
2182 1 22.297628112946505 2.148612159183897 4.831388464177842 0 1 0
265 1 21.99797047464721 4.900760934314056 4.0736720814191205 0 0 0
67 1 26.23145387253488 3.799243884410844 2.6747558925142827 0 0 0
143 1 27.220492628324756 3.161352999733745 5.335785939183468 0 0 0
144 1 32.696544552137325 3.0818547654572535 4.2660781600445645 0 0 0
436 1 34.136607814331555 5.500645839599165 3.7074440040632064 0 0 0
372 1 37.653172657950606 5.108697736473218 6.5925696530768265 0 0 0
2398 1 46.37872389835118 3.0689275068116206 4.5852579844768675 0 1 0
626 1 2.908577253401544 7.977348711844741 4.112097907708682 0 0 0
496 1 5.507602662915138 8.659199012146733 5.393617711357641 0 0 0
477 1 8.400531362921747 9.125490641365214 4.607744801736608 0 0 0
686 1 13.331725907824971 7.2994607346005065 4.358454617668072 0 0 0
479 1 11.602826071111824 5.490345506103101 5.578419320811883 0 0 0
465 1 16.05989832840545 7.005983714433418 5.116417523152674 0 0 0
556 1 23.650369733380124 6.999093258065641 3.6616967500182858 0 0 0
135 1 27.529892303171366 7.829010745140758 3.0210517879650984 0 0 0
600 1 29.641205836208123 6.4413213041016455 3.776986818437888 0 0 0
577 1 31.623595352679356 8.451058797095984 4.394997022347547 0 0 0
582 1 35.21995706547612 6.458019473644549 6.099754145972597 0 0 0
654 1 38.98556827235525 7.102532241684072 3.992677490427049 0 0 0
1 1 36.96858734483382 8.526741729673473 5.241637281227259 0 0 0
75 1 40.741843674598925 5.011451436603448 5.35448625433226 0 0 0
451 1 46.50643961577387 7.899452046935883 6.142991038119831 0 0 0
256 1 48.64262443540767 7.273762836061225 4.480206489475168 0 0 0
2037 1 0.8747638862773754 9.784641422912244 5.16129685568442 1 0 1
38 1 7.692740299153861 11.464248130944457 3.0474455058080894 0 0 0
708 1 12.936013398847606 9.860853294751106 4.634635391423454 0 0 0
36 1 15.609873515528584 10.706732108972735 3.6317355897124566 0 0 0
22 1 17.29140850168011 8.64371263441785 3.536143018210658 0 0 0
572 1 19.841300320946257 9.656133085731845 4.174363618711184 0 0 0
350 1 20.13164998404696 12.354681460525066 4.633322250966186 0 0 0
11 1 24.510446319278707 12.180003203506438 3.510784766655017 0 0 0
351 1 26.651517110438895 10.076105085365729 4.377411810433083 0 0 0
653 1 28.589910183990437 11.836872808496619 5.207690752598085 0 0 0
419 1 30.9988693333301 11.012856704615528 4.142369422278931 0 0 0
417 1 35.153899154715376 9.598588970132301 3.3563632241668175 0 0 0
646 1 33.66298549254397 11.733327536350835 4.4592299550062835 0 0 0
50 1 40.49206157460851 9.406756448206862 2.8299415388198614 0 0 0
420 1 40.630377283043 11.0796955295341 4.879072132682063 0 0 0
545 1 42.96662939133191 11.142157865597099 5.874001538495141 0 0 0
2731 1 44.838940324432755 9.151660610678155 4.410940906573636 0 1 0
536 1 45.89170885498187 11.430867789416702 3.039209156138369 0 0 0
255 1 49.621877226587756 9.900204571271445 4.436723005626273 0 0 0
1536 1 4.6800736626639186 14.595365381999208 2.6167887984258544 0 0 1
174 1 1.9955197380090817 12.348045598289257 5.22148269874046 1 0 0
263 1 6.4781808085035735 13.529358225936065 4.716689578444255 0 0 0
439 1 10.921634805940403 14.772865214277443 4.8261950894231465 0 0 0
286 1 16.07663750448364 15.420701819977108 2.718923958128734 0 0 0
2105 1 19.54770682368013 15.317570781555297 3.38967493984377 0 0 1
625 1 22.726070677766362 12.398218660032336 5.454622431847598 0 0 0
527 1 23.425296419144118 15.09265531925333 5.882440951508257 0 0 0
2065 1 27.074262839389252 13.764181942741839 3.7669684028868016 0 0 1
101 1 33.23084075863663 14.21018734674182 3.091100605863404 0 0 0
511 1 39.14458542807951 13.239297424859284 3.7114887642672665 0 0 0
339 1 37.056893732587596 14.565829370801417 5.456524026955798 0 0 0
332 1 44.01301762755055 13.866785249141953 5.845050180933875 0 0 0
1567 1 46.73357345662859 13.163591095151835 5.344896377901455 0 0 1
343 1 50.59146598406251 15.846639083233597 4.512412845048942 -1 0 0
514 1 3.982706279650329 17.545929042257846 3.223047125318071 1 0 0
136 1 8.23970785689289 17.966319356160138 5.741577758808976 0 0 0
127 1 8.330058638455014 15.252080386136956 5.608891014319021 0 0 0
112 1 12.33104266810129 17.252654210339045 4.437092139870903 0 0 0
687 1 15.976064528843509 16.114942703819732 5.28095548817435 0 0 0
302 1 14.672032811526474 18.3527099080683 5.809280069862451 0 0 0
338 1 21.60713714547739 16.93405353221935 4.698605379442144 0 0 0
3754 1 20.058415551056513 18.30703479353535 6.5094907841127325 0 0 1
363 1 25.9733661025079 16.039150844351802 5.086709644938008 0 0 0
1853 1 25.368340942058815 18.318199009610503 3.424810952653538 0 0 1
1790 1 30.964307798586063 15.88909468965219 3.219354570027841 0 0 1
188 1 30.90543934374429 16.98185975512546 5.895903017120223 0 0 0
503 1 34.886919218351466 15.966045040969778 4.710745636487808 0 0 0
348 1 36.0595282585176 17.725709345460352 2.907965399427213 0 0 0
273 1 38.41101181538146 16.556910298433284 3.9169540575660013 0 0 0
108 1 43.87502273653786 16.207349903931718 4.089532590189876 0 0 0
1644 1 46.33569717698384 17.275476288325443 3.4413006154982977 0 0 1
519 1 48.13370881231312 15.65898305959507 5.227548795850556 0 0 0
634 1 -0.47500544101912007 18.465079194487235 3.7537254104339306 0 0 0
429 1 1.994666087066137 18.899791486795376 4.68158711240873 0 0 0
1582 1 5.270848091500119 21.218138728841925 5.648792167014381 0 0 1
492 1 6.30273713886607 19.036430722674428 3.844911697602609 0 0 0
33 1 10.712111664374849 19.260550010187814 5.387183078778437 0 0 0
1455 1 11.018342864552931 21.708090597138305 4.010605277460394 0 0 1
709 1 15.016744142969982 20.31700580594918 4.026560393493958 0 0 0
2697 1 17.902637007622417 20.919326398114276 3.8116066831284776 0 0 0
501 1 23.14763293518228 19.448770488667087 4.372368537358811 0 0 0
518 1 27.193837530020918 20.40961769546633 2.8195331788250257 0 0 0
153 1 27.71833507526529 21.174232510698612 5.426940455249116 0 0 0
874 1 37.02231117774791 20.173059315976435 4.710179082850391 0 0 0
460 1 39.60632061162178 19.354163192015196 4.27271974335604 0 0 0
402 1 41.29707388365267 21.84137510776679 4.106051745170019 0 0 0
661 1 46.58072138299748 19.673782480328917 4.326803952480764 0 0 0
471 1 49.150011772669814 20.396309034500238 4.454803043611839 0 0 0
175 1 -0.23417706293678442 24.42140507090164 2.91057436560574 1 0 0
2490 1 2.6732292113866083 21.765913920646987 4.792378467002432 0 0 0
2439 1 9.622952566829253 23.520908085983123 5.586259561026565 0 0 0
205 1 13.60318583074729 22.52753471152075 4.470078814591706 0 0 0
2325 1 17.605713412394444 23.78718619075613 3.5683264483259087 0 0 0
2748 1 21.968176313293178 23.912673777053858 3.6737562229781497 0 0 0
2361 1 20.99566527073381 23.334857416616735 6.222771193579453 0 0 0
2355 1 31.37116514558365 24.06196264637391 2.945676173559649 0 0 0
2183 1 9.270804402851049 -0.3150121448728024 9.712421604333064 0 1 0
165 1 33.390695218580376 22.273455888025005 3.5981090182210353 0 0 0
2270 1 8.021788480759122 -0.6933126064864229 1.928269360205427 0 1 0
383 1 36.08805278172521 22.81851546768174 3.860688842421834 0 0 0
375 1 1.129385453193892 -0.4308425496308111 15.979697348430506 0 0 0
2141 1 46.8043392444787 24.463232480617265 5.657081022937084 0 0 0
280 1 0.6243206558368075 2.0973188747080385 7.3889284662174735 0 0 0
2441 1 3.755787969119181 1.905709942107745 6.953885868216279 0 1 0
2288 1 7.435303899877413 -0.2590040043412889 6.37854918362044 0 1 0
264 1 7.250031815056795 2.39329144263064 7.440589360143436 0 0 0
2521 1 9.8963604119988 1.9038509141559992 8.05919770532908 0 1 0
2188 1 9.914751014289171 24.488538919571234 9.824185638032068 0 0 0
2756 1 14.198666252048692 0.31983509802711185 9.166797093909894 0 1 0
2237 1 24.638326378835732 2.3993283902188813 8.991751870738046 0 1 0
96 1 30.396642421181244 0.8635803424364594 7.050430759931186 0 0 0
2587 1 35.795887632461756 1.1439880227336137 7.068655991177266 0 1 0
2226 1 38.770165756225126 0.9399346263063826 7.414346000267139 0 1 0
567 1 41.1498227618349 2.057922958145959 8.771100481232716 0 0 0
619 1 48.81367682328546 0.08877680656660303 7.130780840777579 -1 0 0
330 1 48.564777941703596 1.9440906494979204 9.2882046248347 -1 0 0
80 1 2.3826479442645203 4.578579586415406 7.570377398997291 0 0 0
373 1 4.332725157697839 6.081433454056954 8.81628401397633 0 0 0
627 1 13.155296510514384 3.363342978796191 6.388717390653227 0 0 0
839 1 13.594954875923607 3.344081528748581 9.1978678869157 0 0 0
173 1 16.32234602006006 5.843059887316512 9.233848834382373 0 0 0
2603 1 17.176770985305296 3.6173520373288977 8.230482475731478 0 1 0
2811 1 19.885951381514577 3.741959489791186 7.890066181064087 0 1 0
2368 1 22.25529108451344 3.775583183000564 9.254020190947612 0 1 0
2174 1 24.7052255037415 1.8617536521875748 6.230248490484452 0 1 0
241 1 29.093703122344973 5.035770906902941 6.1491677786340215 0 0 0
197 1 27.858380796760308 5.4581609854288455 8.70527244852222 0 0 0
382 1 31.18377255580236 3.26752759374011 6.435283492376762 0 0 0
696 1 32.50291286363239 4.8242326171018695 8.802341233657952 0 0 0
482 1 35.28139141008856 3.6961221721254427 7.917676833369116 0 0 0
293 1 39.1014119695254 5.726127268914573 8.90934211090277 0 0 0
552 1 42.69908894894539 3.418012294566977 6.704648520690701 0 0 0
131 1 44.555103614493106 4.687879284899134 8.34468950788689 0 0 0
371 1 46.62629251525374 4.941783156077373 6.35191821876969 0 0 0
589 1 48.679108031131506 4.765431813652882 8.261353990118232 0 0 0
468 1 0.6079941433314757 6.6608891584884615 8.22886773012753 0 0 0
12 1 6.340656469395444 6.703580434951556 6.951586197660892 0 0 0
45 1 8.679010496654605 7.794730059783122 8.478296141118786 0 0 0
219 1 10.977156401734973 6.109962769764627 8.338135875091739 0 0 0
677 1 17.166755588916438 7.752229473197065 7.6300375774188645 0 0 0
400 1 19.91320391098584 7.800932838425544 6.575176657073505 0 0 0
599 1 20.585506491387132 7.725280706693823 9.23068210759083 0 0 0
413 1 25.065471463928734 8.273174053571088 5.920638565471577 0 0 0
82 1 25.522523141518874 6.886854167616078 8.380482683186807 0 0 0
160 1 30.606768255565413 6.631486021453122 8.375428980831595 0 0 0
69 1 32.70933193169587 7.914937899519936 6.799358575350249 0 0 0
271 1 38.746384568518195 8.60616931818823 8.911119905440643 0 0 0
579 1 50.425841214090084 5.876618919215493 6.0130643515293976 0 0 0
502 1 1.2025924122199863 9.311306108127383 8.032577975652739 0 0 0
616 1 3.576291962245402 10.326720238934708 9.386344244589658 0 0 0
409 1 5.449475769538893 10.574405479090384 7.590301477516409 0 0 0
118 1 7.851856381333718 11.498873081339717 8.63090345586588 0 0 0
316 1 9.545509528811332 9.996568578169354 6.992733071418177 0 0 0
447 1 11.972817788743065 10.984382497668406 7.101198799624475 0 0 0
573 1 13.213369176355672 10.046148284673395 9.240793399002499 0 0 0
203 1 15.840190805173233 9.77269326465313 8.560031046860228 0 0 0
427 1 16.27914902324762 11.512951662042417 6.318381023614871 0 0 0
522 1 19.562288961683024 12.188323932394118 9.222071977284607 0 0 0
130 1 21.473558824657637 10.481656733957305 9.08220199631397 0 0 0
246 1 23.941355703341497 10.61498542650624 7.2613169014464845 0 0 0
114 1 25.889270808839928 11.497937774194549 8.959516985843678 0 0 0
534 1 28.619643100216667 11.893601760065383 8.141799000397125 0 0 0
253 1 30.168658947052077 9.734322474585532 8.588541862176026 0 0 0
291 1 33.12269296353962 9.926363382986787 8.45111102484371 0 0 0
230 1 34.44222225616976 12.027752457458819 7.207739546858415 0 0 0
489 1 37.33297055806801 12.495588882670676 7.638618666047467 0 0 0
538 1 38.47276679057353 10.249878503302643 6.777119941831383 0 0 0
425 1 42.52730280136248 11.367752677428408 8.503527457143267 0 0 0
553 1 47.08688197900652 9.860728808554503 8.144893278308702 0 0 0
525 1 45.17944550572993 11.610379632621298 9.131072001040765 0 0 0
381 1 48.39216226115259 11.357641770186335 6.429272180872952 0 0 0
456 1 0.45977730283323504 14.425680722026332 6.604618649170963 1 0 0
154 1 4.583222708824577 12.911842132718649 6.442776516731409 0 0 0
62 1 4.085877400991604 14.453029378180316 8.811575103879035 0 0 0
39 1 8.470316892622307 14.369302432651192 7.971817070446779 0 0 0
335 1 10.906413830994078 14.876149068377607 9.28129245456934 0 0 0
651 1 12.033760312095483 13.858137027652653 6.936787107116009 0 0 0
421 1 15.028905192147741 13.987440025459986 6.774860482359366 0 0 0
466 1 18.3644383409942 13.01168497110478 6.912760698172456 0 0 0
303 1 33.330774285957645 13.390599074142036 9.741419427473975 0 0 0
283 1 30.856522625341153 13.508572906065353 8.391573429020116 0 0 0
410 1 41.2688442932363 13.997485690468118 8.936713184838641 0 0 0
405 1 45.41616979244739 14.418831821176997 8.229173873806797 0 0 0
631 1 50.34826457377821 12.656215867113604 7.834887724285169 0 0 0
575 1 49.183277091511144 14.47825299575581 9.724769996943747 0 0 0
398 1 1.6926047986077153 16.06175399587389 8.441760379728773 0 0 0
505 1 2.146208151013323 18.659537646500564 7.4050717345558486 1 0 0
356 1 6.375327217806562 15.880697145261728 8.930468390512802 0 0 0
189 1 7.242637606121674 18.549325655621477 8.166636386589602 0 0 0
543 1 18.295893244518382 15.809389603044654 6.502349882982701 0 0 0
440 1 18.162191816825505 16.13504882181073 9.21492162751902 0 0 0
100 1 22.535068745007926 15.890487545208757 8.547223803955632 0 0 0
272 1 22.10869367528828 18.596465776783212 8.62886060658698 0 0 0
422 1 26.687537121708793 16.754696515544985 7.469312870053125 0 0 0
90 1 29.565365031036688 15.844477492014356 7.970283333233272 0 0 0
347 1 33.49223083629937 16.880958091103118 6.845986065217626 0 0 0
296 1 34.31010861324572 15.748881703251623 9.400752406433988 0 0 0
645 1 36.83633372166341 16.300913271894064 9.791897485957367 0 0 0
192 1 38.75356927223332 15.100856645727765 7.81390287320988 0 0 0
643 1 39.989026988288785 17.5246881400138 6.417074567307149 0 0 0
361 1 42.899289877037106 17.591664153786432 6.298753155136398 0 0 0
294 1 43.03784813932448 15.957058734092218 8.428652939522832 0 0 0
652 1 47.79651189458393 15.847692453699832 7.94065776730376 0 0 0
594 1 -0.021533729868251306 19.827494471134695 8.862505960022306 1 0 0
3481 1 4.653234938072363 19.76747542962633 7.942066809137097 1 0 0
19 1 9.487733512428141 19.7343176690823 9.509856085290972 0 0 0
311 1 11.48763558359563 20.38507379646848 7.825267770382631 0 0 0
142 1 13.736935677433756 19.050777839959363 8.543790530965735 0 0 0
49 1 19.52884593717557 21.120733209068927 6.054882162538056 0 0 0
656 1 18.466120038931823 21.258842700952517 8.607565404640855 0 0 0
1632 1 23.63022681565707 20.331963356524863 7.077184131424781 0 0 1
1222 1 26.61133514762096 19.62368661079119 7.3029658682567735 0 0 0
829 1 27.41419485484196 21.15376491405377 9.602111079848662 0 0 0
521 1 29.620107145032815 19.814885537600322 9.220595197533058 0 0 0
512 1 30.259786108607422 19.64236107602052 6.270479751367452 0 0 0
587 1 32.4914403193024 21.19876968013467 6.098389225648467 0 0 0
2112 1 34.125588849254996 19.593209300418255 7.75694840760746 0 0 0
2461 1 36.76228496531162 20.44284002408587 7.456380355815298 0 0 0
10 1 39.15285782853395 19.374547660432125 8.526160454050531 0 0 0
2171 1 41.362019214891745 21.47923144838827 8.492418554233936 0 0 0
204 1 43.21566873239044 21.66996786033945 6.352290987360357 0 0 0
71 1 44.95806117167099 19.55546010553009 6.415056988595035 0 0 0
1412 1 46.24976635345233 20.4123189934918 8.848015394518631 0 0 1
2455 1 50.21590360325537 21.51480825086332 6.8117717444602 0 0 0
65 1 0.7498172879044744 23.217488759345006 6.659036758018007 1 0 0
1173 1 1.360844065462215 23.633312875208755 9.32233242450318 0 0 0
458 1 6.892795533433881 23.213871745723374 6.499397123362825 0 0 0
637 1 5.58016679713892 23.9912569823105 8.947133550559768 1 0 0
331 1 11.493140321210173 23.185821304514285 7.728279512992632 0 0 0
276 1 14.602282384103336 23.81837345759122 6.655405813033143 0 0 0
238 1 15.529071178475593 24.434962470522493 9.340552143493104 0 0 0
2504 1 18.374464986308393 23.8472834684556 9.472415646310273 0 0 0
2163 1 23.465176434078288 23.222062390320808 7.545704210401334 0 0 0
688 1 36.480046018054665 18.457190659491946 16.277288183605155 0 0 0
2509 1 27.458522734328813 23.74978487656277 6.51084459657475 0 0 0
125 1 28.02075614294562 23.71899020140016 9.379930637502184 0 0 0
119 1 32.19331795556316 23.835436153424066 7.324651097233524 0 0 0
2300 1 14.13862688845807 -0.6100073945012355 6.386343534278701 0 1 0
2555 1 37.081903377526416 22.848306964585298 8.515837189109893 0 0 0
1256 1 29.35004631049751 1.1251417246101942 16.097872203048947 0 0 0
700 1 39.55160707010438 23.726121269460453 8.54766244017306 0 0 0
63 1 44.06376193191362 24.277141250656427 6.2545805532597205 0 0 0
168 1 47.96442848934008 22.63101673229593 7.646915908050676 0 0 0
1559 1 40.77947238739216 2.026103175222667 -0.4886761289976392 0 0 1
326 1 -0.6768149553677658 1.1086924438600176 9.866860736584613 0 0 0
70 1 3.6978618272523693 1.878967059470794 9.925496374002698 0 0 0
260 1 4.036230201834167 0.7888722225892093 12.88449297588836 0 0 0
97 1 8.330572804025007 0.028675232628382452 12.316350472311647 0 0 0
2716 1 21.897684409881336 -0.667427424040629 1.5465298905629297 0 1 0
2463 1 12.369800934927241 -0.15399977015854638 12.90107224404498 0 1 0
2081 1 28.7513440009568 5.095634976280882 -0.802212498861787 0 0 1
2677 1 17.934736708691183 1.4545793216065444 9.897587023504174 0 1 0
630 1 20.737744506928447 1.15203069741102 10.225530792177025 0 0 0
94 1 29.405112919457252 1.3741574380804087 9.58476406585303 0 0 0
612 1 31.634193409462046 2.5306473361185096 10.436711415790747 0 0 0
2752 1 33.217025833294954 0.3005320493478816 10.714304388655908 0 1 0
2133 1 38.685952970262434 1.512467321190766 10.710703420318028 0 1 0
1005 1 13.114301148937685 23.55817223055631 14.959081902198058 0 0 0
327 1 40.18740230924682 1.290383141369865 13.218376577815976 0 0 0
164 1 43.074956622965615 0.723537667701206 10.113371366058809 0 0 0
394 1 47.26992921669684 1.6227031387430797 11.683574978853695 0 0 0
2436 1 1.3079055099445114 3.3634620881547086 10.3779077583613 0 1 0
2597 1 5.929371466854931 3.7328124282305737 9.983259550935788 0 1 0
598 1 7.013106817888923 3.871212642621816 12.555617307872314 0 0 0