
# Create simulation box of size 50 x 50 x 50 Angstrom
#
lattice	            sc 1
Lattice spacing in x,y,z = 1.0000000 1.0000000 1.0000000
region 	            all block 0 50 0 50 0 50 units box
create_box          1 all
Created orthogonal box = (0.0000000 0.0000000 0.0000000) to (50.000000 50.000000 50.000000)
  1 by 2 by 3 MPI processor grid

# fill box with 4175 randomly distributed atoms
#
create_atoms        1 random 4175 63782 all
Created 4175 atoms
  create_atoms CPU = 0.001 seconds
mass                1 18.015

# Define potential
#
pair_style          sw
pair_coeff          * * ML_mW.sw mW
Reading sw potential file ML_mW.sw with DATE: 2019-02-27

# Run minimization
#
minimize            1.0e-8 1.0e-8 10000 1000
WARNING: Using 'neigh_modify every 1 delay 0 check yes' setting during minimization (../min.cpp:187)
Neighbor list info ...
  update every 1 steps, delay 0 steps, check yes
  max neighbors/atom: 2000, page size: 100000
  master list distance cutoff = 6.0032907
  ghost atom cutoff = 6.0032907
  binsize = 3.0016454, bins = 17 17 17
  1 neighbor lists, perpetual/occasional/extra = 1 0 0
  (1) pair sw, perpetual
      attributes: full, newton on
      pair build: full/bin/atomonly
      stencil: full/bin/3d
      bin: standard
Per MPI rank memory allocation (min/avg/max) = 4.255 | 4.258 | 4.261 Mbytes
Step Temp E_pair E_mol TotEng Press 
       0            0    7792709.3            0    7792709.3    5898794.3 
     630            0   -45180.336            0   -45180.336   -154.07449 
Loop time of 1.21025 on 6 procs for 630 steps with 4175 atoms

99.7% CPU use with 6 MPI tasks x no OpenMP threads

Minimization stats:
  Stopping criterion = max force evaluations
  Energy initial, next-to-last, final = 
      7792709.32924461  -45180.0188663597   -45180.336116598
  Force two-norm initial, final = 2.0191930e+08 4.9721331
  Force max component initial, final = 1.0948746e+08 0.73126211
  Final line search alpha, max atom move = 0.053306038 0.038980685
  Iterations, force evaluations = 630 1000

MPI task timing breakdown:
Section |  min time  |  avg time  |  max time  |%varavg| %total
---------------------------------------------------------------
Pair    | 0.93044    | 1.0296     | 1.0954     |   5.1 | 85.07
Neigh   | 0.024792   | 0.025009   | 0.025624   |   0.2 |  2.07
Comm    | 0.069434   | 0.13486    | 0.23483    |  14.3 | 11.14
Output  | 0          | 0          | 0          |   0.0 |  0.00
Modify  | 0          | 0          | 0          |   0.0 |  0.00
Other   |            | 0.02082    |            |       |  1.72

Nlocal:        695.833 ave         704 max         685 min
Histogram: 1 1 0 0 1 0 0 1 0 2
Nghost:        1494.17 ave        1515 max        1468 min
Histogram: 1 1 0 0 0 0 1 1 1 1
Neighs:        0.00000 ave           0 max           0 min
Histogram: 6 0 0 0 0 0 0 0 0 0
FullNghs:      19997.0 ave       20462 max       19320 min
Histogram: 1 1 0 0 0 0 0 2 0 2

Total # of neighbors = 119982
Ave neighs/atom = 28.738204
Neighbor list builds = 26
Dangerous builds = 0

# Add velocity/set timestep
#
velocity            all create ${TEMP} 120598 rot yes dist gaussian
velocity            all create 210 120598 rot yes dist gaussian
timestep            5.0

# Define output
#
compute	            1 all msd
thermo	            100
thermo_style        custom step temp press vol etotal ke pe c_1[4] density

# Neighbor lists
#
neigh_modify        delay 0 every 1 check yes

# Set fixes
#
fix                 1 all momentum 10 linear 1 1 1 rescale
fix                 2 all nve
fix                 3 all temp/csvr ${TEMP} ${TEMP} 500.0 928347
fix                 3 all temp/csvr 210 ${TEMP} 500.0 928347
fix                 3 all temp/csvr 210 210 500.0 928347
fix                 4 all press/berendsen iso ${PRES} ${PRES} 1000.0 modulus 20000
fix                 4 all press/berendsen iso -850 ${PRES} 1000.0 modulus 20000
fix                 4 all press/berendsen iso -850 -850 1000.0 modulus 20000

# Run 0.5 ns equilibration
#
dump                1 all custom 1000 eq.${NAME}.dump id type x y z vx vy vz
dump                1 all custom 1000 eq.liquid_density_MLmW.dump id type x y z vx vy vz
run                 100000
Per MPI rank memory allocation (min/avg/max) = 3.506 | 3.508 | 3.511 Mbytes
Step Temp Press Volume TotEng KinEng PotEng c_1[4] Density 
     630          210    801.42152       125000   -42567.537    2612.7992   -45180.336 2.7295415e-33   0.99914793 
     700    134.22014   -650.38241    126223.71   -41756.288    1669.9537   -43426.241   0.24640291   0.98946146 
     800    164.55981   -907.63292     126710.4   -41019.258    2047.4369   -43066.694   0.55887068   0.98566097 
     900    183.89406   -549.70393    126919.29   -40589.145    2287.9917   -42877.137   0.89281306   0.98403869 
    1000    195.51391   -781.31967    127212.43   -40325.859    2432.5648   -42758.424     1.295144    0.9817711 
    1100    204.19568   -813.02348    127389.96   -40163.018    2540.5824     -42703.6    1.7278644   0.98040292 
    1200    201.48425   -692.81772    127789.42   -40199.402    2506.8471   -42706.249    2.0287206   0.97733828 
    1300    203.98748   -627.71941    127893.64   -40188.342     2537.992   -42726.334    2.3702511   0.97654182 
    1400    201.76448   -792.97739    127976.84   -40206.861    2510.3337   -42717.195    2.6352897     0.975907 
    1500     208.3584   -648.65345    128251.37   -40177.443    2592.3746   -42769.817    2.9548586     0.973818 
    1600    210.97003   -812.69767    128636.93   -40088.856    2624.8683   -42713.724    3.2557459   0.97089919 
    1700    210.94189   -538.45836    128885.07   -40127.301    2624.5182   -42751.819     3.541086   0.96902997 
    1800    207.20444   -759.62318    129220.63   -40210.295    2578.0172   -42788.313    3.8688921   0.96651353 
    1900    211.82387   -831.55363    129397.73   -40226.204    2635.4916   -42861.696    4.0919712   0.96519076 
    2000    215.70176   -771.64251    129670.36   -40205.444      2683.74   -42889.184    4.4641493   0.96316147 
    2100     215.1723   -931.42411    129839.94   -40192.883    2677.1524   -42870.036    4.7295095   0.96190349 
    2200    213.94554   -836.25865    129869.34   -40266.533    2661.8893   -42928.422    5.0494894    0.9616857 
    2300    214.58621   -863.44942    130121.72   -40277.536    2669.8605   -42947.396    5.2620641   0.95982047 
    2400    210.87215   -763.03517    130311.71   -40292.795    2623.6505   -42916.446    5.4476089   0.95842109 
    2500    213.06831   -901.86046    130359.23   -40265.474    2650.9749   -42916.449    5.6191209    0.9580717 
    2600    215.00966   -767.60297    130531.57   -40235.996    2675.1289   -42911.125    5.8496129   0.95680677 
    2700     215.9779   -757.96998    130608.51    -40277.64    2687.1757   -42964.816    6.1397887   0.95624312 
    2800    216.74449   -773.74906     130685.6   -40291.406    2696.7135   -42988.119    6.3769526   0.95567906 
    2900    212.27119   -838.34216    130776.81   -40373.587    2641.0571   -43014.644    6.5676263   0.95501252 
    3000    211.33258   -909.28494    130728.33   -40419.238    2629.3791   -43048.617    6.7196973   0.95536667 
    3100    215.56733   -652.50686    130826.72   -40420.383    2682.0674   -43102.451    6.8570729   0.95464815 
    3200    212.68453   -807.33468    130972.62    -40479.98    2646.1999    -43126.18    6.9429555   0.95358476 
    3300    216.16376   -767.87989    131038.14   -40488.068    2689.4882   -43177.557    7.2285957   0.95310794 
    3400    213.23503   -692.11494    131199.37   -40544.761    2653.0492    -43197.81    7.4628469   0.95193668 
    3500    210.83118   -812.37902    131401.52   -40597.496    2623.1407   -43220.637     7.674895   0.95047217 
    3600    211.02606   -912.61496    131557.82   -40637.303    2625.5654   -43262.868     7.672729   0.94934296 
    3700    211.17321   -701.81548    131772.09   -40711.373    2627.3962   -43338.769    7.6865902   0.94779929 
    3800    209.32835    -767.7772     131759.2   -40680.834    2604.4426   -43285.277    7.8829818   0.94789201 
    3900    208.52632   -794.73175    131882.33   -40712.968    2594.4638   -43307.432    8.0376649     0.947007 
    4000    213.50329   -914.83102    131770.32   -40719.383    2656.3868    -43375.77    8.2482241   0.94781199 
    4100    209.13372   -694.78545    131823.29   -40714.508    2602.0211   -43316.529    8.4741669   0.94743118 
    4200    209.94731   -961.57307    131936.19   -40725.835    2612.1437   -43337.979     8.538121    0.9466204 
    4300    208.42574    -763.4862    131896.79    -40742.94    2593.2125   -43336.153    8.5390869   0.94690318 
    4400    209.33474   -647.13767    131980.82   -40741.392    2604.5221   -43345.914    8.6449197   0.94630032 
    4500    207.63816   -880.04756    132230.27   -40753.349    2583.4134   -43336.762    8.8531282   0.94451512 
    4600    209.01169   -788.59182     132229.1   -40808.107    2600.5028    -43408.61    9.1429607   0.94452347 
    4700    214.93934   -800.83345    132230.96    -40746.61    2674.2541   -43420.864    9.2129081    0.9445102 
    4800    211.39395   -946.17402    132230.83   -40816.609    2630.1426   -43446.752    9.2582416   0.94451115 
    4900      212.282   -950.19656    132075.75   -40716.562    2641.1916   -43357.754    9.3119816   0.94562018 
    5000    216.86443   -820.00223    132391.79    -40663.86    2698.2058   -43362.065    9.4544518   0.94336282 
    5100    208.45508   -825.55306    132316.55    -40747.66    2593.5775   -43341.237    9.6963136   0.94389926 
    5200    211.72209   -762.36936    132118.51   -40808.004    2634.2253   -43442.229    9.8042549    0.9453141 
    5300     212.2345   -794.11189    132258.46   -40790.998    2640.6006   -43431.599      9.85174   0.94431379 
    5400     212.1927   -764.11681    132237.85   -40848.409    2640.0806    -43488.49    9.9642658   0.94446099 
    5500    209.06628   -941.77681    132367.59   -40853.866     2601.182   -43455.048    10.271375   0.94353528 
    5600    210.15511    -717.9842       132522   -40859.479    2614.7291   -43474.209    10.366145   0.94243588 
    5700    215.57299   -824.19239    132627.37   -40861.189    2682.1378   -43543.327     10.31355   0.94168716 
    5800    212.13411   -996.06903    132654.98   -40900.374    2639.3516   -43539.726    10.393484   0.94149118 
    5900    208.10574   -761.62376    132621.81   -40945.289     2589.231    -43534.52    10.322802   0.94172665 
    6000    211.76836   -764.68971    132715.84   -40941.927     2634.801   -43576.728    10.542541    0.9410594 
    6100    213.38497   -860.41314    132664.52    -40893.82    2654.9147   -43548.734    10.456471   0.94142349 
    6200    209.62608   -743.37577    132975.84   -40971.152    2608.1469   -43579.299    10.643828   0.93921941 
    6300    207.87173   -638.68235    133090.24   -40939.863    2586.3195   -43526.183     10.80506   0.93841207 
    6400    211.82277   -836.12295    133163.12   -40930.637    2635.4779   -43566.115    10.832875   0.93789851 
    6500    213.90928   -832.88259    133141.63   -40898.742    2661.4381    -43560.18    10.892192   0.93804989 
    6600    206.08259    -1038.118    133164.21   -40977.195    2564.0592   -43541.254    10.899809   0.93789081 
    6700     207.9984   -883.40741    133058.46   -41046.056    2587.8956   -43633.952    10.979511   0.93863625 
    6800    206.99825   -836.56115     133286.3   -40973.331    2575.4518   -43548.783    11.120046   0.93703171 
    6900    214.70841   -905.88858    133340.94    -40929.76    2671.3808   -43601.141    11.075958   0.93664775 
    7000    215.88931   -1003.2003    133020.61   -40933.275    2686.0735   -43619.349    10.977536   0.93890334 
    7100    209.28971   -889.97199    133007.57   -40965.174    2603.9619   -43569.136    11.053419   0.93899539 
    7200    210.62483   -852.51178    133167.17   -41021.282    2620.5733   -43641.856    11.003502   0.93786997 
    7300    206.61571   -877.48374    133202.38    -41088.08    2570.6923   -43658.772    11.142176   0.93762204 
    7400    204.06777   -671.34617    133188.75   -41120.759     2538.991    -43659.75    11.262697   0.93771804 
    7500    208.99863   -720.86808    133364.82   -41099.134    2600.3403   -43699.474    11.432969   0.93648007 
    7600    206.64168   -938.95977    133168.47   -41197.311    2571.0154   -43768.327    11.498172   0.93786083 
    7700     207.9517   -757.59196    133246.38   -41115.836    2587.3145    -43703.15    11.529208   0.93731247 
    7800    213.59333   -675.87315    133370.39   -41096.305     2657.507   -43753.812    11.581648   0.93644093 
    7900     206.9614   -788.43219    133304.82   -41156.087    2574.9933    -43731.08    11.694861   0.93690156 
    8000    206.42346    -980.7492    133213.15   -41135.832    2568.3002   -43704.132    11.767075   0.93754625 
    8100    204.74991   -851.94693    133310.19   -41201.798    2547.4781   -43749.276    11.669146    0.9368638 
    8200    205.39451   -803.82712    133330.16   -41219.376    2555.4982   -43774.874    11.677361   0.93672345 
    8300    207.22805   -758.46188    133391.37    -41210.58     2578.311   -43788.891    11.840939   0.93629362 
    8400    207.23447   -756.52373    133467.36   -41168.918    2578.3908   -43747.309    11.966854   0.93576058 
    8500    209.71981   -802.63448    133543.78   -41099.628    2609.3131   -43708.941    12.106061   0.93522506 
    8600    211.88012   -844.70582    133563.96   -41113.291    2636.1915   -43749.482    12.051871   0.93508378 
    8700    212.66886   -911.76967    133819.97   -41095.676    2646.0049   -43741.681     12.15199   0.93329486 
    8800    209.71318   -788.35512     133647.3   -41139.431    2609.2307   -43748.662    12.177142   0.93450064 
    8900    207.45311   -761.96382    133818.71   -41220.824    2581.1111   -43801.935    12.300686   0.93330363 
    9000    211.60962   -845.26551    133652.89   -41199.251    2632.8259   -43832.077    12.325126   0.93446158 
    9100    203.86767   -890.47384    133692.76   -41267.813    2536.5014   -43804.314    12.387304   0.93418293 
    9200    209.32284   -928.84778    133771.47   -41174.547     2604.374   -43778.921    12.409745   0.93363323 
    9300    209.58696   -815.70744    133903.32   -41222.911    2607.6602   -43830.571    12.497416   0.93271395 
    9400    208.47537   -980.66481    133840.53   -41211.951      2593.83   -43805.781    12.638251   0.93315152 
    9500     209.9707   -767.40096    133760.56   -41231.751    2612.4347   -43844.186    12.644064   0.93370941 
    9600    209.19499   -844.84951    133690.97   -41201.898    2602.7834   -43804.681    12.630242   0.93419544 
    9700    210.77284   -999.20833    133616.54   -41141.417    2622.4149   -43763.832    12.748631    0.9347158 
    9800    211.35927   -852.29365    133687.63   -41212.566    2629.7112   -43842.277    12.745366   0.93421872 
    9900    205.83006   -834.20113    133504.78   -41285.424    2560.9173   -43846.342    12.690189   0.93549829 
   10000    206.72217   -922.19672    133291.11   -41282.049    2572.0168   -43854.066    12.622752   0.93699791 
   10100    206.44048   -904.11399    133476.51   -41246.766    2568.5121   -43815.278    12.792552   0.93569642 
   10200     205.7255   -984.81437    133579.75   -41285.761    2559.6164   -43845.377    12.914636   0.93497322 
   10300    206.87506   -920.17542    133454.64   -41280.552     2573.919   -43854.471    12.907154   0.93584973 
   10400    211.01983   -880.77865    133442.46   -41229.393    2625.4878   -43854.881      12.9257   0.93593519 
   10500    210.17916   -812.99732    133649.71   -41202.722    2615.0283    -43817.75    13.032773    0.9344838 
   10600     213.2678   -862.66622    133778.71   -41131.585    2653.4569   -43785.042     13.08945   0.93358272 
   10700    214.77115   -835.67756    134072.75   -41115.341    2672.1614   -43787.503    13.217556   0.93153523 
   10800    214.12195   -857.54637    133989.67    -41102.46    2664.0841   -43766.544    13.238357   0.93211281 
   10900    210.62906   -794.22481    134017.57       -41129    2620.6259   -43749.625    13.421128   0.93191877 
   11000    212.07351   -972.57624    133856.98   -41132.142    2638.5976    -43770.74    13.449046    0.9330368 
   11100    207.90869   -695.60111    133999.11   -41170.166    2586.7794   -43756.945    13.461827   0.93204719 
   11200    208.93807   -814.50601    133996.98   -41160.945    2599.5868   -43760.532    13.577129   0.93206198 
   11300    212.97697   -935.78116     133976.3    -41169.25    2649.8384   -43819.088    13.588067   0.93220584 
   11400    213.84865   -805.73396     133833.9   -41193.985    2660.6838   -43854.668    13.539095   0.93319771 
   11500    213.16259   -806.66504       133982   -41236.152    2652.1478     -43888.3    13.798272   0.93216621 
   11600    211.88114   -835.33419     134213.6   -41234.706    2636.2042    -43870.91    13.933218   0.93055767 
   11700    214.40653    -826.4993    134108.12    -41151.85    2667.6249   -43819.474     13.88777   0.93128956 
   11800    212.49199   -848.81293    134234.12   -41224.042    2643.8043   -43867.846    13.929712    0.9304154 
   11900    211.10291   -763.62355    134225.24   -41263.765    2626.5215   -43890.287    13.784505   0.93047693 
   12000    211.47643   -826.51588    134265.46    -41256.69    2631.1688   -43887.859    13.959673   0.93019821 
   12100    209.66049   -852.33873    134337.02   -41207.755    2608.5751    -43816.33     13.92872   0.92970272 
   12200    209.74302   -889.58239    134265.57    -41203.94     2609.602   -43813.542    13.862159   0.93019744 
   12300    210.31861   -797.63259    134328.96   -41223.394    2616.7633   -43840.158    13.982903   0.92975847 
   12400    212.11312   -725.54621    134541.04   -41206.837    2639.0904   -43845.928    14.066371   0.92829292 
   12500    207.30624   -782.71207    134629.89   -41308.975    2579.2837   -43888.259    14.173656   0.92768023 
   12600    210.18866     -827.671    134537.77   -41229.829    2615.1465   -43844.975    14.167132   0.92831548 
   12700    213.56989   -753.45365    134514.89   -41214.801    2657.2154   -43872.016    14.077212   0.92847335 
   12800    213.73672   -781.59963    134512.31   -41197.956    2659.2911   -43857.247    14.105887   0.92849118 
   12900    208.60271    -755.5655    134468.61   -41253.796    2595.4143    -43849.21    14.201862   0.92879293 
   13000    217.14955   -883.49136    134675.88   -41199.352    2701.7532   -43901.106    14.285747   0.92736349 
   13100    212.18551   -792.85707    134502.17   -41213.379    2639.9911    -43853.37    14.271641   0.92856114 
   13200    216.23799   -970.91409    134545.86   -41147.174    2690.4117   -43837.586    14.438996    0.9282596 
   13300    214.95016   -620.77468    134701.93   -41194.091    2674.3886   -43868.479    14.484614   0.92718413 
   13400    210.75477   -866.76801    134772.53   -41280.272    2622.1901   -43902.462    14.465485   0.92669843 
   13500    212.12121   -875.88123    134669.56   -41317.462    2639.1912   -43956.653    14.387793   0.92740697 
   13600     210.3561   -892.47358    134571.69   -41346.428    2617.2298   -43963.658    14.432913   0.92808145 
   13700    203.95952   -816.09246    134565.86   -41340.832    2537.6442   -43878.476    14.610339   0.92812169 
   13800    210.59981    -813.2047    134414.84   -41269.896     2620.262   -43890.158     14.51873   0.92916446 
   13900    212.16001   -928.87372    134564.77   -41316.575    2639.6739   -43956.249    14.572126   0.92812921 
   14000    208.57219   -807.11955    134658.14   -41308.033    2595.0346   -43903.068    14.648499   0.92748563 
   14100    208.22438   -718.91947    134618.13    -41311.23    2590.7071   -43901.938     14.61778   0.92776128 
   14200    209.29851   -739.20787    134879.28   -41344.251    2604.0714   -43948.322    14.697965   0.92596498 
   14300    209.21056   -673.21454    135029.67   -41370.381    2602.9772   -43973.359    14.840265   0.92493371 
   14400    211.07843   -915.08786    134903.79   -41351.125    2626.2169   -43977.342    14.877941   0.92579674 
   14500    209.42942   -939.02639    134857.69   -41302.692    2605.7001   -43908.393    14.859262   0.92611323 
   14600    212.01866   -917.05733    134749.13    -41314.48    2637.9152   -43952.396    14.844207   0.92685934 
   14700    206.83745   -870.61607    134675.86   -41350.513    2573.4511   -43923.964    14.904675   0.92736363 
   14800    205.59509   -709.99967    134670.53   -41393.414    2557.9938   -43951.407     14.97065   0.92740029 
   14900    205.13587   -954.92541    134598.11   -41462.202    2552.2802   -44014.482    14.935521   0.92789929 
   15000    203.12899   -698.42773    134735.34   -41450.401    2527.3108   -43977.712    14.968388   0.92695419 
   15100    205.28322   -836.28899    134747.92   -41472.232    2554.1135   -44026.345    15.066314   0.92686767 
   15200    204.83548   -872.63979    134756.74   -41405.882    2548.5427   -43954.425    15.010525   0.92680702 
   15300    206.75078   -902.70867    134773.45   -41414.944    2572.3727   -43987.317    15.124776   0.92669211 
   15400    207.90554   -739.07932    134769.59   -41400.679    2586.7402   -43987.419    15.064856   0.92671863 
   15500    204.88571   -718.08657    134812.85   -41379.039    2549.1678   -43928.207    15.068974   0.92642129 
   15600    214.14906   -886.02555    134865.74   -41322.808    2664.4215   -43987.229    15.215429   0.92605797 
   15700    204.89717   -887.55548    134765.31   -41400.577    2549.3104   -43949.887    15.152393    0.9267481 
   15800    209.45632   -811.29192    135087.33   -41391.706    2606.0348   -43997.741    15.333829   0.92453893 
   15900    205.32972    -778.3047     135062.9   -41426.689    2554.6921   -43981.381     15.36652   0.92470614 
   16000    210.74512   -824.59121    134949.01   -41374.564      2622.07   -43996.634    15.422777   0.92548652 
   16100    212.74477   -826.73278    134953.13   -41334.959    2646.9494   -43981.909    15.478032    0.9254583 
   16200    210.56144   -826.51971    134904.23   -41385.732    2619.7847   -44005.517    15.523333   0.92579374 
   16300     207.8056   -915.33791    134790.42   -41405.095    2585.4967   -43990.592    15.489057   0.92657546 
   16400     210.9497    -827.6117    134683.33   -41312.303    2624.6153   -43936.918     15.57053   0.92731216 
   16500    212.77063   -916.34142    134875.97   -41300.163    2647.2712   -43947.434    15.690679   0.92598775 
   16600     210.6861   -763.47056    134673.28   -41277.752    2621.3357   -43899.087    15.661143   0.92738135 
   16700    208.87189   -813.87267    134690.75   -41306.279    2598.7635   -43905.042    15.661889   0.92726107 
   16800    213.72882   -731.70697    134636.48   -41303.571    2659.1929   -43962.764    15.650092   0.92763488 
   16900    212.82493   -934.96022    134776.98    -41263.93    2647.9468   -43911.877     15.55091   0.92666783 
   17000     210.5822   -907.03549     134804.6   -41289.216     2620.043   -43909.259    15.631814   0.92647794 
   17100    214.64739   -757.66702    134794.16   -41218.445    2670.6216   -43889.066    15.667748   0.92654973 
   17200    212.60646   -868.90879    134841.38   -41242.139    2645.2286   -43887.367    15.771916   0.92622522 
   17300    213.03012   -683.40055    134797.17   -41307.753    2650.4997   -43958.253    15.713569   0.92652905 
   17400    210.42081   -713.34053    134932.73   -41335.966     2618.035   -43954.001    15.669541    0.9255982 
   17500    211.02204   -950.86415    134880.09   -41322.223    2625.5154   -43947.738      15.6438   0.92595942 
   17600    211.15269   -794.62476    134997.99   -41300.884    2627.1409   -43928.025    15.619794   0.92515077 
   17700    211.31661    -968.2932    135005.28   -41329.278    2629.1804   -43958.458    15.912976   0.92510082 
   17800    211.77929   -834.35489    134946.69   -41337.486     2634.937   -43972.423     16.16612   0.92550244 
   17900    210.73259   -806.60204    135025.49   -41301.539     2621.914   -43923.453    16.045992   0.92496235 
   18000    212.68174   -870.70006    135022.11   -41253.332    2646.1651   -43899.498    16.109299   0.92498545 
   18100    208.80405   -945.86462    134848.85    -41353.82    2597.9194    -43951.74    15.982728   0.92617396 
   18200     209.7238   -915.33032    134852.17   -41348.499    2609.3627   -43957.862    16.040652   0.92615114 
   18300    215.68244   -905.60775    134978.83   -41274.384    2683.4996   -43957.883    16.119605   0.92528209 
   18400    208.72524   -870.22014    134997.03   -41340.025    2596.9388   -43936.964    16.214378   0.92515733 
   18500     215.1799     -868.299    135006.12   -41302.087     2677.247   -43979.334    16.246014   0.92509504 
   18600    209.76741   -886.07065    134990.52    -41359.05    2609.9054   -43968.955    16.267568   0.92520194 
   18700    213.90604   -914.94683    135042.58   -41331.651    2661.3977   -43993.049    16.404823   0.92484525 
   18800    214.93743   -853.00857    134946.66   -41312.699    2674.2302   -43986.929    16.287806   0.92550262 
   18900    211.97918   -916.30018    134922.64   -41340.697    2637.4241   -43978.121    16.402906   0.92566741 
   19000    212.70334   -891.93426    134941.08   -41302.669    2646.4339   -43949.102    16.412562   0.92554094 
   19100    208.05473   -944.35694    134983.74     -41365.1    2588.5964   -43953.697    16.471104   0.92524838 
   19200     209.4212   -810.01649    134949.23   -41339.161    2605.5978   -43944.758    16.437992   0.92548502 
   19300    212.40665   -857.01258    135088.24   -41280.567    2642.7425   -43923.309    16.401231    0.9245327 
   19400     211.3036   -875.18059    135070.55   -41299.616    2629.0185   -43928.635    16.582652   0.92465374 
   19500    214.37428   -796.51222     134981.8   -41299.146    2667.2236   -43966.369    16.628402   0.92526171 
   19600    208.06683   -965.64319     134779.4   -41342.344     2588.747   -43931.091    16.664212   0.92665118 
   19700    213.36497   -778.76654    134783.15   -41321.463    2654.6659   -43976.129    16.767837   0.92662542 
   19800    210.66503   -872.65103    134699.99   -41363.339    2621.0735   -43984.413    16.715846   0.92719746 
   19900    211.78399   -800.36486    134725.52   -41367.045    2634.9954   -44002.041    16.732604   0.92702177 
   20000    210.57126    -850.1971     134789.2   -41409.864    2619.9068    -44029.77    16.722661    0.9265838 
   20100    209.00405   -856.36092    134831.31   -41368.448    2600.4078   -43968.855    16.903581   0.92629442 
   20200     212.2945   -866.56063    134871.21   -41416.705    2641.3472   -44058.052    16.870129   0.92602043 
   20300    205.43412   -883.15563    134791.84    -41447.39     2555.991   -44003.381    16.830732   0.92656566 
   20400     206.1949   -896.56042    134716.58   -41459.647    2565.4565   -44025.103    16.975052    0.9270833 
   20500    211.02923   -794.82267    134732.56   -41439.577    2625.6048   -44065.182    17.014067   0.92697336 
   20600    210.78471   -744.11704    134788.24   -41472.075    2622.5626   -44094.638    16.965619   0.92659042 
   20700    208.22635   -902.63766    135033.14   -41417.225    2590.7317   -44007.956    16.954474   0.92490993 
   20800    206.07691   -1019.3075    134971.44   -41423.692    2563.9886    -43987.68    17.038589   0.92533275 
   20900    208.58437   -803.95603    134957.59   -41461.769    2595.1861   -44056.956    16.961523   0.92542769 
   21000    209.24649   -795.84797    135121.44   -41546.165    2603.4242   -44149.589    17.111416   0.92430548 
   21100    205.31607   -834.07928    135254.06   -41567.053    2554.5222   -44121.575    17.145693   0.92339917 
   21200    207.51747   -748.52532    135159.41   -41531.701    2581.9119   -44113.613    17.295306   0.92404588 
   21300    208.34674   -1017.5685    135282.66   -41527.784    2592.2296   -44120.014    17.309582   0.92320402 
   21400     204.9293    -994.3602    135190.47   -41496.817    2549.7101   -44046.527    17.310804   0.92383354 
   21500    211.17363   -827.71645    134928.37   -41504.024    2627.4014   -44131.426    17.234031   0.92562813 
   21600    208.67154    -933.0536    134908.27   -41458.022    2596.2706   -44054.293    17.301177   0.92576602 
   21700    213.72999   -903.17691    134982.01   -41436.274    2659.2074   -44095.481    17.340995   0.92526027 
   21800    211.75605   -977.02914    135045.66   -41421.618    2634.6478   -44056.265    17.500896    0.9248242 
   21900     210.7411   -889.55343    134961.37   -41445.323    2622.0199   -44067.343    17.463809   0.92540175 
   22000    211.55999   -727.85496    134949.48   -41488.747    2632.2085   -44120.955     17.38049   0.92548333 
   22100    217.11782   -806.43587    135012.53     -41439.6    2701.3585   -44140.959    17.418566   0.92505113 
   22200    210.47592   -838.92061     134974.5   -41466.388    2618.7205   -44085.109    17.381302   0.92531172 
   22300    208.42842    -948.3682    134926.92   -41445.108    2593.2458   -44038.353    17.435187   0.92563807 
   22400    209.54776   -943.03044    134936.52   -41408.401    2607.1725   -44015.574    17.374108   0.92557221 
   22500    212.06209   -769.92118    134935.51   -41412.332    2638.4555   -44050.787    17.426104   0.92557915 
   22600    211.28145   -1003.4421    134899.78   -41390.072     2628.743   -44018.815    17.550255   0.92582425 
   22700    212.66491   -884.22507    134800.95   -41394.327    2645.9558   -44040.283    17.730043   0.92650307 
   22800    212.53457   -905.95503    134906.84   -41362.096    2644.3341    -44006.43    17.860459   0.92577585 
   22900    212.53149   -960.36324    135039.46   -41406.649    2644.2958   -44050.945    17.753446   0.92486665 
   23000    208.70234   -843.00827    135043.17   -41393.694    2596.6539   -43990.348    17.700657    0.9248412 
   23100    211.00674   -954.07404    135157.18   -41507.918     2625.325   -44133.243    17.776606   0.92406107 
   23200    210.46099   -923.42321    135069.66   -41460.639    2618.5349   -44079.174    17.744095   0.92465985 
   23300    209.43313   -953.31557    134963.32   -41512.429    2605.7463   -44118.175    17.850388   0.92538839 
   23400    211.52729   -853.63529    134871.39   -41453.669    2631.8016    -44085.47    17.833986   0.92601914 
   23500    209.48044    -940.6592    135033.34   -41477.287     2606.335   -44083.622    17.967595   0.92490852 
   23600    213.52785   -831.80029    135046.87   -41453.753    2656.6924   -44110.445     17.94816   0.92481589 
   23700    210.88849   -848.72907    135123.96   -41487.495    2623.8538   -44111.348    17.974394   0.92428827 
   23800    204.64621   -857.28274    135097.88   -41542.187    2546.1879   -44088.375    18.073964   0.92446667 
   23900    206.17527   -828.38197    135158.52   -41550.383    2565.2123   -44115.596    18.184289    0.9240519 
   24000    208.98226   -932.75739    135203.13   -41476.433    2600.1366   -44076.569    17.990512   0.92374706 
   24100    206.67471   -796.69949    135197.64   -41472.021    2571.4263   -44043.447    18.185742   0.92378457 
   24200    208.77758   -898.13785    135237.37   -41527.568      2597.59   -44125.158    18.401798   0.92351317 
   24300    208.54989   -928.67986    135388.79   -41501.386    2594.7571   -44096.143    18.482525   0.92248027 
   24400    211.06188   -883.32829    135352.88   -41541.064     2626.011   -44167.075    18.412828   0.92272503 
   24500     211.4306   -875.48195    135422.05    -41503.14    2630.5986   -44133.738    18.248766   0.92225371 
   24600    205.57223   -871.09595    135388.49   -41489.175    2557.7093   -44046.884    18.298882   0.92248233 
   24700    208.27126   -703.04559    135570.75   -41515.226    2591.2905   -44106.516    18.363121   0.92124215 
   24800    206.37188   -872.16664    135539.05   -41513.075    2567.6585   -44080.734    18.319311   0.92145764 
   24900    209.75391   -918.90685    135446.13    -41458.96    2609.7374   -44068.697     18.35384   0.92208975 
   25000    212.89396   -811.03893    135493.44   -41436.437    2648.8056   -44085.242    18.405875    0.9217678 
   25100    209.38174   -922.52865    135515.38   -41444.341    2605.1069   -44049.448    18.480099   0.92161855 
   25200    206.12094   -844.26207    135454.37   -41480.067    2564.5364   -44044.603    18.421842    0.9220337 
   25300    208.56493   -874.58152    135465.66   -41478.375    2594.9442   -44073.319    18.461846   0.92195681 
   25400    208.10673   -752.75109    135635.02    -41466.12    2589.2434   -44055.364    18.532487   0.92080561 
   25500    210.94134   -969.18162    135579.57   -41429.365    2624.5113   -44053.876    18.646864   0.92118221 
   25600    205.56896   -886.66981    135390.43   -41503.373    2557.6686   -44061.042    18.640993   0.92246909 
   25700    208.52293   -948.90686    135341.34   -41520.434    2594.4216   -44114.856    18.529271    0.9228037 
   25800     206.8445   -863.51409    135366.05    -41500.49    2573.5388   -44074.029    18.550499   0.92263526 
   25900    213.64608   -933.84066    135271.77   -41469.041    2658.1634   -44127.204    18.577144   0.92327832 
   26000    212.99822   -845.18637    135254.95   -41410.044    2650.1028   -44060.146    18.540129   0.92339312 
   26100    210.72989   -864.38219    135225.88   -41494.514    2621.8805   -44116.395    18.579145   0.92359163 
   26200    212.20692   -776.81967     135172.3   -41489.991    2640.2575   -44130.248    18.817743   0.92395775 
   26300    214.59717   -854.42464     135208.1   -41459.306    2669.9967   -44129.302    18.816339   0.92371309 
   26400    210.82009   -834.05964    135266.88   -41447.914    2623.0027   -44070.916    18.858122   0.92331165 
   26500    209.75059   -852.99521    135168.55    -41497.93    2609.6961   -44107.626    18.851808   0.92398335 
   26600    207.62653   -846.51598    135041.06   -41542.323    2583.2688   -44125.591    18.906783   0.92485569 
   26700    209.23294   -702.31137    135214.85   -41563.706    2603.2556   -44166.961    18.989211   0.92366696 
   26800    207.51346   -929.13025    135381.74   -41488.082    2581.8619   -44069.944    19.093552   0.92252832 
   26900     211.7973   -801.14393    135311.38   -41502.067     2635.161   -44137.228    19.045401   0.92300804 
   27000     208.7468   -806.48028    135298.52   -41544.564     2597.207   -44141.771    19.035678   0.92309578 
   27100    210.01301   -891.53613    135291.91    -41545.96    2612.9611   -44158.922    19.052083   0.92314088 
   27200    210.12694   -795.08428    135245.52   -41583.958    2614.3787   -44198.337    19.046537   0.92345748 
   27300    209.96857   -852.92309    135373.73   -41600.093    2612.4082   -44212.502    19.163013    0.9225829 
   27400    210.47348   -864.41207    135521.19   -41541.415    2618.6903   -44160.105    19.071212   0.92157905 
   27500    210.88179   -901.01964    135559.09   -41488.161    2623.7704   -44111.931    19.015034    0.9213214 
   27600    210.91873   -790.56145    135620.59   -41507.731      2624.23   -44131.961    19.183315    0.9209036 
   27700    210.64315    -857.0069       135722   -41527.873    2620.8013   -44148.675    19.272223   0.92021551 
   27800    209.38797   -922.07041    135653.25   -41469.242    2605.1844   -44074.426    19.336342   0.92068188 
   27900    211.44007   -867.83571    135746.62   -41492.586    2630.7164   -44123.303     19.24894   0.92004861 
   28000    210.27584   -883.65058    135724.86   -41527.494    2616.2313   -44143.725    19.358221   0.92019612 
   28100    205.93741   -818.75209     135652.9    -41504.74    2562.2529   -44066.993    19.351511   0.92068427 
   28200    209.94889   -800.35524    135676.15    -41544.89    2612.1634   -44157.054    19.346485    0.9205265 
   28300    210.67199   -803.11921    135708.36   -41527.742    2621.1601   -44148.902    19.202768   0.92030798 
   28400    207.63386   -905.55764    135775.48   -41576.407      2583.36   -44159.767    19.209568   0.91985304 
   28500    211.22874   -810.16077     135700.9   -41605.275    2628.0872   -44233.362    19.358896   0.92035862 
   28600     211.6406   -840.28234    135700.37   -41564.341    2633.2114   -44197.553    19.373053   0.92036223 
   28700    207.35529   -885.60225    135646.31   -41576.714    2579.8941   -44156.608    19.322783   0.92072903 
   28800    209.36193   -786.91377    135580.22   -41548.222    2604.8604   -44153.082    19.303869    0.9211778 
   28900     210.0386   -888.69422    135531.01   -41511.618    2613.2795   -44124.897    19.354722   0.92151226 
   29000    211.45537   -823.28861    135492.42   -41581.544    2630.9069   -44212.451    19.260348   0.92177473 
   29100    212.49113   -869.61163    135718.19   -41537.239    2643.7937   -44181.033    19.361108   0.92024133 
   29200    213.67517   -915.71376    135671.39   -41518.199    2658.5253   -44176.725    19.340966   0.92055878 
   29300    209.67597   -802.78065    135668.21   -41580.877    2608.7677   -44189.644    19.328228   0.92058037 
   29400    205.75241   -868.90958    135564.06   -41626.639    2559.9512    -44186.59     19.30589   0.92128766 
   29500    209.22952   -839.03753     135567.8   -41654.542    2603.2131   -44257.755    19.250249   0.92126221 
   29600    206.70829   -794.77929    135619.34   -41580.266    2571.8441    -44152.11    19.423359   0.92091211 
   29700    209.26532    -760.6709    135572.72    -41617.73    2603.6585   -44221.388     19.39175   0.92122879 
   29800    209.41377   -879.82452    135744.36    -41593.45    2605.5054   -44198.955    19.379218   0.92006393 
   29900    209.58136   -745.93635    135863.97   -41613.967    2607.5905   -44221.557    19.521042   0.91925395 
   30000    212.13062   -825.76782    135666.35   -41585.207    2639.3082   -44224.515    19.393878   0.92059299 
   30100    210.83208    -819.7779    135775.55   -41577.969    2623.1519   -44201.121    19.389972   0.91985258 
   30200    207.18635    -755.4336    135705.08   -41586.918    2577.7921    -44164.71    19.557505   0.92033029 
   30300    208.98562   -730.13639    135709.02    -41548.45    2600.1784   -44148.629     19.72378   0.92030353 
   30400    211.15394   -968.19426    135678.51   -41523.818    2627.1565   -44150.974    19.683404   0.92051046 
   30500    209.27224   -794.99521    135586.68   -41521.523    2603.7446   -44125.267    19.515533   0.92113391 
   30600    210.03167   -934.60567    135597.33   -41523.898    2613.1933   -44137.092    19.592202   0.92106156 
   30700    210.46172   -669.87521    135619.79    -41540.66    2618.5439   -44159.204    19.632744   0.92090907 
   30800    209.18507   -780.62594    135653.03   -41480.511    2602.6599   -44083.171    19.620111    0.9206834 
   30900    209.15231   -795.41235    135786.97   -41589.606    2602.2523   -44191.858    19.542242   0.91977524 
   31000    207.59695   -814.39032    135769.61   -41628.423    2582.9007   -44211.324    19.635883   0.91989286 
   31100    204.87547   -806.87826    135692.76   -41632.966    2549.0403   -44182.006    19.790596   0.92041381 
   31200    207.41048   -872.46397    135695.47   -41644.269    2580.5807   -44224.849    19.774059   0.92039541 
   31300    210.21754   -856.54454    135875.99   -41611.257    2615.5059   -44226.762    19.678348   0.91917265 
   31400    206.65703   -900.41723    135741.18   -41582.869    2571.2063   -44154.075    19.680859   0.92008549 
   31500    210.91095   -856.89712    135661.45   -41626.733    2624.1331   -44250.866    19.789833   0.92062626 
   31600    211.62538   -926.30838    135671.77   -41551.704    2633.0221   -44184.726    19.890348   0.92055622 
   31700    209.76835   -775.40205    135674.06   -41578.929    2609.9171   -44188.847    19.774817   0.92054069 
   31800    212.74913   -851.06448    135634.25   -41514.551    2647.0036   -44161.555    19.862805   0.92081088 
   31900    210.95594   -920.06929    135488.97   -41517.683    2624.6929   -44142.376    19.934754   0.92179822 
   32000     211.8427   -742.36188    135454.79    -41517.12     2635.726   -44152.846    19.827223   0.92203085 
   32100    211.79784   -838.97423    135481.39    -41519.87    2635.1678   -44155.037    19.832904   0.92184977 
   32200    210.55597   -783.60587    135439.65   -41517.788    2619.7165   -44137.504    19.754877   0.92213391 
   32300    214.02458   -759.61667    135384.41    -41504.67    2662.8727   -44167.542    19.801743   0.92251013 
   32400    210.90685   -848.13681    135556.87   -41563.551    2624.0822   -44187.633    19.798197   0.92133649 
   32500     207.5355   -813.08373    135581.12   -41583.176    2582.1362   -44165.312    19.890323   0.92117172 
   32600    213.24094   -772.34555     135560.2   -41534.661    2653.1227   -44187.784    20.026242   0.92131384 
   32700    209.23258   -738.09995    135602.48   -41596.424    2603.2511   -44199.675    20.061189   0.92102659 
   32800    204.51938   -921.82858    135583.04   -41624.063      2544.61   -44168.673    20.153031   0.92115868 
   32900    207.05004   -862.32139    135559.71   -41611.133    2576.0962   -44187.229    20.110392   0.92131716 
   33000    208.45366    -941.3043     135680.5   -41653.228    2593.5599   -44246.788    20.173514   0.92049699 
   33100    208.35222   -870.93668    135652.25   -41573.939    2592.2977   -44166.237    20.104805   0.92068865 
   33200    209.34508   -766.21099    135548.53   -41610.095    2604.6508   -44214.746    20.068248   0.92139317 
   33300    211.43509   -753.22396    135535.32   -41548.136    2630.6545   -44178.791    20.088206   0.92148297 
   33400    212.66977   -927.32706    135566.46   -41627.422    2646.0163   -44273.438    20.305255   0.92127133 
   33500     206.8045   -875.31901    135579.66   -41592.016    2573.0412   -44165.057      20.3702   0.92118164 
   33600    207.82797   -814.46206    135564.69   -41557.714    2585.7751   -44143.489    20.316855   0.92128336 
   33700    209.57874   -787.45539    135629.43   -41551.474    2607.5579   -44159.032     20.29121   0.92084359 
   33800    211.04913   -769.63006    135711.94   -41558.601    2625.8524   -44184.453    20.406551   0.92028373 
   33900    208.71312   -799.41455    135623.93   -41564.319     2596.788   -44161.107    20.391409    0.9208809 
   34000    210.80608   -753.22698    135662.92   -41530.954    2622.8285   -44153.782    20.293429   0.92061627 
   34100    209.84772    -809.9113    135565.58   -41564.507    2610.9045   -44175.411    20.238756   0.92127729 
   34200    208.80932   -844.05876    135599.98    -41574.46     2597.985   -44172.445    20.241995    0.9210436 
   34300    208.86952   -838.48457    135535.57   -41625.389     2598.734   -44224.123    20.208828    0.9214813 
   34400    210.90317   -869.78616    135632.33    -41565.15    2624.0364   -44189.186    20.323655   0.92082392 
   34500    208.88219   -839.60649    135738.68   -41589.372    2598.8916   -44188.263    20.532078   0.92010245 
   34600    210.32126    -840.6675    135789.48   -41566.333    2616.7963   -44183.129    20.371916   0.91975823 
   34700     211.4791   -910.53341    135746.87   -41647.934     2631.202   -44279.136    20.415283   0.92004691 
   34800    209.07637    -723.0634    135831.46   -41633.066    2601.3075   -44234.373    20.559072   0.91947397 
   34900    206.80315   -996.33738    135802.02   -41646.052    2573.0243   -44219.076    20.576854   0.91967329 
   35000    203.38809   -888.44976    135701.58   -41711.316    2530.5346    -44241.85    20.618217   0.92035398 
   35100    210.00563   -907.12945    135722.49    -41643.27    2612.8692   -44256.139    20.679301   0.92021218 
   35200    206.48549   -952.25339    135768.95   -41643.441     2569.072   -44212.513    20.723623   0.91989729 
   35300    209.61857   -910.12825    135678.91    -41639.58    2608.0535   -44247.633    20.569803   0.92050775 
   35400    209.75412   -870.41836    135775.15   -41655.395      2609.74   -44265.135    20.575601   0.91985531 
   35500    211.77531   -951.54621    135707.79    -41558.98    2634.8875   -44193.867    20.681881   0.92031186 
   35600    211.82467   -809.01831    135661.38    -41596.59    2635.5016   -44232.091    20.706878   0.92062674 
   35700    209.13923   -816.05679    135738.97   -41561.119    2602.0897   -44163.209    20.671853    0.9201005 
   35800    212.68674   -965.67634    135733.06   -41598.211    2646.2273   -44244.439    20.634198   0.92014052 
   35900     212.2245   -851.29288    135731.71   -41551.279    2640.4762   -44191.755     20.84088   0.92014972 
   36000    215.55495   -893.66945    135765.94   -41521.588    2681.9134   -44203.502    20.690338   0.91991767 
   36100     215.3587   -900.95563    135844.77   -41556.353    2679.4717   -44235.824    20.703844   0.91938385 
   36200    209.48742   -816.47422    135723.45   -41582.095    2606.4218   -44188.516    20.790099   0.92020567 
   36300    208.83975   -710.31983    135844.56   -41630.999    2598.3636   -44229.363    20.866297   0.91938527 
   36400    207.70637   -843.89742    135887.57   -41574.302    2584.2621   -44158.564    20.928636   0.91909429 
   36500    212.38331   -831.12341    135739.71   -41559.408    2642.4521    -44201.86    20.764786   0.92009547 
   36600    203.89057   -951.84042    135710.19   -41675.623    2536.7863   -44212.409    20.826166   0.92029561 
   36700    208.98066   -776.99876    135707.47   -41620.065    2600.1167   -44220.182    20.818739   0.92031402 
   36800    208.31248    -881.0112    135710.44   -41614.102    2591.8033   -44205.906    20.902343   0.92029389 
   36900    207.92206   -934.11813    135662.05   -41638.533    2586.9458   -44225.478    21.005886    0.9206222 
   37000    208.32263   -851.31173    135711.35   -41577.523    2591.9296   -44169.452    21.056484   0.92028772 
   37100    216.84427    -936.6854    135855.56   -41564.044     2697.955   -44261.999    21.017291   0.91931083 
   37200    208.56894   -814.41312    135955.11    -41619.37    2594.9942   -44214.364    20.999818    0.9186377 
   37300    207.07921   -879.20251    135794.85   -41636.391    2576.4591    -44212.85     20.88808   0.91972187 
   37400     209.2838    -833.1321    135846.53   -41665.188    2603.8883   -44269.077    20.929221   0.91937195 
   37500    208.36296   -963.85703    135757.19   -41689.493    2592.4314   -44281.925    20.978077   0.91997702 
   37600    211.22799   -906.20427     135856.7   -41645.774    2628.0778   -44273.852    21.131189   0.91930311 
   37700    209.63738   -866.56549    135867.27   -41658.169    2608.2876   -44266.457    21.009638   0.91923162 
   37800    209.51593   -875.31229    135771.99   -41751.958    2606.7764   -44358.734     20.92372   0.91987669 
   37900    208.06147   -927.28427       135731   -41713.408    2588.6803   -44302.088    20.987781   0.92015452 
   38000    206.56086   -843.42037    135674.45   -41684.958    2570.0098   -44254.967    20.998595   0.92053802 
   38100    211.12079   -749.57355    135699.73   -41645.003     2626.744   -44271.747    21.105146   0.92036652 
   38200     210.6536   -781.22719    135684.34   -41660.801    2620.9312   -44281.732     21.17007   0.92047096 
   38300    209.50608   -781.11417    135727.21   -41608.039     2606.654   -44214.693    21.095558   0.92018022 
   38400    209.05549   -875.05457    135765.78   -41665.921    2601.0477   -44266.968    21.040476   0.91991876 
   38500    212.15213   -833.06823    135798.51   -41672.029    2639.5759   -44311.605     21.09148   0.91969707 
   38600    208.78654   -1004.6841    135836.15   -41639.644    2597.7015   -44237.345    21.227786   0.91944224 
   38700     208.5606   -814.17209    135841.66   -41639.783    2594.8904   -44234.673    21.165877   0.91940492 
   38800    210.04187    -861.0665     135847.5   -41673.752    2613.3201   -44287.072    21.025127   0.91936539 
   38900    213.78668   -769.03026     135856.9   -41628.563    2659.9127   -44288.476    21.042671   0.91930181 
   39000     213.0897    -789.6598    135811.43   -41676.008    2651.2409   -44327.249    21.024045   0.91960956 
   39100    209.83825   -902.99738    135902.55   -41643.865    2610.7868   -44254.651     21.29262   0.91899296 
   39200    208.26022    -807.2089    135910.62   -41672.955    2591.1531   -44264.108    21.336231   0.91893844 
   39300    209.15561   -996.21725     135908.7   -41659.957    2602.2934   -44262.251    21.294844   0.91895142 
   39400    208.85508   -937.01536    135887.61   -41628.081    2598.5542   -44226.635    21.267925   0.91909403 
   39500    209.49256   -867.13877    135880.08   -41604.386    2606.4857   -44210.872    21.396224   0.91914499 
   39600    212.61251   -862.55298    135801.46   -41641.307    2645.3038    -44286.61    21.241688   0.91967707 
   39700      214.463   -922.18394    135905.27   -41580.589    2668.3274   -44248.917    21.312693   0.91897462 
   39800    210.76361   -895.67563    135849.12   -41645.569       2622.3   -44267.869    21.302453   0.91935444 
   39900    206.71795   -909.17699    135768.87   -41682.502    2571.9643   -44254.466    21.450748   0.91989786 
   40000    205.76475   -797.91251    135785.99   -41708.733    2560.1047   -44268.838     21.50367   0.91978189 
   40100    209.71594   -808.00259    135962.65   -41609.454    2609.2649   -44218.719      21.6388   0.91858677 
   40200    211.17951    -835.8601    135916.47   -41641.375    2627.4746    -44268.85    21.638227   0.91889888 
   40300    211.82593   -939.09669    135876.69   -41624.365    2635.5173   -44259.882    21.525034   0.91916786 
   40400     213.6104   -917.31296    135871.43   -41540.273    2657.7194   -44197.993    21.446063   0.91920348 
   40500    214.83766    -843.6413    135752.08   -41558.006    2672.9889   -44230.995    21.586035   0.92001161 
   40600    211.95004   -787.19588    135846.86   -41598.395    2637.0614   -44235.457    21.514123   0.91936972 
   40700    212.65286   -891.56709    135877.79   -41650.091    2645.8058   -44295.897    21.609712   0.91916048 
   40800    209.64357   -983.38168    135897.53     -41696.7    2608.3645   -44305.065    21.718103   0.91902691 
   40900    207.24209   -835.12812    135898.07   -41716.367    2578.4856   -44294.853    21.789928   0.91902328 
   41000    212.82273   -805.15842    135923.23   -41635.455    2647.9193   -44283.375    21.689439   0.91885317 
   41100    210.10294   -873.85923    135840.61    -41618.72      2614.08     -44232.8    21.584766   0.91941201 
   41200    212.23398   -945.34384    135906.99   -41639.746    2640.5942    -44280.34    21.673888   0.91896299 
   41300    206.16421   -774.99703    135795.88   -41790.031    2565.0748   -44355.105    21.643911   0.91971491 
   41400    207.95323   -835.38583    135952.54   -41739.733    2587.3336   -44327.067    21.662047   0.91865511 
   41500    207.47059   -839.95698    136064.51    -41734.16    2581.3286   -44315.489    21.776618   0.91789909 
   41600    209.22152   -849.19374    136057.85   -41692.997    2603.1135   -44296.111    21.755664   0.91794405 
   41700    206.44006   -871.73889    135947.46   -41671.474    2568.5068   -44239.981    21.650239   0.91868941 
   41800    213.72774   -781.97948    136095.76     -41674.4    2659.1794   -44333.579    21.722942   0.91768832 
   41900    211.71177   -862.31841     136181.5   -41650.674    2634.0969   -44284.771    21.646074   0.91711056 
   42000    211.18012   -839.03381    136069.15   -41640.481    2627.4821   -44267.963    21.729465   0.91786777 
   42100    212.76104   -768.47449    136088.87   -41642.187    2647.1519   -44289.339    21.686731    0.9177348 
   42200    211.15801   -896.90508    136101.94   -41602.932     2627.207   -44230.139    21.727803   0.91764665 
   42300     207.6975   -933.02549    136150.51   -41583.037    2584.1518   -44167.189     21.84993    0.9173193 
   42400    213.05442   -915.32382    136214.17   -41617.282     2650.802   -44268.084    21.774637    0.9168906 
   42500    210.33114   -837.79332    136192.22   -41614.106    2616.9192   -44231.025    21.747804   0.91703837 
   42600    210.41596   -786.94418    136261.05   -41620.103    2617.9745   -44238.078    21.701499   0.91657513 
   42700     212.1406   -878.27935     136261.4   -41648.319    2639.4324   -44287.751    21.634283    0.9165728 
   42800    215.18505   -832.44989    136307.72   -41616.083    2677.3112   -44293.394    21.851499   0.91626133 
   42900    208.78086   -847.97762     136159.3   -41681.833    2597.6308   -44279.464     21.92492   0.91726007 
   43000    210.45021   -807.64708    136070.66   -41706.583    2618.4008   -44324.984    21.803124   0.91785758 
   43100    211.57332   -892.59408    136127.28   -41682.866    2632.3743    -44315.24    21.895298   0.91747584 
   43200    211.77471   -745.30017    136265.71   -41641.345      2634.88   -44276.225    21.968807   0.91654383 
   43300    210.09289   -800.94475    136357.26   -41650.552    2613.9549   -44264.507    21.954359   0.91592841 
   43400      213.574    -849.1771    136355.24   -41603.795    2657.2665   -44261.062    21.939087   0.91594203 
   43500    214.21483   -707.18586    136483.36   -41616.591    2665.2398   -44281.831    21.964255   0.91508217 
   43600    216.10943    -934.9584    136407.95   -41536.606    2688.8122   -44225.418    21.743254   0.91558809 
   43700    217.38363   -945.56317    136473.39   -41575.262    2704.6656   -44279.928    21.839974   0.91514902 
   43800    211.69633   -859.31329    136446.44   -41579.264    2633.9048   -44213.169    21.882933   0.91532976 
   43900    210.48392    -815.7474     136375.5   -41622.885    2618.8202   -44241.705    21.751513   0.91580594 
   44000    208.97781   -909.13428    136459.82   -41657.404    2600.0813   -44257.485    21.883471   0.91524005 
   44100    208.88112   -1018.9794    136405.13   -41679.403    2598.8782   -44278.281    21.885358     0.915607 
   44200    209.02256   -821.55749    136465.67   -41720.124    2600.6381   -44320.762    21.903635   0.91520079 
   44300    206.43264    -782.3922    136362.09    -41724.58    2568.4145   -44292.994    22.004682     0.915896 
   44400    212.15766   -812.96943    136426.46   -41688.581    2639.6447   -44328.226    22.105628   0.91546384 
   44500    208.48413   -834.01439    136339.93   -41717.616    2593.9389   -44311.555    21.982526   0.91604483 
   44600    206.28735   -858.09618    136517.05   -41774.446    2566.6068   -44341.053    22.037059   0.91485633 
   44700    208.04967   -794.26611    136503.45    -41744.62    2588.5334   -44333.154    22.013091   0.91494753 
   44800    209.06487   -794.29884    136495.28    -41713.75    2601.1644   -44314.915     22.12143   0.91500229 
   44900    208.90013   -852.11471    136421.81   -41674.727    2599.1147   -44273.842    22.079086   0.91549506 
   45000    211.68607   -862.59546    136401.08   -41679.158    2633.7772   -44312.935    22.069222   0.91563418 
   45100    209.14493   -982.23587    136366.15   -41634.072    2602.1606   -44236.233    22.111582   0.91586872 
   45200    209.92957   -690.45833    136401.45   -41699.799     2611.923   -44311.722    22.096571   0.91563167 
   45300    207.43714    -907.7871    136461.48   -41709.084    2580.9124   -44289.996    22.157865   0.91522893 
   45400    209.68239   -772.28638    136521.88   -41695.458    2608.8476   -44304.306    22.162752   0.91482401 
   45500     213.3372   -854.83281    136489.72   -41715.006    2654.3204   -44369.326    22.169567   0.91503957 
   45600    211.62779   -907.61305    136479.76   -41711.435    2633.0521   -44344.487    22.218168   0.91510632 
   45700    210.23034    -739.6035    136423.65   -41727.105    2615.6651    -44342.77    22.139088    0.9154827 
   45800    215.92761   -646.57494    136565.45   -41674.855      2686.55   -44361.405    22.160033    0.9145321 
   45900    213.98767   -878.51518    136590.97   -41622.657    2662.4135   -44285.071    22.129324   0.91436125 
   46000    211.44338   -911.17885    136744.67   -41616.046    2630.7577   -44246.804     22.39503   0.91333353 
   46100    215.67103    -746.7628    136713.82   -41576.467    2683.3577   -44259.825    22.331304   0.91353963 
   46200    212.12049   -933.56835    136519.11   -41575.865    2639.1822   -44215.047    22.161501   0.91484259 
   46300    213.50627   -778.90384    136694.32   -41591.979    2656.4239   -44248.403    22.196289   0.91366997 
   46400    212.44922    -724.8066    136641.06   -41617.981    2643.2722   -44261.253    22.272709   0.91402607 
   46500    209.95167   -899.97499    136574.28   -41632.645     2612.198   -44244.843    22.365337   0.91447299 
   46600    211.73728   -824.53541    136484.17   -41626.481    2634.4143   -44260.896    22.193587   0.91507674 
   46700    208.79505   -925.48941    136537.38   -41708.893    2597.8074     -44306.7    22.366491   0.91472013 
   46800    210.80934   -846.16439    136594.53   -41751.286     2622.869   -44374.155    22.387049   0.91433739 
   46900    211.63321   -899.53248    136434.71   -41678.837    2633.1194   -44311.957    22.514598   0.91540846 
   47000    210.71839   -903.42892    136466.38   -41663.242    2621.7373   -44284.979    22.632155   0.91519608 
   47100    211.96399   -933.30232    136318.02   -41637.916     2637.235   -44275.151    22.467171   0.91619208 
   47200    215.92503   -872.60658    136152.83   -41692.684    2686.5178   -44379.202    22.420818   0.91730366 
   47300    206.65392   -895.52383    136212.47   -41722.352    2571.1677    -44293.52    22.483813   0.91690206 
   47400    209.48229   -823.96942    136248.42   -41692.405    2606.3579   -44298.763    22.367252   0.91666008 
   47500    214.07246   -841.41273    136227.82   -41637.593    2663.4684   -44301.062     22.18737   0.91679872 
   47600    213.86415   -807.27686    136341.11   -41606.955    2660.8766   -44267.832    22.388762   0.91603691 
   47700      208.956   -869.75374    136204.23   -41665.633    2599.8098   -44265.443    22.482436   0.91695748 
   47800    211.88605    -1009.352     136222.2    -41676.16    2636.2653   -44312.426    22.576072   0.91683656 
   47900    214.87927   -829.02032    136075.16   -41756.743    2673.5066    -44430.25    22.483548   0.91782729 
   48000    205.77485   -933.60667    136104.96   -41769.258    2560.2304   -44329.488    22.472476   0.91762632 
   48100    211.58423   -882.88116    136137.67    -41730.76    2632.5101    -44363.27    22.613158   0.91740581 
   48200    207.58275   -747.75123    136234.79    -41750.76    2582.7241   -44333.484    22.582952   0.91675179 
   48300    211.84001   -857.10221    136216.88   -41727.155    2635.6925   -44362.848    22.572413   0.91687238 
   48400    217.55935   -908.68294    136296.48   -41659.415     2706.852   -44366.267     22.57414   0.91633685 
   48500    211.78955    -827.5944    136378.55    -41726.83    2635.0646   -44361.894    22.407829   0.91578547 
   48600    210.83207   -709.44229    136352.24   -41723.964    2623.1518   -44347.116    22.567564   0.91596214 
   48700    217.18578    -840.7169    136257.48   -41692.444     2702.204   -44394.648    22.589071   0.91659916 
   48800    214.97946   -714.58284    136334.24   -41724.846    2674.7532   -44399.599    22.586986   0.91608305 
   48900    211.08155   -894.79615    136278.01   -41715.405    2626.2558   -44341.661    22.522179    0.9164611 
   49000    209.18813   -873.78397    136220.78     -41750.6     2602.698   -44353.298    22.547597   0.91684613 
   49100    210.22207    -820.3517    136210.81   -41752.203    2615.5622   -44367.766    22.617901   0.91691321 
   49200    208.78145   -873.55382    136269.15   -41773.916    2597.6382   -44371.554    22.670833   0.91652064 
   49300     208.1528    -842.8233    136385.58   -41722.257    2589.8165   -44312.074    22.658698   0.91573824 
   49400    213.63051   -756.40427    136445.58   -41712.393    2657.9697   -44370.363    22.655595   0.91533556 
   49500    212.65332   -853.34694    136356.11   -41731.059    2645.8116   -44376.871    22.669101   0.91593612 
   49600    210.75514    -792.9526    136253.14   -41747.053    2622.1947   -44369.247    22.682755   0.91662833 
   49700     209.7843   -835.52076    136362.35   -41766.926    2610.1155   -44377.042    22.658015   0.91589422 
   49800    207.97047   -803.45425    136429.28   -41825.938    2587.5481   -44413.486    22.847644   0.91544492 
   49900     210.7344   -921.09123    136336.53    -41715.57    2621.9366   -44337.507    22.809816   0.91606766 
   50000    211.06749   -789.86931    136423.81   -41756.876    2626.0808   -44382.957    22.706957   0.91548162 
   50100    208.31398     -904.063    136336.56   -41765.958    2591.8219    -44357.78    22.680654   0.91606748 
   50200    208.98365   -839.45104    136390.18   -41803.458     2600.154   -44403.612    22.784128   0.91570736 
   50300    210.88743   -840.93716    136418.69   -41780.702    2623.8405   -44404.543    22.940682   0.91551596 
   50400    209.71658    -732.3642    136593.36   -41807.429    2609.2729   -44416.702    22.895902   0.91434527 
   50500    212.10185   -850.74967    136668.77   -41844.135    2638.9503   -44483.086    22.841559   0.91384077 
   50600     206.3045   -870.06774    136712.58   -41855.978    2566.8202   -44422.798    22.738533   0.91354794 
   50700    208.96099   -994.02282    136636.36   -41863.648     2599.872    -44463.52     22.85246   0.91405748 
   50800    208.73053   -990.58781    136500.53   -41857.037    2597.0046   -44454.041    22.842767   0.91496711 
   50900    211.84959   -893.66739    136548.01   -41773.672    2635.8116   -44409.484    22.848584   0.91464892 
   51000    208.88035   -934.78868    136573.53   -41805.591    2598.8687    -44404.46    22.953178   0.91447801 
   51100    207.70758   -925.67335    136326.78   -41836.078    2584.2772   -44420.355    22.829764   0.91613323 
   51200    210.54551    -949.3809    136328.22   -41825.676    2619.5864   -44445.263    22.712007   0.91612353 
   51300    209.67315   -891.42273    136498.93   -41884.544    2608.7326   -44493.277    22.816056   0.91497779 
   51400    204.95397   -983.94892    136500.64   -41885.676    2550.0171   -44435.694    23.056619   0.91496636 
   51500    207.35619   -800.94517    136437.39   -41877.685    2579.9052    -44457.59    22.901271   0.91539054 
   51600    205.75776   -960.87326    136416.31   -41820.472    2560.0178    -44380.49    22.840948   0.91553192 
   51700    210.14405   -811.47339    136439.76   -41801.692    2614.5914   -44416.284    22.919237   0.91537462 
   51800    208.82246   -947.55939    136429.79   -41835.398    2598.1483   -44433.546    22.852517   0.91544147 
   51900    208.22091   -795.38212    136453.25   -41867.351     2590.664   -44458.015    22.734053   0.91528413 
   52000    208.07604   -874.68513    136472.61   -41894.806    2588.8616   -44483.667    22.801711   0.91515429 
   52100    203.02229   -934.70502    136511.01   -41843.655    2525.9832   -44369.639    22.914674   0.91489687 
   52200    212.62294   -924.76787    136465.87   -41868.651    2645.4336   -44514.084    22.894054   0.91519946 
   52300     208.2774   -883.21572    136302.34   -41849.623    2591.3668    -44440.99    22.911898   0.91629749 
   52400    208.07412    -827.3497    136354.67   -41805.436    2588.8377   -44394.273    22.833202   0.91594584 
   52500    208.34143   -831.52301    136304.79   -41797.342    2592.1635   -44389.506    22.959088   0.91628098 
   52600    206.30163   -842.95386     136200.6   -41819.459    2566.7845   -44386.244    22.891231   0.91698195 
   52700    205.67344   -765.82146    136242.82   -41841.079    2558.9687   -44400.048    22.866677    0.9166978 
   52800    210.96907   -920.51572    136054.49   -41803.112    2624.8564   -44427.969    22.836887   0.91796669 
   52900    208.82487   -878.22737    136181.36   -41792.811    2598.1784    -44390.99    22.915385   0.91711153 
   53000    209.15285   -758.14653    136260.25   -41782.194     2602.259   -44384.453    22.886343   0.91658051 
   53100    209.78354   -823.10352    136243.12   -41835.154     2610.106    -44445.26    22.848683   0.91669575 
   53200    213.45984   -921.90816    136371.99   -41826.582    2655.8462   -44482.428    22.979742   0.91582948 
   53300    207.76234    -863.1662    136315.65   -41819.998    2584.9585   -44404.957    23.034525     0.916208 
   53400    208.07384   -834.06273    136383.47   -41886.899    2588.8342   -44475.734     23.02392   0.91575238 
   53500    204.71916   -867.41236    136404.32   -41890.532    2547.0956   -44437.628    23.006555   0.91561244 
   53600    203.99078   -737.55681    136459.49   -41899.885    2538.0331   -44437.918    23.084503   0.91524227 
   53700    204.43902   -898.02411     136508.2   -41916.722      2543.61   -44460.332     23.09141   0.91491568 
   53800     209.9674   -950.36558     136474.6   -41808.654    2612.3936   -44421.048    23.085466   0.91514095 
   53900    209.28739   -901.42665    136458.58   -41866.172    2603.9331   -44470.105    23.148054   0.91524839 
   54000     210.9943   -1027.0609    136239.85   -41850.221    2625.1702   -44475.392    23.105501   0.91671777 
   54100    209.60858   -876.32456    136224.28   -41870.942    2607.9292   -44478.872    23.164448   0.91682256 
   54200    207.55745   -728.14827    136304.18   -41848.218    2582.4093   -44430.628    23.079461   0.91628513 
   54300    209.57804   -878.27404    136413.88   -41826.977    2607.5493   -44434.526     23.01971    0.9155483 
   54400    208.51828    -839.7935    136339.36   -41859.912    2594.3638   -44454.276    22.892598   0.91604871 
   54500    209.67358   -861.25711     136183.7   -41842.079     2608.738   -44450.817    22.973894   0.91709577 
   54600    212.08102   -834.17786    136290.85   -41747.749    2638.6911    -44386.44     23.14257   0.91637474 
   54700    209.83693   -977.27542    136402.06   -41749.902    2610.7703   -44360.672    23.116569   0.91562763 
   54800    208.91673   -752.04538    136408.99   -41822.104    2599.3213   -44421.425    23.089846   0.91558107 
   54900    211.16671    -847.2336    136514.71   -41857.812    2627.3153   -44485.128    23.197871   0.91487203 
   55000    206.95371   -819.36489    136560.77   -41919.244    2574.8976   -44494.142    23.155318   0.91456345 
   55100    208.65259   -983.56797    136487.66   -41892.912     2596.035   -44488.947    23.240995   0.91505333 
   55200    206.79041   -870.88452    136364.13   -41902.917    2572.8659   -44475.783    23.044529   0.91588232 
   55300    212.46195   -791.42871    136444.03    -41857.49    2643.4306   -44500.921    23.162912   0.91534595 
   55400    210.14743   -763.44813    136351.92   -41827.991    2614.6336   -44442.624    23.214285   0.91596431 
   55500    211.41857   -813.75635    136439.84    -41772.45     2630.449   -44402.899    23.181374    0.9153741 
   55600    211.18463   -841.04078    136305.44   -41806.287    2627.5383   -44433.826     23.24121   0.91627668 
   55700    213.20108   -805.46197    136170.12   -41812.136    2652.6268   -44464.763      23.2456   0.91718719 
   55800    210.21899   -872.25234    136292.31   -41815.744    2615.5239   -44431.268    23.197574   0.91636488 
   55900    214.22423   -832.30865     136398.2   -41784.408    2665.3566   -44449.764    23.087692   0.91565348 
   56000    214.13135   -806.97129    136478.66   -41780.427    2664.2011   -44444.628    23.064462    0.9151137 
   56100    213.39081   -861.31459     136386.5   -41764.701    2654.9874   -44419.688     23.16455   0.91573206 
   56200    212.53242   -780.21801     136452.4   -41771.439    2644.3074   -44415.747    23.197199    0.9152898 
   56300    210.16376   -880.98402    136232.62   -41808.778    2614.8368   -44423.615    23.220882   0.91676641 
   56400    210.97343   -834.49236    136258.51    -41793.55    2624.9105    -44418.46    23.299528    0.9165922 
   56500    211.16362   -723.73897    136251.52   -41881.425    2627.2768   -44508.702    23.370708   0.91663925 
   56600    210.58157   -878.99786    136285.09   -41890.781    2620.0351   -44510.817    23.429996   0.91641349 
   56700    211.28185   -903.96683    136355.54   -41918.102    2628.7479    -44546.85    23.340897   0.91594001 
   56800     211.8725   -917.35532    136316.66   -41847.762    2636.0967   -44483.859    23.255245   0.91620125 
   56900    210.37119   -680.50144    136345.28   -41828.219    2617.4176   -44445.637    23.358878   0.91600891 
   57000    211.14077   -828.56416    136387.11   -41780.139    2626.9925   -44407.132    23.386896   0.91572794 
   57100    210.25602    -802.5424    136623.88   -41838.754    2615.9846   -44454.738    23.482236   0.91414099 
   57200    207.95267   -896.48864     136568.5   -41878.504    2587.3265    -44465.83    23.415367   0.91451168 
   57300    206.58674   -750.92694    136644.88   -41925.987    2570.3318   -44496.319    23.459333   0.91400055 
   57400    206.08316   -801.82249    136632.59   -41927.329    2564.0663   -44491.395    23.381131   0.91408275 
   57500    203.11181   -909.87033    136609.37   -41965.973     2527.097   -44493.071    23.365282   0.91423808 
   57600    204.89507   -880.89997    136585.43   -41917.427    2549.2842   -44466.712    23.443832   0.91439833 
   57700    206.20406   -792.78384    136597.31   -41953.182    2565.5705   -44518.752    23.601261   0.91431881 
   57800    202.62846   -918.34328    136597.67   -41980.204    2521.0832   -44501.287    23.547653   0.91431644 
   57900    207.63931   -938.26715    136672.12   -41939.186    2583.4277   -44522.614    23.457524   0.91381836 
   58000    203.42448   -896.65778    136656.82   -41943.802    2530.9873   -44474.789    23.501562   0.91392069 
   58100    208.33137   -894.32808     136617.9   -41877.855    2592.0384   -44469.893    23.509141   0.91418104 
   58200    207.35993   -833.53277    136594.64   -41821.751    2579.9517   -44401.702    23.603893   0.91433666 
   58300    214.03255   -903.73396    136712.47   -41756.303    2662.9719   -44419.275    23.594251   0.91354862 
   58400    211.97104    -917.8818    136626.82   -41763.667    2637.3227    -44400.99    23.658029   0.91412137 
   58500    213.95126   -862.69717    136504.52   -41775.858    2661.9605   -44437.819    23.633475   0.91494035 
   58600    212.41005   -813.95887    136498.83   -41740.544    2642.7848   -44383.328     23.44407   0.91497845 
   58700    211.08302   -872.58837    136595.09   -41752.641    2626.2741   -44378.916    23.508027   0.91433367 
   58800    211.27694   -783.27647    136422.99    -41796.83    2628.6868   -44425.517    23.546726   0.91548715 
   58900    208.39382   -855.61885    136586.99   -41837.849    2592.8153   -44430.664    23.570917    0.9143879 
   59000    210.10834   -832.37957    136598.53    -41824.78    2614.1472   -44438.927    23.572683   0.91431063 
   59100    210.09503   -867.85151    136592.99   -41820.637    2613.9816   -44434.618    23.682342   0.91434774 
   59200    210.17752   -929.63962    136609.33   -41832.483     2615.008   -44447.491    23.619172   0.91423839 
   59300    207.23841   -791.77392    136598.61   -41821.025    2578.4399   -44399.465    23.704644    0.9143101 
   59400    210.73121   -840.18249    136671.83    -41870.26    2621.8969   -44492.157    23.745143   0.91382026 
   59500    207.63464   -879.80754    136632.77   -41832.121    2583.3696   -44415.491    23.699119    0.9140815 
   59600     210.6877   -904.00651    136662.65   -41815.067    2621.3555   -44436.423    23.667788   0.91388169 
   59700    208.91087   -852.84288     136686.8   -41848.302    2599.2484    -44447.55     23.65639   0.91372023 
   59800    209.54034   -977.47901    136506.65   -41858.727    2607.0802   -44465.807    23.697535   0.91492607 
   59900    210.09675     -915.913    136578.18   -41831.045     2614.003   -44445.048    23.684092   0.91444689 
   60000    207.96803   -800.29542     136628.2   -41868.363    2587.5177    -44455.88    23.614344   0.91411211 
   60100     214.4806   -798.53776    136771.77   -41846.537    2668.5464   -44515.084    23.653552   0.91315254 
   60200    207.57115   -951.23596    136783.46   -41832.258    2582.5798   -44414.838    23.676231    0.9130745 
   60300    210.34275    -838.8448    136831.68   -41795.261    2617.0637   -44412.325    23.789258   0.91275275 
   60400     214.1378   -826.04338    136695.63   -41753.204    2664.2813   -44417.485    23.661443   0.91366115 
   60500    214.05996   -776.46141     136783.7   -41790.822    2663.3128   -44454.135    23.513678   0.91307293 
   60600     208.1921   -763.97185    136717.44   -41845.708    2590.3055   -44436.014    23.684714   0.91351544 
   60700    209.82719   -802.20299    136761.69    -41868.75    2610.6492   -44479.399    23.702203   0.91321988 
   60800    214.33781   -819.48735    136770.29   -41821.691    2666.7698   -44488.461    23.746765   0.91316244 
   60900    209.62384   -788.16106    136730.49    -41811.38    2608.1191   -44419.499    23.702477   0.91342827 
   61000    207.52432    -930.8637    136746.73   -41848.857    2581.9971   -44430.854    23.819271   0.91331977 
   61100     209.6093   -891.81946    136748.34    -41875.37    2607.9382   -44483.308    23.808769   0.91330898 
   61200    208.82898    -764.4101    136679.95   -41879.886    2598.2296   -44478.115    23.715673   0.91376599 
   61300    208.93414   -819.00373    136678.38    -41873.74    2599.5379   -44473.278    23.826191    0.9137765 
   61400    204.97938   -944.25889    136607.24   -41896.116    2550.3332   -44446.449      23.7736   0.91425233 
   61500    206.20691    -810.8233    136797.81     -41893.8     2565.606   -44459.406    23.831172   0.91297875 
   61600    208.01858    -916.0884       136833   -41858.189    2588.1466   -44446.335    23.991711   0.91274397 
   61700    207.73814   -928.46211     136733.5   -41934.282    2584.6574   -44518.939    23.833317   0.91340815 
   61800    202.22397   -799.76905    136776.52   -41994.992    2516.0507   -44511.043    23.905371   0.91312087 
   61900    206.26238   -819.80168    136741.56   -41921.998    2566.2961   -44488.294    23.919432   0.91335431 
   62000    213.39935   -860.54362    136760.84   -41880.291    2655.0936   -44535.385    23.962949   0.91322554 
   62100    209.77228   -893.90065    136881.09   -41887.506     2609.966   -44497.472    24.007405   0.91242325 
   62200    208.25527   -824.72178    136852.84   -41851.387    2591.0915   -44442.479    24.049381   0.91261161 
   62300    208.67344   -772.39757    136906.58   -41886.581    2596.2943   -44482.876    23.903867   0.91225342 
   62400    210.65094   -805.13254    136941.09    -41827.55    2620.8981   -44448.448    23.925766   0.91202351 
   62500    209.11196   -781.39203    136831.69   -41847.219    2601.7503   -44448.969    23.859083   0.91275265 
   62600    214.50403   -879.38101    136804.68   -41849.152    2668.8379    -44517.99    23.924849   0.91293287 
   62700    207.56292   -874.02951    136853.49   -41879.175    2582.4773   -44461.652    24.142403   0.91260727 
   62800      207.073   -805.38691    136737.41   -41871.667    2576.3819   -44448.049    24.035159   0.91338199 
   62900    207.17322   -865.48696    136717.15    -41830.12    2577.6287   -44407.749    24.053066   0.91351736 
   63000    214.16702   -883.63049    136736.79   -41786.817    2664.6449   -44451.462    23.954889   0.91338614 
   63100    210.55579   -875.66741    136784.25   -41772.034    2619.7144   -44391.749     24.05903   0.91306923 
   63200    213.11223   -928.58907    136646.62   -41812.572    2651.5213   -44464.093    23.976525   0.91398891 
   63300    213.68141   -914.41003     136472.7   -41851.662     2658.603   -44510.265    23.897915   0.91515368 
   63400    210.08015   -783.18065    136411.88   -41780.023    2613.7965   -44393.819    23.861738    0.9155617 
   63500     207.9948   -797.16372    136474.35    -41864.37    2587.8508   -44452.221    23.965575   0.91514258 
   63600    207.90298   -772.42865    136484.18   -41860.772    2586.7083    -44447.48    24.042454   0.91507668 
   63700    206.83723   -859.21186     136611.7   -41869.236    2573.4484   -44442.684    24.085701    0.9142225 
   63800    208.73208   -901.94249    136574.47   -41977.822    2597.0239   -44574.846    24.048849   0.91447174 
   63900    206.83363   -902.37046    136562.05   -41971.481    2573.4036   -44544.885    23.931748    0.9145549 
   64000    207.77471   -1026.9208    136649.54   -41960.697    2585.1124    -44545.81    24.043345   0.91396934 
   64100    212.39772   -979.81873    136547.29   -41884.992    2642.6314   -44527.623    24.139262   0.91465374 
   64200    217.64526   -802.21435       136534    -41878.14    2707.9208    -44586.06    23.997772    0.9147428 
   64300     213.5122    -837.1843    136484.46   -41796.247    2656.4976   -44452.745    23.932957   0.91507478 
   64400    212.45449   -778.43874    136589.76    -41819.65    2643.3377   -44462.988    23.884488   0.91436938 
   64500    210.60585   -783.83706     136555.5   -41817.136    2620.3372   -44437.473    23.837616   0.91459877 
   64600    212.99469   -938.25456    136632.43   -41863.898    2650.0589   -44513.957    23.967381    0.9140838 
   64700    212.45865   -842.45102    136603.68   -41873.607    2643.3895   -44516.997    24.087678   0.91427618 
   64800     210.6694   -893.25055    136530.28   -41884.902    2621.1278    -44506.03    23.917433   0.91476768 
   64900    210.24395   -826.13742     136739.7   -41864.977    2615.8344   -44480.811    23.949058   0.91336673 
   65000    213.57455   -877.76981    136723.91   -41836.313    2657.2735   -44493.587    23.854209   0.91347218 
   65100    207.53715   -804.96622    136619.82    -41850.94    2582.1567   -44433.097    23.959276   0.91416818 
   65200    209.30828   -691.50026    136584.39   -41840.468    2604.1929   -44444.661    23.993667   0.91440529 
   65300    215.03736   -915.39482    136635.17   -41846.792    2675.4736   -44522.265    23.951393   0.91406551 
   65400    213.18832   -926.57637    136583.09   -41798.708    2652.4681   -44451.176     23.92121   0.91441399 
   65500    210.74482   -844.07842    136413.05   -41872.686    2622.0662   -44494.752    23.863095   0.91555384 
   65600    210.53528   -857.33437    136470.11   -41913.135    2619.4591   -44532.594    23.823367   0.91517106 
   65700    209.81955   -802.68042    136478.32    -41955.59    2610.5541   -44566.144    23.973823   0.91511597 
   65800    207.61816   -861.72235    136381.76   -41962.856    2583.1647    -44546.02    23.938876   0.91576392 
   65900    210.56473   -858.18147    136340.89   -41927.888    2619.8256   -44547.714    23.991895   0.91603841 
   66000    209.95778   -840.11199    136406.73   -41833.296    2612.2739    -44445.57    23.989753   0.91559628 
   66100    215.70505   -887.38225    136502.86   -41784.168    2683.7809   -44467.949    24.030921   0.91495149 
   66200    210.53213   -948.29624    136404.57   -41770.159    2619.4199   -44389.579    24.011974   0.91561078 
   66300    210.41999    -929.0463    136236.86   -41802.046    2618.0247   -44420.071    23.919684   0.91673786 
   66400    209.37992   -772.09255    136167.78   -41841.975    2605.0842    -44447.06    23.967484   0.91720299 
   66500    211.57795   -860.26593    136385.32   -41870.256     2632.432   -44502.688    23.998481      0.91574 
   66600    209.44941   -785.92484    136370.69   -41892.746    2605.9489   -44498.695    24.162456   0.91583823 
   66700    209.83155   -817.36958    136430.42   -41928.226    2610.7034   -44538.929    24.081494   0.91543726 
   66800    210.49425   -887.55758    136450.42   -41861.045    2618.9486   -44479.993    24.094682   0.91530308 
[...]
   84600    206.90478   -772.93693    136519.74   -42004.989    2574.2888   -44579.278    25.557267   0.91483835 
   84700    203.69346   -776.57418    136395.41   -42024.011    2534.3339   -44558.345    25.533036   0.91567227 
   84800    206.21449    -895.4411    136481.12   -41996.162    2565.7003   -44561.862    25.497589   0.91509721 
   84900    207.37018   -879.72188    136466.54   -41967.674    2580.0792   -44547.753    25.465568   0.91519495 
   85000    211.28056   -992.24462     136417.5   -41921.713    2628.7318   -44550.445    25.532696   0.91552395 
   85100    210.70213   -725.44969    136445.35   -41919.233    2621.5351   -44540.768    25.563954   0.91533713 
   85200    207.42535   -780.75132    136598.49   -41926.488    2580.7657   -44507.254    25.416649   0.91431091 
   85300    205.70697   -801.26139    136710.11   -41964.434    2559.3857    -44523.82    25.542596   0.91356442 
   85400    210.51182   -862.32198    136673.25   -41946.467    2619.1673   -44565.634    25.614588   0.91381077 
   85500    208.62755   -844.32402    136766.67   -41912.514    2595.7234   -44508.237     25.92483   0.91318657 
   85600    210.74755   -906.96686    136782.84   -41892.776    2622.1002   -44514.876     25.68999   0.91307866 
   85700    210.99993   -850.21432    136691.74   -41930.938    2625.2402   -44556.178    25.634251   0.91368719 
   85800    209.78133   -799.77421    136748.12   -41941.662    2610.0786    -44551.74     25.58981    0.9133105 
   85900    213.34038   -802.39215    136782.71   -41846.499    2654.3599   -44500.859    25.734112   0.91307954 
   86000    207.28559   -821.02108    136774.65   -41893.629    2579.0269   -44472.656    25.767706   0.91313331 
   86100    211.38287   -789.37523    136750.51   -41884.617    2630.0047   -44514.622    25.741806   0.91329455 
   86200    210.51613   -943.39766     136848.7   -41855.237    2619.2209   -44474.458    25.796398   0.91263923 
   86300    210.60735   -935.57543    136733.62   -41887.903    2620.3558   -44508.258    25.770131   0.91340735 
   86400    210.48589   -950.12073    136838.77   -41903.894    2618.8447   -44522.739    25.815349   0.91270548 
   86500    210.89574   -835.96224    136571.57   -41892.947    2623.9439   -44516.891    25.692053   0.91449113 
   86600    214.05236   -777.34986    136681.46   -41833.718    2663.2183   -44496.937    25.838882   0.91375589 
   86700     214.1205   -831.65299    136561.34   -41831.385    2664.0661   -44495.452     25.74323   0.91455966 
   86800    209.96035   -832.61856    136708.74   -41881.111    2612.3059   -44493.417      25.8722   0.91357358 
   86900    213.27835   -778.21919     136537.3   -41854.122    2653.5881   -44507.711    25.820104   0.91472071 
   87000    206.59576   -644.62481     136416.9   -41858.747    2570.4441   -44429.191    25.835341   0.91552799 
   87100    209.99888   -773.80118    136602.02   -41896.069    2612.7853   -44508.854    25.795972   0.91428728 
   87200    213.12509   -949.84693       136567   -41896.489    2651.6813    -44548.17    25.692059   0.91452173 
   87300    212.11166   -876.02607    136543.61   -41910.412    2639.0724   -44549.484     25.78447   0.91467838 
   87400    212.44364   -732.06225    136708.62   -41919.585    2643.2028   -44562.788    25.913131   0.91357439 
   87500    210.33804   -749.72828     136641.1   -41938.942     2617.005   -44555.947    25.892864   0.91402579 
   87600    209.20054   -904.83494    136586.18   -41950.108    2602.8524    -44552.96    25.953966    0.9143933 
   87700    210.26679   -811.60811    136668.05   -41955.116    2616.1186   -44571.234    25.880209   0.91384558 
   87800    212.62629   -889.19149    136576.17   -41933.043    2645.4752   -44578.518    25.752088   0.91446032 
   87900    207.38016   -831.73918    136674.76   -41939.627    2580.2034    -44519.83    25.714188   0.91380073 
   88000    207.28288   -815.36409     136654.2   -41962.002    2578.9931   -44540.995    25.847347   0.91393821 
   88100    209.35585   -715.41513    136732.49   -41894.151    2604.7847   -44498.936    25.927363   0.91341489 
   88200    212.06546    -887.3244    136709.72    -41873.53    2638.4975   -44512.028    25.908006   0.91356699 
   88300    210.44105   -756.00796    136651.54   -41903.802    2618.2867   -44522.089    25.959863   0.91395599 
   88400    204.05198   -786.63161    136678.38   -42003.179    2538.7946   -44541.973     25.92628   0.91377649 
   88500    213.38675   -863.69672    136563.77   -41917.549    2654.9369   -44572.486    25.901228   0.91454334 
   88600    215.58349   -801.52198    136710.14    -41868.27    2682.2685   -44550.538    25.885903   0.91356424 
   88700    212.84263   -819.23439    136696.29    -41858.85    2648.1669   -44507.017    25.969422   0.91365678 
   88800     212.7234    -858.2067    136656.41   -41805.311    2646.6835   -44451.994    25.863788    0.9139234 
   88900    209.90506   -659.99315    136554.28   -41858.083     2611.618   -44469.701    25.978405   0.91460691 
   89000    212.41659   -1009.9796    136590.29   -41844.148    2642.8663   -44487.014    25.866909   0.91436582 
   89100    206.53448   -796.56471     136628.2   -41937.651    2569.6816   -44507.332    25.869731   0.91411214 
   89200    208.22159   -941.32578    136790.78   -41973.251    2590.6725   -44563.923     25.93055   0.91302564 
   89300    210.06083   -733.59976    136758.07   -41989.162    2613.5561   -44602.718    25.856047   0.91324402 
   89400    207.10131   -952.67256    136802.52   -42010.351     2576.734   -44587.085    25.769054   0.91294727 
   89500    206.45845   -817.36635    136714.28   -42054.547    2568.7356   -44623.282    25.928471   0.91353652 
   89600     205.9863   -818.06877    136559.36   -42094.984    2562.8612   -44657.845    25.992709   0.91457293 
   89700     205.2734   -922.99251    136585.97   -42047.689    2553.9913    -44601.68    25.995492   0.91439473 
   89800    206.58011   -894.31708     136476.6   -42008.665    2570.2493   -44578.914    25.870034   0.91512749 
   89900    204.95165   -868.66025    136475.91   -42051.895    2549.9882   -44601.883    25.763973   0.91513212 
   90000    210.71197    -776.0199    136522.82   -41971.189    2621.6575   -44592.847    25.812061   0.91481766 
   90100    209.32799   -838.44168    136644.13   -41966.521    2604.4381   -44570.959    25.813542   0.91400553 
   90200     203.8878   -835.77777    136610.47   -41997.756    2536.7518   -44534.508    25.841402   0.91423073 
   90300    207.26988   -873.26891    136464.18   -41994.298    2578.8313   -44573.129    25.824624    0.9152108 
   90400     207.0496   -800.48294    136394.34   -41982.685    2576.0906   -44558.776    25.832247    0.9156794 
   90500    203.99704   -977.07061       136568    -41948.65     2538.111    -44486.76    26.003583   0.91451505 
   90600    216.67261    -810.4017    136532.29   -41859.654    2695.8192   -44555.473    26.028191   0.91475422 
   90700    210.65355   -787.42072    136777.43   -41857.634    2620.9306   -44478.565    26.068022   0.91311475 
   90800    209.26514   -806.47435    136857.48   -41899.634    2603.6562    -44503.29    26.158176    0.9125807 
   90900    206.10387   -839.26212    136939.71   -41985.733     2564.324   -44550.057    26.230242   0.91203266 
   91000     206.1626   -782.30127    136841.65   -41997.253    2565.0546   -44562.308    26.256795   0.91268622 
   91100    209.17082   -807.58418    136810.46   -41985.219    2602.4826   -44587.702    26.227474   0.91289428 
   91200    207.79608   -977.75228    136821.12   -41942.825    2585.3783   -44528.203    26.114242   0.91282318 
   91300    213.03919   -946.44231    136818.93   -41847.873    2650.6126   -44498.486    26.098022    0.9128378 
   91400    214.09937   -763.09947    136916.58   -41823.092    2663.8032   -44486.895    26.181962   0.91218677 
   91500    211.47845   -913.27009     136823.1   -41835.135     2631.194   -44466.329    26.255266      0.91281 
   91600    210.66757   -822.06724    136776.49   -41868.169    2621.1051   -44489.274    26.270268   0.91312105 
   91700    206.30274   -852.85955    136746.86   -41940.912    2566.7983    -44507.71    26.236067   0.91331888 
   91800    208.99714   -796.69963    137049.14   -41915.543    2600.3217   -44515.865    26.377438   0.91130443 
   91900    206.62158   -802.55293    137031.01   -41921.976    2570.7652   -44492.741    26.287901   0.91142504 
   92000    210.07876   -888.64179    136989.44    -41938.18    2613.7792   -44551.959    26.196217   0.91170162 
   92100    207.06813   -805.23269    136881.83   -41979.156    2576.3213   -44555.477     26.18818   0.91241832 
   92200    207.68498   -902.91063    136857.61    -41923.14     2583.996   -44507.136    26.433871   0.91257981 
   92300    211.29835   -799.98665    136742.13   -41842.471    2628.9532   -44471.424    26.376569   0.91335051 
   92400    213.23383   -816.01377    136879.35   -41851.374    2653.0343   -44504.408    26.264127   0.91243487 
   92500     209.4396   -859.46459     136823.9   -41900.384    2605.8268   -44506.211    26.246285   0.91280465 
   92600    215.42193   -910.33235    136779.95   -41873.922    2680.2583    -44554.18      26.3209   0.91309793 
   92700    213.44397   -849.69531    136853.85   -41868.536    2655.6488   -44524.185    26.271562   0.91260488 
   92800    210.90864   -822.01319    136869.47   -41911.433    2624.1045   -44535.538    26.451813   0.91250071 
   92900    211.05049   -917.59135    136908.84   -41867.592    2625.8693   -44493.462    26.387101   0.91223833 
   93000    208.68914   -809.56494    136860.22   -41891.071    2596.4897   -44487.561    26.410299   0.91256243 
   93100    211.23195    -996.1927    136841.44   -41835.791    2628.1271   -44463.918    26.348187   0.91268763 
   93200    210.28802   -761.17577    136815.92   -41861.072    2616.3827   -44477.455    26.403866   0.91285787 
   93300    217.67293   -861.47822    136828.42   -41885.623    2708.2651   -44593.888    26.369151   0.91277452 
   93400    210.33983   -822.52186    136833.68   -41927.723    2617.0273   -44544.751    26.354017   0.91273937 
   93500    206.47054   -932.29372     136873.3   -41966.999     2568.886   -44535.885    26.375582   0.91247519 
   93600    208.70347   -942.29837     136840.2   -42028.945    2596.6679   -44625.613    26.417601   0.91269592 
   93700    207.28369   -902.96712    136765.47   -41987.163    2579.0032   -44566.166    26.359931   0.91319459 
   93800    208.01806   -804.07477    136745.74   -41959.469    2588.1402   -44547.609    26.401951   0.91332637 
   93900    205.99116   -936.06384    136779.29    -41928.22    2562.9217   -44491.141    26.258069   0.91310233 
   94000    215.37159   -746.26331    136793.19   -41938.103     2679.632   -44617.735    26.192843   0.91300954 
   94100    211.89324   -800.07466    136814.42    -41943.01    2636.3548   -44579.365    26.403258   0.91286789 
   94200    210.57234   -820.46725    136752.37   -41940.085    2619.9203   -44560.006    26.550443    0.9132821 
   94300    210.46883   -796.89334     136720.4    -41884.19    2618.6324   -44502.822    26.547601   0.91349567 
   94400    213.51236   -782.74374    136725.86   -41879.129    2656.4996   -44535.628    26.251484   0.91345916 
   94500    214.65544   -798.82645    136793.42    -41823.49    2670.7218   -44494.212    26.072966   0.91300805 
   94600    212.84094   -872.37957    136865.15   -41863.546    2648.1459   -44511.692    26.255217    0.9125295 
   94700    210.99242   -807.46695    136683.46   -41902.902    2625.1468   -44528.049    26.316765   0.91374256 
   94800    207.44567   -861.95726    136788.05   -41886.838    2581.0185   -44467.857    26.380241   0.91304388 
   94900     212.3605   -833.03763    136932.07   -41847.321    2642.1683   -44489.489    26.307705   0.91208359 
   95000    209.45233   -860.78917    136726.04   -41834.094    2605.9852   -44440.079      26.2797   0.91345795 
   95100    213.02435   -935.63672    136573.21   -41836.901    2650.4279   -44487.329    26.438486   0.91448019 
   95200    210.57747   -849.38481    136563.13   -41855.888     2619.984   -44475.873    26.508067   0.91454764 
   95300    214.78718   -886.74309    136617.32   -41757.515    2672.3609   -44429.876    26.496056   0.91418492 
   95400    212.77566   -886.72069    136624.79   -41818.907    2647.3337   -44466.241    26.450823   0.91413494 
   95500    211.58072   -895.95778    136746.94   -41818.029    2632.4664   -44450.495    26.399642   0.91331837 
   95600    213.01896   -900.18604    136717.91   -41810.807    2650.3609   -44461.168    26.433523   0.91351228 
   95700    212.45749   -719.08426    136753.52   -41871.161    2643.3751   -44514.536    26.385732   0.91327441 
   95800    207.71338   -840.08485    136823.58   -41928.187    2584.3493   -44512.536     26.43075   0.91280679 
   95900    213.35374   -930.94049    136670.38   -41887.907    2654.5262   -44542.433    26.574998   0.91382996 
   96000    208.68151   -848.21537    136587.73   -41959.142    2596.3947   -44555.537    26.753155   0.91438294 
   96100    211.09612    -911.3968    136654.37   -41913.922     2626.437   -44540.359    26.616617   0.91393705 
   96200    205.25623   -817.06014    136540.12    -41953.56    2553.7777   -44507.338    26.515704   0.91470175 
   96300    212.21467   -776.87528    136545.88   -41901.345    2640.3539   -44541.699    26.458369   0.91466319 
   96400    210.59415   -789.72637    136586.22   -41879.462    2620.1916   -44499.654    26.497346   0.91439308 
   96500    207.05973   -777.56165    136632.44   -41920.056    2576.2167   -44496.272    26.560149   0.91408376 
   96600    209.80896   -784.10012    136640.93   -41907.275    2610.4223   -44517.698    26.532657   0.91402696 
   96700    206.84429   -723.49008    136706.42   -41982.371    2573.5362   -44555.908    26.654767   0.91358905 
   96800    203.28642   -879.28855    136652.81   -42034.845    2529.2695   -44564.114    26.788452   0.91394746 
   96900    209.96631   -968.72049     136569.2   -41968.983      2612.38   -44581.363      26.7416   0.91450702 
   97000    207.09992   -846.45172     136457.5   -41974.535    2576.7167   -44551.252    26.615511   0.91525562 
   97100    205.86037   -962.98046    136414.14   -41965.405    2561.2944     -44526.7    26.575171   0.91554654 
   97200      204.535   -900.99067    136368.55   -41976.359    2544.8043   -44521.163    26.481929   0.91585263 
   97300     208.0049   -873.98209    136391.87   -41978.296    2587.9765   -44566.273      26.5636     0.915696 
   97400    206.27954   -799.17087    136462.27   -41981.208    2566.5096   -44547.718    26.587673   0.91522362 
   97500    212.87676   -850.14746    136335.57   -41896.871    2648.5915   -44545.462    26.640409   0.91607416 
   97600    209.02488   -779.68927    136346.65   -41961.243    2600.6669    -44561.91    26.642384   0.91599971 
   97700    208.97555   -820.34597    136417.67   -41893.942    2600.0532   -44493.996    26.725549   0.91552284 
   97800    212.88288   -798.08273    136453.09    -41868.24    2648.6677   -44516.908    26.851831    0.9152852 
   97900    213.96045   -744.90715    136609.86   -41841.501    2662.0747   -44503.576    26.717062   0.91423482 
   98000    212.51287   -849.91094    136592.17   -41870.744    2644.0641   -44514.808    26.747175   0.91435322 
   98100    209.53685   -826.05311    136539.57   -41935.722    2607.0368   -44542.759    26.666869   0.91470546 
   98200    209.65704   -981.63373    136594.43   -41916.009    2608.5322   -44524.541    26.683083   0.91433806 
   98300    212.47499    -815.7585    136723.44   -41945.137    2643.5929    -44588.73    26.758796   0.91347533 
   98400    207.88847   -912.38739    136811.26   -41966.972    2586.5278     -44553.5    26.901382     0.912889 
   98500    205.96026   -939.32236    136769.43   -41971.351    2562.5372   -44533.888    26.949289   0.91316818 
   98600     205.8337   -861.29481    136635.91   -41989.344    2560.9625   -44550.306    26.952628   0.91406054 
   98700    206.52537   -869.83792    136584.99   -42038.927    2569.5682   -44608.495    26.827985    0.9144013 
   98800    207.03198   -942.07057    136553.75    -42002.97    2575.8714   -44578.841    26.747767   0.91461045 
   98900    205.18482   -935.32262    136579.99   -42003.835    2552.8892   -44556.725    26.766832   0.91443474 
   99000    205.36203   -825.39326    136742.16   -42040.266    2555.0941    -44595.36    26.714919   0.91335029 
   99100    205.87034   -930.47787    136580.34   -41965.515    2561.4184   -44526.933    26.822696   0.91443244 
   99200    205.38223   -983.34186    136531.95   -41953.575    2555.3454   -44508.921    26.937206   0.91475652 
   99300    209.77296   -851.73205    136515.85   -41908.681    2609.9745   -44518.655    26.854724   0.91486441 
   99400    213.24894    -888.5688    136535.31     -41878.8    2653.2222   -44532.022     26.79119   0.91473402 
   99500    215.42145   -865.08902    136554.76   -41774.908    2680.2524   -44455.161    26.860079   0.91460373 
   99600    212.79129    -863.8008    136508.68   -41794.118    2647.5282   -44441.646    26.787884   0.91491243 
   99700    214.34748   -850.92258    136616.62   -41811.952    2666.8901   -44478.842    26.919716   0.91418956 
   99800    208.90906   -890.99249    136716.74   -41828.361    2599.2258   -44427.586    26.930504   0.91352014 
   99900     211.0804   -860.69375    136626.77   -41878.574    2626.2415   -44504.815    27.002558   0.91412165 
  100000    212.46714   -867.42653    136606.26    -41890.62    2643.4951   -44534.115    26.968709   0.91425894 
  100100    212.51908   -875.17161    136494.15   -41826.987    2644.1413   -44471.128    26.777647   0.91500985 
  100200    213.21775   -944.06269     136461.4   -41843.861    2652.8342   -44496.695    26.792001   0.91522942 
  100300    213.78458   -841.68933    136500.11   -41836.466    2659.8866   -44496.352    27.032904    0.9149699 
  100400    209.51735   -915.90416    136506.26   -41882.441    2606.7941   -44489.235    26.921627    0.9149287 
  100500    212.75061   -874.56728     136526.5   -41808.716    2647.0221   -44455.739    26.861853     0.914793 
  100600    209.33943   -743.14257    136557.57   -41893.232    2604.5804   -44497.812    26.985436   0.91458489 
  100630    209.85672   -910.74535    136516.17   -41875.928    2611.0165   -44486.945    27.027468   0.91486223 
Loop time of 68.6167 on 6 procs for 100000 steps with 4175 atoms

Performance: 629.584 ns/day, 0.038 hours/ns, 1457.370 timesteps/s
98.3% CPU use with 6 MPI tasks x no OpenMP threads

MPI task timing breakdown:
Section |  min time  |  avg time  |  max time  |%varavg| %total
---------------------------------------------------------------
Pair    | 53.018     | 55.026     | 56.895     |  16.2 | 80.19
Neigh   | 4.6783     | 4.697      | 4.7205     |   0.6 |  6.85
Comm    | 4.4632     | 6.3432     | 8.3509     |  48.0 |  9.24
Output  | 0.15957    | 0.16032    | 0.16361    |   0.4 |  0.23
Modify  | 1.7352     | 1.7633     | 1.7955     |   1.8 |  2.57
Other   |            | 0.6273     |            |       |  0.91

Nlocal:        695.833 ave         711 max         682 min
Histogram: 1 0 1 1 0 1 1 0 0 1
Nghost:        1449.17 ave        1464 max        1432 min
Histogram: 1 0 0 1 0 2 0 0 1 1
Neighs:        0.00000 ave           0 max           0 min
Histogram: 6 0 0 0 0 0 0 0 0 0
FullNghs:      18595.7 ave       19033 max       18198 min
Histogram: 1 0 1 1 0 0 2 0 0 1

Total # of neighbors = 111574
Ave neighs/atom = 26.724311
Neighbor list builds = 5156
Dangerous builds = 0

undump              1
unfix               2
unfix               3
unfix               4


################################################
#######         Run Simulation         #########
################################################

reset_timestep      0
log                 log.run_${NAME}
log                 log.run_liquid_density_MLmW
