
# Create simulation box of size 50 x 50 x 50 Angstrom
#
lattice	            sc 1
Lattice spacing in x,y,z = 1.0000000 1.0000000 1.0000000
region 	            all block 0 50 0 50 0 50 units box
create_box          1 all
Created orthogonal box = (0.0000000 0.0000000 0.0000000) to (50.000000 50.000000 50.000000)
  1 by 2 by 3 MPI processor grid

# fill box with 4175 randomly distributed atoms
#
create_atoms        1 random 4175 63782 all
Created 4175 atoms
  create_atoms CPU = 0.001 seconds
mass                1 18.015

# Define potential
#
pair_style          sw
pair_coeff          * * ML_mW.sw mW
Reading sw potential file ML_mW.sw with DATE: 2019-02-27

# Run minimization
#
minimize            1.0e-8 1.0e-8 10000 1000
WARNING: Using 'neigh_modify every 1 delay 0 check yes' setting during minimization (../min.cpp:187)
Neighbor list info ...
  update every 1 steps, delay 0 steps, check yes
  max neighbors/atom: 2000, page size: 100000
  master list distance cutoff = 6.0032907
  ghost atom cutoff = 6.0032907
  binsize = 3.0016454, bins = 17 17 17
  1 neighbor lists, perpetual/occasional/extra = 1 0 0
  (1) pair sw, perpetual
      attributes: full, newton on
      pair build: full/bin/atomonly
      stencil: full/bin/3d
      bin: standard
Per MPI rank memory allocation (min/avg/max) = 4.255 | 4.258 | 4.261 Mbytes
Step Temp E_pair E_mol TotEng Press 
       0            0    7792709.3            0    7792709.3    5898794.3 
     630            0   -45180.336            0   -45180.336   -154.07449 
Loop time of 1.21433 on 6 procs for 630 steps with 4175 atoms

99.4% CPU use with 6 MPI tasks x no OpenMP threads

Minimization stats:
  Stopping criterion = max force evaluations
  Energy initial, next-to-last, final = 
      7792709.32924461  -45180.0188663597   -45180.336116598
  Force two-norm initial, final = 2.0191930e+08 4.9721331
  Force max component initial, final = 1.0948746e+08 0.73126211
  Final line search alpha, max atom move = 0.053306038 0.038980685
  Iterations, force evaluations = 630 1000

MPI task timing breakdown:
Section |  min time  |  avg time  |  max time  |%varavg| %total
---------------------------------------------------------------
Pair    | 0.93864    | 1.0236     | 1.1334     |   6.2 | 84.30
Neigh   | 0.0245     | 0.024876   | 0.025503   |   0.2 |  2.05
Comm    | 0.035078   | 0.14525    | 0.23101    |  16.4 | 11.96
Output  | 0          | 0          | 0          |   0.0 |  0.00
Modify  | 0          | 0          | 0          |   0.0 |  0.00
Other   |            | 0.02056    |            |       |  1.69

Nlocal:        695.833 ave         704 max         685 min
Histogram: 1 1 0 0 1 0 0 1 0 2
Nghost:        1494.17 ave        1515 max        1468 min
Histogram: 1 1 0 0 0 0 1 1 1 1
Neighs:        0.00000 ave           0 max           0 min
Histogram: 6 0 0 0 0 0 0 0 0 0
FullNghs:      19997.0 ave       20462 max       19320 min
Histogram: 1 1 0 0 0 0 0 2 0 2

Total # of neighbors = 119982
Ave neighs/atom = 28.738204
Neighbor list builds = 26
Dangerous builds = 0

# Add velocity/set timestep
#
velocity            all create ${TEMP} 120598 rot yes dist gaussian
velocity            all create 210 120598 rot yes dist gaussian
timestep            5.0

# Define output
#
compute	            1 all msd
thermo	            100
thermo_style        custom step temp press vol etotal ke pe c_1[4] density

# Neighbor lists
#
neigh_modify        delay 0 every 1 check yes

# Set fixes
#
fix                 1 all momentum 10 linear 1 1 1 rescale
fix                 2 all nve
fix                 3 all temp/csvr ${TEMP} ${TEMP} 500.0 928347
fix                 3 all temp/csvr 210 ${TEMP} 500.0 928347
fix                 3 all temp/csvr 210 210 500.0 928347
fix                 4 all press/berendsen iso ${PRES} ${PRES} 1000.0 modulus 20000
fix                 4 all press/berendsen iso -350 ${PRES} 1000.0 modulus 20000
fix                 4 all press/berendsen iso -350 -350 1000.0 modulus 20000

# Run 0.5 ns equilibration
#
dump                1 all custom 1000 eq.${NAME}.dump id type x y z vx vy vz
dump                1 all custom 1000 eq.liquid_density_MLmW.dump id type x y z vx vy vz
run                 100000
Per MPI rank memory allocation (min/avg/max) = 3.506 | 3.508 | 3.511 Mbytes
Step Temp Press Volume TotEng KinEng PotEng c_1[4] Density 
     630          210    801.42152       125000   -42567.537    2612.7992   -45180.336 2.7295415e-33   0.99914793 
     700    134.12765   -272.09933    125774.58   -41762.872     1668.803   -43431.675   0.24338005   0.99299472 
     800    163.78122   -539.48354    125994.45   -41034.251    2037.7497   -43072.001   0.55444352   0.99126185 
     900    181.43235     37.15084    125997.92    -40629.62    2257.3633   -42886.983   0.94507226   0.99123454 
    1000    191.72558   -323.14101    125982.31   -40370.266    2385.4307   -42755.697    1.3599935   0.99135736 
    1100    203.07655   -428.01525    125961.74   -40203.442    2526.6583     -42730.1    1.7447809   0.99151924 
    1200    201.97208   -272.66912    126085.44   -40253.959    2512.9166   -42766.875    2.1145477   0.99054651 
    1300    205.67469   -214.78754    126164.69   -40251.147    2558.9842   -42810.132    2.4224548   0.98992429 
    1400    208.73763   -293.47444    126541.28     -40291.4     2597.093   -42888.493    2.6684963   0.98697826 
    1500    206.71014   -292.02541     126560.9   -40258.992    2571.8671   -42830.859     3.011635   0.98682528 
    1600    211.86168   -376.43338    126706.22    -40168.49    2635.9621   -42804.452    3.3611454   0.98569346 
    1700    213.85554   -181.55374    126986.22   -40194.107    2660.7694   -42854.876    3.6174107   0.98352001 
    1800    211.12943   -238.56351    127178.16   -40290.544    2626.8515   -42917.395    3.9108126   0.98203564 
    1900    212.18444   -171.65463    127321.41   -40300.273    2639.9778   -42940.251    4.1864132   0.98093081 
    2000    212.84562   -360.46621    127578.19   -40272.239    2648.2041   -42920.443    4.4878351   0.97895644 
    2100    210.61513   -188.01434    127497.87   -40231.877    2620.4527   -42852.329    4.7234499   0.97957319 
    2200    212.70068   -422.41271     127774.1   -40269.906    2646.4008   -42916.307    4.8975832   0.97745543 
    2300    212.44698   -361.55464    127745.79   -40282.036    2643.2444   -42925.281    5.1130971   0.97767208 
    2400    210.55952   -271.48072    127901.53   -40296.287    2619.7608   -42916.047    5.3380969    0.9764816 
    2500    214.23081    -305.8918    128170.52   -40265.585    2665.4386   -42931.024    5.5986446   0.97443227 
    2600    213.28717   -286.19068    128349.88   -40235.827    2653.6979   -42889.524    5.8348318   0.97307054 
    2700    218.37542   -288.38682    128381.18   -40284.778    2717.0054   -43001.784    6.1396004   0.97283334 
    2800    216.08756   -318.20042    128382.64    -40305.56    2688.5401     -42994.1    6.4268037    0.9728223 
    2900    213.38897   -290.77562    128487.13   -40400.471    2654.9644   -43055.435    6.6681053   0.97203115 
    3000    212.50076   -276.70414    128594.27   -40450.375    2643.9134   -43094.288    6.8196116    0.9712213 
    3100    211.44902   -149.24682    128764.75   -40435.762    2630.8278    -43066.59    7.0949349   0.96993539 
    3200    213.19853   -424.15073    128835.44   -40496.124    2652.5951   -43148.719     7.281208    0.9694032 
    3300     210.3277   -50.942687    129002.34   -40505.765    2616.8764   -43122.641    7.3979942   0.96814903 
    3400    211.95934   -373.73514    129072.43   -40557.751    2637.1772   -43194.928    7.5231815   0.96762331 
    3500    211.37271   -335.83544    129182.49   -40610.906    2629.8783   -43240.784    7.7384701   0.96679892 
    3600    208.62002   -278.93368    129166.71   -40659.839    2595.6297   -43255.469     7.917383   0.96691705 
    3700    206.27959   -368.52817    129313.96   -40721.211    2566.5103   -43287.721    8.0758307   0.96581601 
    3800    208.49273   -356.25781    129193.13   -40681.576    2594.0459   -43275.622    8.1656164   0.96671928 
    3900    211.18166   -341.09715    129246.56   -40704.723    2627.5013   -43332.225    8.2691579   0.96631964 
    4000    210.53208   -249.18669    129326.96   -40706.649    2619.4194   -43326.068    8.4210697    0.9657189 
    4100     209.5377   -357.13744    129404.19   -40704.178    2607.0473   -43311.225    8.5939605   0.96514257 
    4200    212.32196   -300.09558    129362.94   -40728.607    2641.6888   -43370.296    8.9497518   0.96545035 
    4300    211.55685   -342.75118    129454.44   -40721.859    2632.1695   -43354.028    9.0738674   0.96476789 
    4400    210.27266   -464.32446    129429.05   -40700.377    2616.1916   -43316.569    9.2395206   0.96495716 
    4500    207.06061   -226.39584     129514.5   -40694.699    2576.2277   -43270.927    9.3609396   0.96432055 
    4600    207.57231   -422.11726    129604.34   -40736.728    2582.5941   -43319.322    9.4876364   0.96365208 
    4700    213.14594   -198.21845    129726.92   -40642.515    2651.9407   -43294.455    9.6764961   0.96274153 
    4800    204.79747   -335.35703    129851.06   -40696.142    2548.0699   -43244.212    9.7486405   0.96182113 
    4900    217.73703   -253.91301    129905.67   -40582.307    2709.0626    -43291.37    9.9192868    0.9614168 
    5000    212.82212   -423.12625    129927.46   -40555.929    2647.9118    -43203.84    10.169023   0.96125556 
    5100     211.3174    -393.9258    129877.19   -40642.301    2629.1902   -43271.491    10.295419   0.96162761 
    5200    211.76314   -446.87207    129956.37   -40712.492     2634.736   -43347.228    10.317017   0.96104174 
    5300    211.96642    -348.0154    129892.82   -40684.761    2637.2652   -43322.026    10.440631   0.96151188 
    5400    211.21938   -279.26056    129843.41   -40742.301    2627.9706   -43370.271    10.585328   0.96187782 
    5500    209.58538   -362.54212     130141.7   -40761.008    2607.6405   -43368.648    10.657575    0.9596731 
    5600    210.64317   -267.21251    130278.62   -40779.333    2620.8015   -43400.134    10.815665   0.95866451 
    5700    209.62729    -477.9069    130271.62   -40782.981     2608.162   -43391.143    10.836733   0.95871602 
    5800    211.84795    -422.2943    130367.69   -40828.963    2635.7913   -43464.754     10.87302   0.95800955 
    5900    210.83312   -394.54872    130452.76   -40863.856    2623.1648   -43487.021    10.983372    0.9573848 
    6000    209.12285   -350.26644    130524.22   -40870.226    2601.8858   -43472.111    11.128014   0.95686069 
    6100    208.50141   -371.49586    130722.61   -40813.711    2594.1539   -43407.865    11.281907   0.95540849 
    6200    209.02017   -257.56934    130712.31    -40890.43    2600.6083   -43491.038    11.387005   0.95548378 
    6300    205.85157   -474.82169    130699.28   -40862.768    2561.1848   -43423.952    11.435701   0.95557905 
    6400    210.03533   -384.40297    130652.45   -40856.178    2613.2388   -43469.417    11.560133   0.95592151 
    6500     214.7851   -471.70207    130729.54   -40821.835     2672.335    -43494.17    11.540545   0.95535785 
    6600    207.55826   -311.37256    130557.58   -40902.587    2582.4193   -43485.006    11.572389   0.95661613 
    6700    206.87186   -352.79094    130481.67   -40959.185    2573.8793   -43533.064    11.709672    0.9571727 
    6800     209.7982   -403.09022    130624.54   -40881.267    2610.2884   -43491.556    11.790418   0.95612582 
    6900    213.54285   -273.59494    130684.45    -40838.75     2656.879   -43495.629    12.017706    0.9556875 
    7000    211.79562   -423.03963    130779.79    -40835.05    2635.1401    -43470.19    12.197862   0.95499073 
    7100     212.8165   -370.81063    130847.21   -40864.144    2647.8419   -43511.986    12.329392   0.95449871 
    7200    210.72283    -409.1869    130935.96   -40935.436    2621.7926   -43557.228    12.236198   0.95385175 
    7300    208.74921   -323.55449    130879.06   -41013.466     2597.237   -43610.703    12.394229    0.9542664 
    7400     203.7018   -391.96629    131037.44   -41045.802    2534.4376    -43580.24    12.506596   0.95311305 
    7500    206.31115   -142.66649    131024.67    -41016.35    2566.9029   -43583.253    12.586708    0.9532059 
    7600    207.19341   -205.37371    131317.77    -41106.69    2577.8799    -43684.57     12.72881   0.95107836 
    7700    207.26119   -264.56149    131367.87   -41013.215    2578.7232   -43591.938    12.851664   0.95071568 
    7800     209.2516   -473.26649    131292.69   -40997.435    2603.4877   -43600.923     12.83815   0.95126003 
    7900    204.62581    -393.3256    131076.34     -41060.8    2545.9341   -43606.734    12.849685   0.95283018 
    8000     209.5518   -471.78139    131066.17    -41034.33    2607.2228   -43641.553    13.021262   0.95290409 
    8100    207.73717   -323.43511    130962.54   -41109.524    2584.6453   -43694.169    13.197587   0.95365815 
    8200      204.925   -387.08995    131166.93   -41126.297    2549.6566   -43675.954    13.316789   0.95217207 
    8300    204.33827   -354.42583    131078.38   -41121.302    2542.3566   -43663.658    13.477141   0.95281533 
    8400    209.34841   -370.41209    131303.25   -41081.318    2604.6923   -43686.011     13.44937   0.95118356 
    8500    210.59199   -305.65999    131433.54   -41017.467    2620.1648   -43637.631    13.588341   0.95024068 
    8600    211.44851   -172.45236    131343.24   -41046.292    2630.8215   -43677.113    13.690525   0.95089393 
    8700    209.39639   -236.27804    131417.16   -41036.725    2605.2892   -43642.014    13.949431   0.95035907 
    8800    210.40414   -228.42783    131436.23   -41084.891    2617.8275   -43702.718    14.075293   0.95022118 
    8900    207.55674   -308.00013    131563.09   -41169.233    2582.4004   -43751.634    14.054202   0.94930496 
    9000    207.99602   -386.66745    131579.43   -41134.331    2587.8659   -43722.196    14.071969   0.94918702 
    9100    206.88376   -279.93247    131462.54   -41204.709    2574.0273   -43778.736    14.125674     0.950031 
    9200    206.52033   -374.70922    131629.99    -41109.91    2569.5055   -43679.416    14.257997   0.94882245 
    9300    206.55888   -436.21971    131700.65   -41156.319    2569.9852   -43726.304    14.342611   0.94831339 
    9400     211.3725   -473.74253    131544.07   -41126.889    2629.8758   -43756.764    14.425762   0.94944219 
    9500    208.00273   -264.10955    131619.92   -41144.475    2587.9494   -43732.424    14.533853   0.94889504 
    9600    211.06626   -198.34644    131786.93   -41106.833    2626.0655   -43732.898    14.504772   0.94769256 
    9700    211.93868   -214.81846    132137.94   -41052.443    2636.9201   -43689.363    14.524815   0.94517507 
    9800    207.02928   -274.16582    132044.11   -41129.137    2575.8378   -43704.975    14.587837   0.94584671 
    9900    206.14577   -305.15034    132155.33   -41201.351    2564.8453   -43766.196    14.697805   0.94505071 
   10000    207.90443   -308.13858    132286.39   -41202.172    2586.7263   -43788.898    14.727937   0.94411443 
   10100    209.09415   -370.84025    132403.66   -41174.001    2601.5287    -43775.53    14.872895   0.94327826 
   10200    206.26295   -373.75278    132415.38   -41220.956    2566.3033   -43787.259    14.933369   0.94319474 
   10300    207.35221   -409.12407    132522.33   -41224.905    2579.8557   -43804.761    15.017756   0.94243354 
   10400    206.52716   -306.13794    132387.79   -41161.468    2569.5905   -43731.059    14.880261   0.94339133 
   10500    212.16692   -445.75476    132560.21   -41150.944    2639.7598   -43790.704    15.076089   0.94216428 
   10600    209.49922   -325.17592    132522.97   -41101.576    2606.5686   -43708.145    15.015401   0.94242903 
   10700    209.63928   -389.82901    132520.97   -41100.631    2608.3112   -43708.942    15.130746   0.94244325 
   10800    213.17324   -338.89956    132413.15   -41103.313    2652.2804   -43755.593    15.289228   0.94321064 
   10900    214.94273   -326.29481    132374.62   -41140.599    2674.2962   -43814.895     15.41833   0.94348515 
   11000    216.98879   -474.42912    132376.81   -41146.091     2699.753   -43845.844    15.593017   0.94346958 
   11100    212.04858   -316.20985     132324.1   -41188.078    2638.2875   -43826.365    15.568691   0.94384537 
   11200    210.56829   -303.74227    132222.79   -41182.242    2619.8698   -43802.112    15.589391   0.94456857 
   11300    214.56071   -267.06808    132323.45   -41182.618    2669.5431   -43852.161     15.57247   0.94385002 
   11400    212.06416   -431.25122    132206.85   -41205.708    2638.4813    -43844.19    15.622097   0.94468242 
   11500    210.10409   -295.87154    132308.03   -41233.358    2614.0943   -43847.452    15.733167      0.94396 
   11600    210.37258   -389.11635     132439.1   -41236.058    2617.4348   -43853.493    15.754056    0.9430258 
   11700    211.35994   -332.92706    132353.38     -41139.4    2629.7195    -43769.12    15.973729    0.9436366 
   11800    210.02313   -471.91304    132374.85   -41216.834     2613.087   -43829.921    15.965824   0.94348354 
   11900    211.58966   -406.11136    132310.84   -41234.002    2632.5776    -43866.58    15.852491   0.94394001 
   12000    209.12182    -279.6314    132495.77   -41250.853    2601.8731   -43852.727     15.83693    0.9426225 
   12100    210.17748   -420.90888    132459.71   -41213.282    2615.0074    -43828.29    15.997991    0.9428791 
   12200    212.39726   -194.93532    132435.38   -41223.144    2642.6257    -43865.77    16.070552   0.94305228 
   12300     209.1229   -181.13215    132285.51   -41232.088    2601.8865   -43833.975    16.224492    0.9441207 
   12400       210.33   -180.79287    132354.47    -41222.84    2616.9051   -43839.745    16.255983   0.94362884 
   12500    206.69172   -482.33953    132452.32     -41313.3     2571.638   -43884.938    16.261863   0.94293169 
   12600    211.44803   -220.80485    132337.72   -41247.069    2630.8155   -43877.884    16.141202   0.94374822 
   12700    214.19704   -379.66197    132446.58   -41229.763    2665.0184   -43894.782    16.313188   0.94297254 
   12800    217.65898   -410.12004    132301.68   -41211.297    2708.0916   -43919.389    16.325091   0.94400532 
   12900    212.89246   -268.17659    132405.66   -41280.771     2648.787   -43929.558    16.623238   0.94326399 
   13000    215.69029    -322.4395    132476.39   -41228.209    2683.5972   -43911.806    16.688177   0.94276037 
   13100    215.20752    -421.7739    132487.88   -41233.493    2677.5907   -43911.083    16.734022   0.94267865 
   13200    215.68936   -405.14658     132601.1   -41159.658    2683.5856   -43843.244    16.773835   0.94187375 
   13300    212.67253   -501.59799    132548.66   -41196.199    2646.0505    -43842.25    16.713846   0.94224635 
   13400    207.04286   -327.40295    132405.28   -41267.982    2576.0068   -43843.989    16.802313   0.94326673 
   13500    207.98524   -171.25143    132552.85    -41292.88    2587.7318   -43880.612    16.920534   0.94221656 
   13600    210.81999   -210.40126    132772.55   -41319.518    2623.0015   -43942.519    16.927328   0.94065744 
   13700    210.83635   -431.51894    132933.94    -41327.08    2623.2051   -43950.285    17.041661   0.93951548 
   13800    209.57205   -492.93973    132807.21   -41249.782    2607.4747   -43857.257    16.905181   0.94041201 
   13900    209.13778   -379.32831    132758.49    -41287.48    2602.0716   -43889.552    16.981051   0.94075706 
   14000    208.18058   -311.46041    132901.29   -41252.523    2590.1623   -43842.685    17.071117   0.93974629 
   14100     210.9719   -313.55054    132935.53     -41256.7    2624.8915   -43881.591    16.935656   0.93950422 
   14200    209.59277   -372.18382    132683.09   -41287.153    2607.7325   -43894.886     17.00386   0.94129172 
   14300    208.09017   -335.57244    132654.03   -41336.748    2589.0373   -43925.785    17.070477   0.94149794 
   14400    207.68742   -501.92819    132726.38   -41310.886    2584.0263   -43894.913    17.103925   0.94098469 
   14500    213.07502   -310.46888    132798.93   -41261.652    2651.0583    -43912.71    17.328479   0.94047063 
   14600    210.12769   -396.38846    132566.61    -41267.63    2614.3879   -43882.018    17.305423   0.94211879 
   14700    207.41766   -212.31459    132660.46    -41311.07      2580.67    -43891.74    17.205451   0.94145227 
   14800    211.14303   -464.27388    132471.98    -41363.53    2627.0207   -43990.551    17.180723   0.94279177 
   14900    206.17987   -477.47785    132606.58   -41430.487    2565.2696   -43995.757    17.315079   0.94183482 
   15000    203.26161   -331.68363    132775.62   -41430.675    2528.9609   -43959.636    17.435342   0.94063571 
   15100    203.07288   -351.28878    132805.24   -41459.726    2526.6126   -43986.338    17.446112    0.9404259 
   15200     207.5342   -244.19845    132800.23   -41380.814      2582.12   -43962.934    17.475391   0.94046142 
   15300    208.47079   -435.49467    132670.75   -41394.209     2593.773   -43987.982     17.36409   0.94137927 
   15400    204.69207   -412.27598    132795.49   -41369.351    2546.7585   -43916.109    17.432853   0.94049497 
   15500    210.36827   -189.90027    132747.43   -41349.504    2617.3812   -43966.885    17.447404   0.94083546 
   15600    211.57933   -280.39762    132795.08   -41286.803    2632.4492   -43919.253    17.526638   0.94049789 
   15700    205.54542   -375.17025    132883.68   -41377.455    2557.3758    -43934.83    17.631379   0.93987082 
   15800    205.89698    -379.8204    132878.63    -41388.81    2561.7499   -43950.559    17.759249   0.93990654 
   15900    204.93251    -354.0411    132940.42   -41433.322      2549.75   -43983.072    17.768749   0.93946968 
   16000    210.48384   -236.47586    132992.94   -41379.003    2618.8191   -43997.822     17.82812   0.93909865 
   16100    213.38691   -345.59838    132928.12   -41344.202    2654.9388   -43999.141     17.90898   0.93955658 
   16200    206.63108   -298.51813    133109.97   -41396.195    2570.8835   -43967.079    17.896861     0.938273 
   16300    208.80956   -431.46293    133178.09    -41415.68    2597.9879   -44013.668    17.893184   0.93779311 
   16400    213.25573   -334.76733     133131.1   -41333.707    2653.3067   -43987.014    17.850956   0.93812407 
   16500    212.67906   -345.99737    133148.69   -41330.489    2646.1318   -43976.621    18.062848   0.93800015 
   16600     213.0048   -421.84289     133281.4   -41321.641    2650.1846   -43971.826    18.044632   0.93706616 
   16700    211.28242   -376.77201    133242.66   -41353.948     2628.755   -43982.703    17.979262   0.93733865 
   16800    212.70899   -348.04447    133198.56   -41360.573    2646.5042   -44007.077    17.936985   0.93764895 
   16900    212.14454   -370.67012    133258.76   -41340.817    2639.4814   -43980.299    17.961362   0.93722535 
   17000    215.31018    -448.8976    133253.81   -41355.809     2678.868   -44034.677    17.969764    0.9372602 
   17100    213.21869    -483.0163    133347.28   -41288.847    2652.8459   -43941.693    17.994184   0.93660323 
   17200    210.10447   -444.77292    133298.24   -41304.476     2614.099   -43918.575    18.119989   0.93694779 
   17300    211.80058   -461.61738    133019.84    -41356.82    2635.2019   -43992.022    18.016857   0.93890873 
   17400    209.14748   -273.38085    133059.86   -41389.499    2602.1922   -43991.691    18.132757   0.93862639 
   17500    207.41651   -220.49566    133288.44     -41363.5    2580.6558   -43944.156    18.306666   0.93701668 
   17600    210.64854   -424.06212    133355.34   -41352.717    2620.8683   -43973.585    18.332981   0.93654659 
   17700    208.59483   -354.96025    133101.61   -41375.257    2595.3162   -43970.573    18.404933   0.93833193 
   17800    206.09426   -276.14655    133026.62   -41363.159    2564.2044   -43927.363    18.321638   0.93886091 
   17900    211.79417   -376.32437    132991.39   -41322.885    2635.1222   -43958.007    18.332317    0.9391096 
   18000    210.09727   -317.26418     133195.6   -41266.836    2614.0095   -43880.845    18.486784   0.93766982 
   18100    211.75343    -381.3446    133081.25   -41366.689    2634.6152   -44001.304    18.460655   0.93847548 
   18200    212.32517   -329.02796    133064.76   -41369.545    2641.7288   -44011.274    18.403023   0.93859178 
   18300    213.35344   -356.95273    132969.98   -41285.379    2654.5224   -43939.902    18.489529   0.93926078 
   18400    205.50027   -364.05268    133101.94   -41339.584     2556.814   -43896.398    18.429488   0.93832962 
   18500    212.75209   -392.78406    132939.27   -41301.613    2647.0405   -43948.653    18.393521   0.93947779 
   18600    206.33251   -313.11273    132952.55   -41350.318    2567.1687   -43917.487    18.342316   0.93938397 
   18700    211.85808   -353.42172    133060.92    -41321.48    2635.9173   -43957.398    18.593504   0.93861887 
   18800    210.37698    -537.3046    133282.81   -41303.912    2617.4896   -43921.402    18.556475   0.93705623 
   18900    212.93874   -188.70413    133358.06   -41353.977    2649.3628    -44003.34    18.519258   0.93652748 
   19000    213.48493    -531.6416    133327.84   -41351.809    2656.1584   -44007.967     18.55607   0.93673978 
   19100    207.98474    -316.3299    133266.81   -41413.526    2587.7256   -44001.251    18.550599   0.93716875 
   19200    215.00518    -321.1398    133294.85   -41394.746    2675.0732    -44069.82    18.515208   0.93697163 
   19300    210.90422   -500.03987    133407.97   -41344.766    2624.0495   -43968.815    18.564397   0.93617713 
   19400     210.8698   -191.49403    133295.62   -41364.377    2623.6212   -43987.998    18.589357   0.93696619 
   19500    208.55509   -418.32463    133378.15   -41349.098    2594.8218    -43943.92    18.871478   0.93638642 
   19600    211.31081   -294.48215    133246.17   -41374.388    2629.1082   -44003.496    18.870335   0.93731392 
   19700    213.93414    -141.7468    133236.55   -41354.335    2661.7474   -44016.082    18.923234   0.93738162 
   19800    211.75667   -359.98223     133282.3   -41396.513    2634.6556   -44031.169    18.724018   0.93705985 
   19900    212.76657    -339.1463    133240.28   -41409.715    2647.2207   -44056.935    18.530884   0.93735537 
   20000    210.06858   -337.99267    133133.06   -41458.957    2613.6525    -44072.61    18.485468   0.93811028 
   20100    211.81947   -466.12218    133268.38   -41420.806    2635.4369   -44056.243    18.697706   0.93715769 
   20200    210.92524   -366.81629    133340.17   -41472.313     2624.311   -44096.624    18.848923   0.93665316 
   20300    209.18711   -286.97519    133308.89   -41497.551    2602.6854   -44100.236    19.004447   0.93687292 
   20400    209.83113   -331.18998    133267.27   -41500.024    2610.6981   -44110.722    18.949807    0.9371655 
   20500    209.09027    -388.9697    133136.74   -41467.832    2601.4805   -44069.312    18.896786   0.93808437 
   20600    207.65118     -338.205     133140.8   -41498.945    2583.5754    -44082.52    18.835411   0.93805571 
   20700    206.06491   -208.85713    133143.83   -41437.286    2563.8392   -44001.126    19.019361   0.93803437 
   20800     211.2918   -189.17202    133117.14   -41434.082    2628.8717   -44062.954    19.134543   0.93822248 
   20900     208.1038   -335.21258    133305.39   -41466.721     2589.207   -44055.928    19.310652   0.93689753 
   21000    206.02263   -447.10635    133204.25   -41550.939    2563.3132   -44114.252    19.143129    0.9376089 
   21100     206.7868   -424.63779    133163.88   -41565.435    2572.8209   -44138.256    19.212308   0.93789313 
   21200    207.23886    -443.1712    133327.28   -41530.132    2578.4454   -44108.577    19.340315    0.9367437 
   21300    210.87965   -446.34253    133409.01   -41540.897    2623.7437   -44164.641    19.223577   0.93616982 
   21400      209.419    -408.7448    133420.93   -41506.699    2605.5705   -44112.269    19.311076   0.93608618 
   21500    209.26143   -372.08119    133509.04   -41495.912    2603.6101   -44099.522    19.267635   0.93546846 
   21600    210.16327   -361.64929    133608.28   -41457.348    2614.8307   -44072.179    19.374733    0.9347736 
   21700    209.70475   -396.42721    133498.54   -41440.206    2609.1258   -44049.331    19.416007   0.93554199 
   21800    209.20366   -331.79734    133522.53   -41434.368    2602.8913   -44037.259    19.445408   0.93537392 
   21900    209.70602   -558.59589     133298.7    -41463.15    2609.1415   -44072.292     19.36052   0.93694455 
   22000    209.58013   -373.69866    133274.38   -41500.611    2607.5752   -44108.186    19.442057   0.93711553 
   22100    208.43675   -196.92912    133274.48   -41446.115    2593.3494   -44039.464    19.396501   0.93711484 
   22200     211.7547   -342.41178    133237.66   -41481.199    2634.6311    -44115.83    19.617456   0.93737378 
   22300    209.89144   -477.74959    133097.04    -41457.84    2611.4485   -44069.288    19.495651   0.93836417 
   22400    208.20141   -383.00791    132949.92   -41419.215    2590.4214   -44009.636    19.572003   0.93940253 
   22500    211.04987   -357.87756    132937.54   -41420.924    2625.8616   -44046.786    19.650036   0.93949004 
   22600    216.92321   -395.18846    132852.98   -41392.425    2698.9372   -44091.362    19.561047   0.94008798 
   22700    205.81859   -240.73111    132935.67   -41398.485    2560.7746    -43959.26     19.46659   0.93950321 
   22800    214.72698   -349.39671    133016.88   -41376.452    2671.6119   -44048.063    19.557675   0.93892965 
   22900    212.37231   -363.28526    132976.03   -41416.087    2642.3153   -44058.402    19.449518   0.93921808 
   23000    211.29234   -380.13174     132973.2   -41405.681    2628.8785   -44034.559    19.558672   0.93923804 
   23100    209.30535   -421.36637    133125.76   -41500.462    2604.1564   -44104.619    19.796873   0.93816168 
   23200    209.89313   -306.01414    133057.54    -41437.63    2611.4696   -44049.099    19.938787   0.93864275 
   23300    210.85732   -371.41936    133085.52   -41471.573     2623.466   -44095.039    19.987586   0.93844539 
   23400    210.31829   -586.39259    133136.76   -41404.135    2616.7594   -44020.894    19.924845   0.93808419 
   23500     208.4592   -441.32793    133021.23    -41440.71    2593.6288   -44034.338    19.909927   0.93889894 
   23600    212.31966   -265.52593    133016.14   -41416.539    2641.6602   -44058.199      19.9495   0.93893483 
   23700    209.56122   -274.88234    133265.21    -41452.69      2607.34    -44060.03    20.001166   0.93717998 
   23800    205.75707   -282.33011    133277.53   -41500.959    2560.0091   -44060.968    20.031822   0.93709337 
   23900    206.41883   -500.47333    133384.38   -41512.308    2568.2427    -44080.55    20.034841   0.93634273 
   24000     212.4825   -525.22079    133335.06    -41446.66    2643.6862   -44090.346    20.178806   0.93668907 
   24100    210.29459   -320.74826    133253.02   -41440.451    2616.4645   -44056.916    20.107062   0.93726572 
   24200    206.77317   -173.01742    133308.33    -41493.77    2572.6513   -44066.422    20.149728   0.93687686 
   24300    208.74146    -444.8799    133284.27   -41475.408    2597.1406   -44072.549    20.196796     0.937046 
   24400    207.07243   -348.83283    133149.98   -41511.158    2576.3747   -44087.533    20.110119   0.93799108 
   24500    209.63999   -436.26424    133193.71   -41466.841    2608.3201   -44075.161    20.173979   0.93768311 
   24600    205.61195   -349.33042    133323.61   -41455.009    2558.2036   -44013.212    20.173248   0.93676952 
   24700    207.42358   -312.36061    133399.68   -41468.785    2580.7437   -44049.528    20.287104   0.93623531 
   24800    209.52472   -282.88763    133488.67   -41456.695    2606.8858   -44063.581    20.385063    0.9356112 
   24900    213.45699    -456.1931    133595.93   -41417.784    2655.8107   -44073.594    20.520557   0.93485998 
   25000    212.26039   -394.22795    133534.92   -41406.459    2640.9228   -44047.382    20.385184   0.93528711 
   25100    214.17685   -340.47584    133599.78   -41411.447    2664.7672   -44076.215     20.43301   0.93483305 
   25200    212.90592    -326.1835    133558.66   -41455.378    2648.9545   -44104.332    20.497766   0.93512087 
   25300    210.10068   -327.23144    133591.77   -41451.334    2614.0519   -44065.385    20.606894    0.9348891 
   25400    206.91599   -421.05358    133465.58   -41437.199    2574.4283   -44011.627    20.616822   0.93577301 
   25500    209.31054   -488.64519    133246.98   -41393.419     2604.221    -43997.64    20.557804   0.93730821 
   25600    209.64814   -391.41738    133343.54   -41464.939    2608.4214    -44073.36    20.449876   0.93662946 
   25700    207.71903   -324.28401    133248.61   -41487.309    2584.4196   -44071.729    20.563836   0.93729676 
   25800    208.28169     -198.959    133268.31   -41461.386    2591.4202   -44052.807    20.546083   0.93715821 
   25900    210.45069   -235.78086    133280.89   -41421.681    2618.4066   -44040.088    20.595262   0.93706974 
   26000    214.35937   -359.59128    133543.32   -41358.615     2667.038   -44025.653    20.621627   0.93522832 
   26100    208.61539   -454.82207    133546.58   -41436.326     2595.572   -44031.898    20.818301   0.93520547 
   26200    209.79736   -523.04516    133491.04   -41431.999     2610.278   -44042.277    20.853953   0.93559454 
   26300    208.77412   -394.43521    133540.28   -41408.092     2597.547   -44005.639    20.971257   0.93524958 
   26400    212.22812   -330.25602    133465.73    -41402.27    2640.5213   -44042.791    20.947744     0.935772 
   26500    211.80109   -424.44149    133413.36    -41455.77    2635.2082   -44090.979    21.094951   0.93613934 
   26600    208.78902   -455.02035    133396.39   -41500.419    2597.7323   -44098.151    21.111543   0.93625841 
   26700    208.72762   -288.11802     133358.8   -41530.946    2596.9684   -44127.915    21.002902   0.93652233 
   26800    210.16732   -321.20753    133245.35   -41466.769     2614.881    -44081.65    21.085453   0.93731971 
   26900    208.18779   -421.28693    133303.52    -41463.14    2590.2519   -44053.392    20.969588   0.93691068 
   27000     207.5666   -368.85242       133302   -41498.395    2582.5231   -44080.918    21.049002   0.93692136 
   27100    209.79489    -316.2584    133359.65   -41505.901    2610.2472   -44116.148    21.153426   0.93651636 
   27200    207.18258    -105.7766    133251.63    -41523.97    2577.7452   -44101.715    21.166497   0.93727555 
   27300    206.82422   -385.82771    133288.24   -41545.839    2573.2865   -44119.126    21.144144    0.9370181 
   27400    209.98183   -458.71811    133510.41   -41484.015    2612.5731   -44096.588    21.199802   0.93545883 
   27500    208.30197   -237.37254     133476.6   -41420.603    2591.6725   -44012.275    21.299375   0.93569576 
   27600    208.28631   -400.81409    133363.43   -41464.637    2591.4777   -44056.115    21.203753   0.93648982 
   27700    209.68581    -398.6736    133304.28   -41472.256    2608.8901   -44081.146      21.1585   0.93690534 
   27800    215.13093   -272.00037    133350.71   -41416.219    2676.6378   -44092.857    21.406078   0.93657913 
   27900    210.78993    -208.7617    133491.03   -41433.182    2622.6275   -44055.809    21.384343   0.93559466 
   28000    211.18908   -366.42431    133498.87    -41465.25    2627.5937   -44092.843    21.384674    0.9355397 
   28100    211.06835   -414.24504    133514.93   -41450.625    2626.0916   -44076.717    21.489536   0.93542716 
   28200    210.61052   -358.54272    133502.83   -41500.873    2620.3953   -44121.268    21.558159   0.93551197 
   28300    211.38838   -366.12832    133549.61   -41487.899    2630.0733   -44117.973    21.585842   0.93518426 
   28400    207.56481   -318.49961    133519.24    -41526.14    2582.5009   -44108.641    21.578248   0.93539694 
   28500    208.22141   -369.77448    133428.84   -41540.767    2590.6702   -44131.437    21.461992   0.93603074 
   28600    207.41933   -465.47704     133373.1   -41484.623    2580.6908   -44065.314    21.555157   0.93642188 
   28700    211.81612   -251.28957    133354.54    -41491.27    2635.3952   -44126.665     21.57606    0.9365522 
   28800    212.33511   -333.87902    133515.76   -41457.753    2641.8524   -44099.605    21.666754   0.93542136 
   28900    213.66404   -211.61955    133526.26   -41430.529    2658.3869   -44088.916    21.709874   0.93534779 
   29000    208.51324   -423.87282    133430.91   -41503.816    2594.3011   -44098.117    21.746898   0.93601621 
   29100    213.97902   -462.19554    133520.16   -41456.915    2662.3058    -44119.22    21.875339   0.93539054 
   29200    206.86513   -343.50854    133604.19   -41435.203    2573.7955   -44008.999    21.823223   0.93480223 
   29300    210.26485    -349.5554    133640.68   -41498.178    2616.0945   -44114.272    21.937552   0.93454698 
   29400    208.77938   -423.81359    133710.52   -41546.551    2597.6124   -44144.164    21.735074   0.93405885 
   29500    207.31999   -298.41508    133614.81    -41566.16    2579.4549   -44145.615    21.810783   0.93472787 
   29600    212.18596   -355.38049    133605.24   -41493.946    2639.9968   -44133.943    21.943322   0.93479483 
   29700    208.04318   -436.68717    133574.28   -41549.333    2588.4527   -44137.785    22.042184   0.93501155 
   29800    210.98169   -327.89524    133626.33   -41537.121    2625.0133   -44162.134    22.120332   0.93464734 
   29900    208.65877   -240.91666    133518.67   -41564.286    2596.1118   -44160.397    22.178625   0.93540096 
   30000    207.81438   -581.19054    133587.75   -41541.136     2585.606   -44126.742    22.133397   0.93491727 
   30100    208.33044   -321.75845    133531.21   -41548.788    2592.0267   -44140.814    22.116419    0.9353131 
   30200    209.57372   -352.89939    133636.28   -41559.195    2607.4956    -44166.69    22.124865   0.93457776 
   30300    212.45405   -276.25712    133556.12   -41528.734    2643.3322   -44172.067    22.197483   0.93513866 
   30400    211.33213   -277.27235    133758.31   -41519.771    2629.3735   -44149.144    22.204295   0.93372507 
   30500    209.86703   -411.79395    133651.62    -41532.01    2611.1449   -44143.155    22.010448   0.93447043 
   30600    211.55579   -422.30824    133554.96   -41523.526    2632.1562   -44155.682    22.066233   0.93514679 
   30700    208.14676   -260.23745    133478.72   -41534.076    2589.7414   -44123.817    22.200622    0.9356809 
   30800    210.47001   -256.84366    133724.97    -41474.39    2618.6471   -44093.037    22.325831   0.93395787 
   30900    212.80446   -278.69839    133700.64   -41587.928    2647.6921   -44235.621     22.29695   0.93412785 
   31000    208.80164   -352.50565    133782.88   -41624.515    2597.8894   -44222.404    22.289866   0.93355363 
   31100    207.87722   -362.59088    133929.34    -41628.62    2586.3878   -44215.008    22.354003   0.93253274 
   31200    207.55931    -293.2185    133845.97   -41640.113    2582.4325   -44222.545    22.329073   0.93311355 
   31300    208.88266   -371.76091     133754.9    -41602.11    2598.8974   -44201.007    22.309724   0.93374892 
   31400    208.53841   -296.73185    133806.51   -41571.489    2594.6142   -44166.103    22.312061   0.93338873 
   31500    207.28363   -289.44621    133776.95   -41614.582    2579.0025   -44193.584    22.234132   0.93359498 
   31600    209.69022   -373.54974    133777.02   -41548.679     2608.945   -44157.624     22.31811   0.93359448 
   31700    209.35744   -271.47998    133659.84   -41579.207    2604.8046   -44184.012    22.424638   0.93441298 
   31800    214.06756   -236.90348    133664.45   -41506.705    2663.4074   -44170.112     22.41195   0.93438076 
   31900    210.25124   -475.57511    133823.85   -41497.437    2615.9252   -44113.362     22.45023   0.93326783 
   32000    212.81738   -386.53511    133632.18   -41489.305    2647.8528   -44137.158    22.259857   0.93460642 
   32100     214.5126   -305.71774    133557.83    -41494.69    2668.9446   -44163.634    22.275036   0.93512668 
   32200    214.44087   -274.31334    133621.99   -41491.786    2668.0521   -44159.838     22.35204   0.93467768 
   32300      212.055   -380.91028    133677.46   -41483.687    2638.3673   -44122.055    22.329918   0.93428981 
   32400    211.27216   -354.31644    133493.68    -41542.02    2628.6273   -44170.647    22.474348   0.93557608 
   32500    209.35418   -361.40083    133535.29   -41557.315     2604.764   -44162.079    22.563387   0.93528456 
   32600    205.29054   -370.59564    133573.54   -41491.284    2554.2046   -44045.488    22.642946   0.93501671 
   32700    209.23951   -304.61454    133573.93   -41548.646    2603.3373   -44151.983    22.537924   0.93501401 
   32800    210.43869    -360.6306    133673.77   -41590.204    2618.2574   -44208.462       22.712   0.93431559 
   32900    209.07131   -267.27023    133616.81   -41591.752    2601.2446   -44192.997    22.633854   0.93471393 
   33000    205.31672   -377.27379    133731.56   -41642.194    2554.5303   -44196.724    22.802324   0.93391184 
   33100     212.1261   -265.70004    133766.89   -41568.934    2639.2519   -44208.186     22.80522   0.93366519 
   33200    209.81892   -344.20493    133920.28   -41600.712    2610.5463   -44211.258    22.808486   0.93259577 
   33300    209.23085   -318.34694    133831.59   -41544.112    2603.2296   -44147.342    22.751463   0.93321386 
   33400    209.29346   -344.22931     133825.2   -41625.006    2604.0086   -44229.015    22.850479    0.9332584 
   33500     207.6627   -117.63765    133997.86    -41589.07    2583.7188   -44172.789    22.903503   0.93205588 
   33600    208.19292   -322.55695    134089.99   -41555.372    2590.3158   -44145.688    22.874039   0.93141549 
   33700    212.47539   -268.40796    134018.44   -41551.619    2643.5978   -44195.216    23.005705   0.93191271 
   33800    209.64706   -432.57158    134063.96   -41545.902     2608.408    -44154.31    23.114564   0.93159632 
   33900    211.98534   -451.86519    134001.12   -41554.947    2637.5007   -44192.447    23.139205   0.93203321 
   34000    209.87848   -428.23499    133901.76   -41526.346    2611.2873   -44137.633    23.122477   0.93272476 
   34100    209.46138   -236.91968    133890.37   -41553.423    2606.0978   -44159.521    23.011716   0.93280413 
   34200    208.95546   -490.66364     133977.4   -41552.812    2599.8031   -44152.615    23.177244   0.93219819 
   34300    207.99745   -362.42637    133961.33   -41606.095    2587.8837   -44193.978    22.990436   0.93231003 
   34400    212.28921   -226.17969       133892   -41544.748    2641.2813   -44186.029    23.140506   0.93279275 
   34500    211.29817   -229.71161    133971.62   -41566.376    2628.9509   -44195.326    23.189964   0.93223839 
   34600    210.64122   -410.56451    133999.25   -41554.366    2620.7773   -44175.143    23.248139   0.93204619 
   34700    205.66551   -371.50245    133898.53   -41637.056      2558.87   -44195.926     23.23899    0.9327473 
   34800    208.99533   -410.76054       133935   -41616.271    2600.2992    -44216.57    23.341577   0.93249332 
   34900    203.59636   -385.22806    134025.65   -41633.366    2533.1258   -44166.491    23.249073   0.93186263 
   35000     201.4029   -270.55342    133891.68   -41705.619    2505.8349   -44211.454     23.26316   0.93279501 
   35100    209.56255   -204.87331     133913.9     -41649.6    2607.3565   -44256.956    23.319923   0.93264025 
   35200    209.20365   -327.98046    133841.11   -41652.868    2602.8912   -44255.759    23.238123   0.93314743 
   35300    209.55447   -240.92743    133930.19   -41644.517     2607.256   -44251.773    23.338373   0.93252683 
   35400    207.38102   -425.13265    134005.41   -41672.692    2580.2142   -44252.907    23.432126   0.93200334 
   35500    209.72365   -443.21694    134065.39   -41573.553    2609.3609   -44182.914     23.51376   0.93158638 
   35600     208.4026   -307.83125    133976.79   -41604.601    2592.9246   -44197.526    23.563376   0.93220243 
   35700    207.09583   -362.21488    133882.21   -41554.836    2576.6659   -44131.502    23.793177   0.93286102 
   35800    211.99362   -317.69038    133845.18   -41581.783    2637.6036   -44219.386    23.762356   0.93311908 
   35900    212.45672    -199.0789    133904.89   -41535.573    2643.3655   -44178.938    23.791901     0.932703 
   36000    209.75933   -272.14153    133976.63   -41504.528    2609.8049   -44114.333    23.674018   0.93220358 
   36100    211.99177   -346.11054    134083.15   -41525.802    2637.5807   -44163.383    23.563352   0.93146301 
   36200    209.38084   -437.86987    133978.87   -41567.024    2605.0957   -44172.119    23.625621   0.93218797 
   36300    207.37462   -468.70733    134003.81   -41609.882    2580.1345   -44190.017    23.761903   0.93201446 
   36400    214.97749    -291.4678    133990.82   -41562.756    2674.7286   -44237.484    23.751397   0.93210483 
   36500    209.44191   -324.57155    134016.59   -41553.724    2605.8555   -44159.579    23.842476   0.93192562 
   36600    207.75855   -355.02889    133961.17   -41680.528    2584.9113   -44265.439    23.759561   0.93231115 
   36700    206.16649   -301.93046    134034.98   -41631.961    2565.1031   -44197.064    23.832378   0.93179774 
   36800    208.29527   -346.17691    134142.83   -41627.677    2591.5891   -44219.266    23.825904    0.9310486 
   36900    206.12981   -199.05972    134119.63   -41651.218    2564.6467   -44215.865    23.826787   0.93120965 
   37000    212.66666    -326.1826    134091.95    -41599.42    2645.9775   -44245.398    23.927641   0.93140183 
   37100    213.90563   -397.51806    134085.79   -41578.375    2661.3928   -44239.768    24.022698   0.93144468 
   37200    210.90462   -219.26095    134263.03   -41640.073    2624.0544   -44264.127    24.169333   0.93021504 
   37300    208.55391   -374.14599    134232.82   -41650.932    2594.8071   -44245.739    24.184805   0.93042441 
   37400    208.66665   -330.71204    134342.31   -41682.256    2596.2098   -44278.466    24.202922   0.92966608 
   37500    206.44786   -277.33284    134344.42   -41699.035    2568.6039   -44267.639    24.023671   0.92965153 
   37600    209.89856   -367.56842    134457.14   -41654.349    2611.5372   -44265.886    24.063135   0.92887212 
   37700    210.10721   -340.86206     134291.2    -41675.79    2614.1331   -44289.923    24.024889   0.93001992 
   37800    204.20554   -375.21435    134183.94   -41778.968    2540.7052   -44319.673    24.088634   0.93076336 
   37900    211.68958   -293.12644    134388.04   -41744.092    2633.8209   -44377.913    24.174383   0.92934975 
   38000     208.6277   -372.99307    134171.07   -41715.907    2595.7252   -44311.632    24.148577   0.93085261 
   38100    208.69437   -325.10718    134353.09   -41675.345    2596.5547     -44271.9     24.16832   0.92959152 
   38200     211.9674   -324.23867    134378.66   -41688.174    2637.2774   -44325.451    24.199643   0.92941462 
   38300    212.72866   -316.00479    134310.53   -41628.997    2646.7489   -44275.746    24.200844   0.92988609 
   38400    211.32658   -227.08131    134367.39   -41690.281    2629.3045   -44319.585    24.211171   0.92949256 
   38500    207.35428    -370.7532    134396.18   -41707.042    2579.8815   -44286.923    24.340865   0.92929347 
   38600    209.76964   -353.25199    134363.89   -41670.629    2609.9331   -44280.562    24.260301   0.92951679 
   38700    208.97321   -381.10368    134257.02   -41676.141     2600.024   -44276.165    24.293155    0.9302567 
   38800    209.89873   -345.30089    134409.35   -41692.941    2611.5392    -44304.48     24.36961   0.92920244 
   38900    210.76361   -378.91772    134284.03   -41654.697       2622.3   -44276.997    24.305027   0.93006958 
   39000    208.46059   -352.12596    134239.83   -41696.333    2593.6461   -44289.979    24.279428   0.93037582 
   39100    210.42501   -409.56688    134183.96   -41650.706    2618.0871   -44268.793    24.398629   0.93076317 
   39200    209.31776   -291.30344    134212.43   -41683.281    2604.3109   -44287.591    24.444473   0.93056579 
   39300     209.9415   -443.40376    134243.75    -41681.17    2612.0714   -44293.242    24.308478   0.93034866 
   39400    211.32029   -218.15449    134316.11   -41647.216    2629.2261   -44276.442    24.481729   0.92984741 
   39500      211.589   -350.81732    134378.61   -41631.929    2632.5694   -44264.498    24.538235   0.92941494 
   39600    212.56778   -286.65307    134444.35   -41674.487    2644.7473   -44319.234    24.438012   0.92896049 
   39700    210.86595   -353.82112    134510.47   -41623.184    2623.5733   -44246.757    24.507242   0.92850388 
   39800    207.17678   -328.44845    134505.79   -41679.418     2577.673   -44257.091    24.427155   0.92853615 
   39900    206.55298   -221.82968    134558.92   -41720.765    2569.9117   -44290.677    24.663228   0.92816954 
   40000    205.27191    -335.6484    134467.46   -41756.485    2553.9728   -44310.458    24.571833   0.92880086 
   40100    214.68046   -408.92332    134521.78   -41669.534     2671.033   -44340.568     24.72429   0.92842582 
   40200    207.19036   -294.59579    134481.31   -41695.799     2577.842   -44273.641    24.623005   0.92870519 
   40300    213.04225   -338.04734    134413.06   -41686.073    2650.6506   -44336.724    24.438319   0.92917679 
   40400    209.28718   -288.29729    134441.94   -41604.609    2603.9304    -44208.54    24.393398   0.92897716 
   40500    213.94833   -375.21499    134532.43   -41612.185     2661.924   -44274.109    24.555778    0.9283523 
   40600     212.1649   -351.78345    134323.59   -41659.733    2639.7348   -44299.468    24.464554   0.92979567 
   40700    211.60843   -361.29922    134282.51   -41700.968    2632.8112   -44333.779    24.565573   0.93008008 
   40800    206.67817   -357.85181    134309.78   -41750.091    2571.4693   -44321.561     24.68834   0.92989126 
   40900     206.6914   -299.02448    134346.59   -41772.911     2571.634   -44344.545    24.728232   0.92963646 
   41000    210.87463   -296.67305     134540.4   -41696.331    2623.6813   -44320.012    24.576571   0.92829731 
   41100    211.00042   -387.19248    134411.88   -41682.462    2625.2463   -44307.708    24.653064   0.92918489 
   41200    209.16369   -275.20999    134469.79   -41692.057     2602.394   -44294.451    24.581933   0.92878473 
   41300    207.05717   -255.12332    134508.02    -41834.07    2576.1849   -44410.255    24.714845   0.92852075 
   41400    208.14243   -294.37327    134534.68   -41781.557    2589.6876   -44371.245    24.685395   0.92833675 
   41500    208.75441   -321.11204    134583.44     -41779.1    2597.3018   -44376.402    24.708579   0.92800047 
   41600    204.46695   -551.42662    134500.38   -41739.558    2543.9576   -44283.516    24.684503    0.9285735 
   41700    206.18989   -463.82277    134365.09   -41724.286    2565.3943    -44289.68    24.638785   0.92950849 
   41800    207.91564   -476.00716    134358.95   -41741.609    2586.8659   -44328.475    24.730477   0.92955093 
   41900    208.43828   -332.49697       134349   -41716.927    2593.3685   -44310.296    24.649866    0.9296198 
   42000      209.794   -401.92408    134390.42   -41710.109    2610.2362   -44320.345    24.733718   0.92933329 
   42100      212.954   -155.03627    134573.92   -41708.802    2649.5526   -44358.354    24.909441   0.92806611 
   42200    209.95522   -248.16233    134581.15   -41674.477     2612.242   -44286.719    24.956841    0.9280162 
   42300    211.57951   -427.45716    134571.29   -41653.444    2632.4514   -44285.895    24.965417    0.9280842 
   42400    211.99542   -298.85047    134520.77   -41689.096     2637.626   -44326.722     24.98397   0.92843277 
   42500    212.20992   -381.67356    134573.08   -41687.322    2640.2948   -44327.617    24.932106   0.92807191 
   42600     205.6846   -396.10651    134624.56   -41685.046    2559.1075   -44244.154    24.875316   0.92771697 
   42700    211.43957   -367.88084    134460.37   -41685.334    2630.7103   -44316.044    24.771624   0.92884984 
   42800    213.27514   -302.57039    134479.13   -41631.926    2653.5483   -44285.474    24.965074   0.92872023 
   42900    208.69593    -543.5354    134377.37   -41709.586    2596.5741    -44306.16    25.006097   0.92942352 
   43000    211.85574   -131.06898    134350.54   -41741.516    2635.8882   -44377.404    24.875946   0.92960915 
   43100    213.47221   -277.63413    134527.12   -41713.151    2656.0001   -44369.152    24.862584   0.92838898 
   43200    210.44248   -392.91397    134559.43   -41687.754    2618.3045   -44306.059    24.934103   0.92816601 
   43300    209.15596   -245.31379    134531.35   -41704.917    2602.2977   -44307.215    25.003721   0.92835975 
   43400    214.42365   -340.55397    134696.09   -41658.814    2667.8378   -44326.651     25.03985   0.92722436 
   43500    213.95407   -346.52471    134664.54    -41677.32    2661.9954   -44339.316    24.928239   0.92744157 
   43600     217.4049   -400.80464    134667.54   -41587.278    2704.9303   -44292.209    24.806101   0.92742088 
   43700     212.9543   -262.96837    134595.84   -41621.655    2649.5563   -44271.212    25.023657   0.92791496 
   43800     205.2918   -376.77877    134536.72   -41618.631    2554.2203   -44172.851    25.151291   0.92832272 
   43900    211.31412   -402.61133    134609.61   -41655.855    2629.1493   -44285.004    25.130669   0.92782005 
   44000    212.23206   -376.93115    134635.22   -41692.977    2640.5704   -44333.548    25.073495   0.92764353 
   44100    212.17482   -420.62392    134572.59   -41712.151    2639.8582    -44352.01    25.059353   0.92807526 
   44200    210.37095   -299.19759    134584.49    -41749.22    2617.4146   -44366.635    25.111225   0.92799322 
   44300    209.01097   -466.92087    134462.97   -41754.691    2600.4938   -44355.185    25.127118   0.92883185 
   44400    209.44924   -303.87063    134430.11   -41723.897    2605.9468   -44329.844    25.172329   0.92905894 
   44500    208.25869   -381.30572    134375.67   -41745.171    2591.1341   -44336.305    25.161591   0.92943528 
   44600    207.21305   -367.38326    134260.33    -41801.44    2578.1243   -44379.564    25.062543   0.93023373 
   44700    206.31719   -333.84276    134344.26   -41764.635    2566.9781   -44331.613    25.072394   0.92965262 
   44800    206.81526   -298.36654    134377.43    -41724.22     2573.175   -44297.395    24.997512   0.92942315 
   44900    211.46453   -411.31345    134430.27   -41684.299    2631.0207    -44315.32     24.90586   0.92905779 
   45000    208.43607    -414.6299    134508.57   -41690.438     2593.341   -44283.779    25.032547   0.92851696 
   45100    212.15071   -355.59013    134457.53   -41638.602    2639.5582   -44278.161    25.215181   0.92886944 
   45200    213.00676   -368.10616    134443.68   -41703.146    2650.2091   -44353.355    25.431443   0.92896512 
   45300    209.34534   -378.90691    134483.29   -41716.171     2604.654   -44320.825    25.496864   0.92869153 
   45400    210.69539   -326.40955    134576.37   -41698.009    2621.4512    -44319.46    25.419635   0.92804917 
   45500    210.45268    -319.4425    134571.24   -41707.769    2618.4314   -44326.201     25.24994   0.92808456 
   45600    209.33955   -307.36211    134505.78   -41714.003     2604.582   -44318.585    25.222235   0.92853624 
   45700     209.9477   -307.52089     134528.1   -41721.493    2612.1485   -44333.642    25.358585   0.92838217 
   45800    212.61311    -224.8699    134503.89   -41674.771    2645.3113   -44320.082    25.493825   0.92854932 
   45900    212.96639   -306.52394    134682.55   -41611.798    2649.7067   -44261.505    25.583171   0.92731756 
   46000    212.98529    -307.8683    134626.42    -41591.16    2649.9419   -44241.102    25.663152   0.92770417 
   46100    214.28908   -220.13979    134723.93   -41552.093    2666.1636   -44218.256    25.602886   0.92703273 
   46200    214.59052   -286.55931    134656.36   -41564.951     2669.914   -44234.865    25.553943   0.92749789 
   46300    213.22544   -410.63674     134617.4    -41593.89    2652.9299    -44246.82    25.382149   0.92776632 
   46400    210.94775   -359.62489    134608.52   -41630.614     2624.591   -44255.205    25.420937   0.92782756 
   46500    211.73959   -270.00504    134741.76   -41632.297    2634.4431    -44266.74    25.688743   0.92691005 
   46600    213.46083   -462.47611    134741.01    -41629.76    2655.8586   -44285.618     25.74318   0.92691521 
   46700    213.09582    -364.9666    134702.97   -41713.331    2651.3171   -44364.648    25.837657   0.92717695 
   46800    205.54497   -409.10032    134639.21   -41771.102    2557.3701   -44328.473    25.872532   0.92761604 
   46900    211.78101   -227.77301    134679.23   -41701.591    2634.9584   -44336.549    25.571849   0.92734043 
   47000    207.30978   -254.29474    134847.45   -41681.425    2579.3278   -44260.753    25.469463   0.92618359 
   47100    217.15044   -299.25692    134912.36   -41666.445    2701.7643   -44368.209    25.633799   0.92573798 
   47200    211.53647   -301.83655    134867.21   -41716.328    2631.9158   -44348.244    25.724304   0.92604788 
   47300    211.21964   -454.63559    134857.35   -41733.319    2627.9739   -44361.293    25.755771   0.92611555 
   47400     209.7434   -386.38268     134812.2   -41686.887    2609.6066   -44296.494    25.767603   0.92642575 
   47500    211.39633   -469.90666     134852.9   -41639.624    2630.1723   -44269.797    25.715519   0.92614612 
   47600    212.14957   -352.38028    134768.99   -41606.275     2639.544   -44245.819    25.759204   0.92672279 
   47700    211.19533   -423.95592    134684.26   -41649.261    2627.6714   -44276.932    25.785728    0.9273058 
   47800    212.92071   -376.20292    134799.28   -41651.928    2649.1384   -44301.066    25.660995   0.92651453 
   47900    209.34121   -335.59885    134916.19   -41737.333    2604.6027   -44341.935    25.835085   0.92571164 
   48000      209.133   -432.79792    134849.07   -41758.764    2602.0121   -44360.776    26.024867   0.92617243 
   48100     208.4341   -362.74131    134612.33   -41721.306    2593.3165   -44314.622    25.900169   0.92780128 
   48200    207.78392   -267.35423    134742.64   -41753.402     2585.227   -44338.629    25.911036     0.926904 
   48300     210.5643   -277.20978    134807.34   -41736.207    2619.8202   -44356.027     25.84716   0.92645915 
   48400    216.76304   -436.21061    134775.23    -41656.44    2696.9443   -44353.384    25.632457   0.92667985 
   48500    210.46061   -395.92395    134783.94    -41723.12      2618.53    -44341.65    25.709867   0.92661996 
   48600    213.97308   -387.27304    134817.09   -41731.061    2662.2319   -44393.293    25.818295    0.9263921 
   48700    211.72616    -353.2379    134865.35   -41705.841     2634.276   -44340.117     26.06951   0.92606064 
   48800    210.31926   -311.54388    134807.52   -41737.808    2616.7715    -44354.58    26.065149    0.9264579 
   48900    208.25089   -415.55483    134770.85   -41723.364     2591.037   -44314.401     25.98186   0.92670997 
   49000     211.0189   -323.14991    134829.55   -41765.227    2625.4763   -44390.704    25.671801    0.9263065 
   49100     210.5734   -186.50202    134846.16   -41756.732    2619.9335   -44376.665    25.825559   0.92619241 
   49200    207.48273   -424.87139    134808.89   -41771.508    2581.4797   -44352.987    25.900909    0.9264485 
   49300    213.46486   -307.94925    134863.03   -41711.279    2655.9087   -44367.187     26.11536   0.92607656 
   49400    208.36912   -354.59099    135019.69   -41683.918     2592.508   -44276.426    26.126432   0.92500208 
   49500     211.0884   -277.50571    134923.86   -41695.142     2626.341   -44321.483    26.175171   0.92565907 
   49600    212.38743   -347.23749    135026.49   -41697.734    2642.5033   -44340.238    26.071504   0.92495548 
   49700    211.18989   -409.98919     134946.7   -41720.223    2627.6038   -44347.827    26.009738    0.9255024 
   49800    207.45845   -276.32547    135072.75   -41765.544    2581.1775   -44346.721    25.949724   0.92463868 
   49900    210.46326   -343.46506    135168.31   -41664.458     2618.563   -44283.021     26.00841   0.92398498 
   50000     210.5177   -460.96345    135065.81   -41712.909    2619.2404   -44332.149    26.293845   0.92468622 
   50100    205.77643   -300.77311    135068.47   -41723.596      2560.25   -44283.846    26.403678   0.92466797 
   50200    211.44924   -454.52079    135012.01   -41762.202    2630.8306   -44393.033    26.340126   0.92505464 
   50300    211.04782   -311.69121    134934.66   -41732.408    2625.8361   -44358.244    26.117847   0.92558498 
   50400    212.36795   -381.02901    134941.95    -41754.27    2642.2611   -44396.531    26.043747   0.92553497 
   50500    207.39636   -340.91596    134733.84   -41793.049     2580.405   -44373.454    26.068936   0.92696456 
   50600    208.71612   -317.47124     134748.5   -41806.811    2596.8253   -44403.637    26.144414   0.92686369 
   50700     205.3583   -294.03386    134676.93   -41821.489    2555.0477   -44376.537    26.086504   0.92735624 
   50800    208.71955    -457.7346    134592.13   -41815.194     2596.868   -44412.062    26.018328   0.92794051 
   50900    208.55778   -462.04853    134696.92   -41734.877    2594.8553   -44329.733    26.158344   0.92721858 
   51000     211.7187   -339.71461    134674.25   -41772.986    2634.1832   -44407.169    26.280774   0.92737469 
   51100    210.12345   -350.63517    134878.09   -41797.073    2614.3352   -44411.408    26.297071   0.92597314 
   51200    209.57217   -318.14043    134842.02   -41793.001    2607.4762   -44400.477    26.254579   0.92622086 
   51300    205.82355   -301.56338    134916.72   -41842.087    2560.8362   -44402.923    26.103618   0.92570802 
   51400    205.89765   -397.88897    135027.14    -41845.42    2561.7582   -44407.178    26.162814   0.92495102 
   51500    207.33373   -344.63825    135010.63   -41845.224    2579.6257    -44424.85    26.329666   0.92506413 
   51600    212.27991   -401.35724    135121.21   -41789.114    2641.1657    -44430.28    26.503197    0.9243071 
   51700    210.85113   -325.57874    134965.34   -41779.812    2623.3889     -44403.2    26.489378   0.92537452 
   51800    210.57904   -346.67164    135065.46   -41821.125    2620.0036   -44441.129    26.329956   0.92468859 
   51900    210.54117   -413.08728    135111.87    -41854.22    2619.5324   -44473.753    26.377053   0.92437097 
   52000    206.92372   -324.01978    135038.46    -41877.21    2574.5244   -44451.735    26.424578    0.9248735 
   52100    209.16611    -285.0755    135061.23   -41831.855     2602.424   -44434.279    26.524481   0.92471753 
   52200    207.00233   -284.61744    135137.57   -41858.049    2575.5025   -44433.551    26.484076   0.92419516 
   52300    207.43689   -309.19842    135225.37   -41845.257    2580.9093   -44426.167    26.623684   0.92359514 
   52400    214.16757   -356.25232    135135.71   -41786.203    2664.6518   -44450.854    26.513024   0.92420792 
   52500    208.56665   -390.77091    135187.51   -41777.381    2594.9657   -44372.347    26.501526   0.92385376 
   52600    208.95188   -440.52303    135123.06    -41800.45    2599.7587   -44400.209    26.623789   0.92429442 
   52700    209.55715   -441.01041    134999.46   -41822.111    2607.2893   -44429.401    26.550967   0.92514066 
   52800    207.94071    -356.5967    135023.58   -41779.514    2587.1778   -44366.692    26.551844   0.92497541 
   52900     213.6627   -170.91731    135068.44    -41786.02    2658.3702   -44444.391    26.653108    0.9246682 
   53000    207.91249   -368.26896    134973.42   -41765.021    2586.8267   -44351.848    26.599719   0.92531912 
   53100    212.48893   -498.06452    134958.76   -41817.511    2643.7663   -44461.277    26.597742    0.9254197 
   53200    212.69071   -338.70551    134910.32   -41821.172    2646.2768   -44467.449    26.552013   0.92575197 
   53300    207.39616   -339.04194    134920.25   -41821.451    2580.4026   -44401.853    26.521037   0.92568383 
   53400    207.68438   -388.53126    134946.81   -41896.983    2583.9885   -44480.972    26.457701    0.9255016 
   53500    209.39034   -354.14839    134925.55   -41893.373    2605.2139   -44498.587    26.476639   0.92564745 
   53600      205.348   -166.33033    135061.44   -41890.046    2554.9195   -44444.965    26.483641   0.92471611 
   53700    206.80703   -281.24798     135195.4   -41922.576    2573.0726   -44495.649    26.533252   0.92379988 
   53800    209.26598   -360.65626    135207.69   -41807.528    2603.6666   -44411.194     26.70438   0.92371587 
   53900    208.91443   -297.77772    135150.28   -41852.583    2599.2926   -44451.876    26.649235   0.92410827 
   54000    211.12156   -349.25371     135121.7   -41828.913    2626.7536   -44455.666    26.507668   0.92430373 
   54100    210.54328   -320.76245    135214.64   -41850.536    2619.5587   -44470.094    26.529813   0.92366843 
   54200    210.04743   -369.10249    135146.77   -41837.601    2613.3893    -44450.99    26.528371   0.92413229 
   54300    208.04136   -353.60869    135089.04   -41818.598    2588.4301   -44407.028    26.487238   0.92452717 
   54400    209.01536   -382.62831    135124.78   -41848.794    2600.5484   -44449.342    26.640206   0.92428268 
   54500    211.46368   -405.35786    135214.88   -41826.655    2631.0103   -44457.665    26.774399   0.92366678 
   54600    209.99113   -488.60543     135060.6   -41731.463    2612.6888   -44344.152    26.657851    0.9247219 
   54700    211.81583   -342.22838    135216.18   -41742.627    2635.3916   -44378.018    26.638265   0.92365786 
   54800    209.98871   -323.51956    135216.05   -41814.701    2612.6587    -44427.36    26.583208   0.92365875 
   54900    210.84296   -312.44527    135091.83   -41859.111    2623.2872   -44482.398    26.619785   0.92450811 
   55000    208.09205     -438.594    135199.97   -41914.077    2589.0607   -44503.137     26.55639   0.92376865 
   55100    205.55531   -294.72764    135213.22   -41882.321    2557.4988    -44439.82    26.618733    0.9236781 
   55200    209.17094    -317.1921    135181.93   -41874.458    2602.4842   -44476.943    26.789386   0.92389189 
   55300    212.58034   -380.16975    135220.72    -41827.13    2644.9036   -44472.033    26.811482   0.92362689 
   55400    207.87541   -341.74522    135094.42   -41806.808    2586.3654   -44393.173    26.612625   0.92449038 
   55500    208.91499    -286.7766     135242.9   -41753.819    2599.2996   -44353.119    26.604582   0.92347539 
   55600    211.71411   -481.23536    135226.23   -41787.073     2634.126   -44421.199    26.676128   0.92358926 
   55700    210.72508     -278.692    135180.59   -41784.899    2621.8206   -44406.719    26.835388   0.92390107 
   55800    209.73769    -375.6312    135206.67    -41799.39    2609.5356   -44408.926    26.780827   0.92372283 
   55900    210.30315   -372.54785    135141.75   -41774.448     2616.571   -44391.019    26.861034    0.9241666 
   56000    213.73508   -256.51078    135084.96   -41766.139    2659.2708    -44425.41    26.775182   0.92455509 
   56100    213.52853   -368.15213    135060.24   -41729.905    2656.7009   -44386.606    26.679824   0.92472437 
   56200    210.54394   -295.24093    134839.54   -41733.472    2619.5669   -44353.039    26.751192   0.92623791 
   56300    210.07295   -334.80866    135039.54   -41767.164    2613.7069   -44380.871    26.911897   0.92486608 
   56400    212.15189   -308.18161    135058.06   -41759.098    2639.5728    -44398.67    26.777219    0.9247393 
   56500    208.64466   -462.84642    135071.33   -41844.275    2595.9363   -44440.211    26.823746   0.92464839 
   56600    208.92222   -265.73013    135080.95   -41863.545    2599.3896   -44462.934    26.958997   0.92458259 
   56700    206.60784   -292.98983    135092.41   -41900.017    2570.5943   -44470.612    26.965282   0.92450412 
   56800    211.28401   -309.17367    135124.92   -41831.256    2628.7747    -44460.03    26.873033   0.92428171 
   56900    209.67821   -225.57255    135124.79    -41817.68    2608.7956   -44426.475     26.80915   0.92428259 
   57000    213.97535   -552.98385    135100.65   -41766.499    2662.2602   -44428.759    26.878271   0.92444775 
   57100    212.24086   -194.50942     135102.4   -41816.736    2640.6799   -44457.416    26.762678    0.9244358 
   57200    211.95684    -239.5819    135099.29   -41869.968     2637.146   -44507.114    27.024616   0.92445707 
   57300    209.60273   -338.66995    135163.71   -41916.173    2607.8564   -44524.029    26.975881   0.92401642 
   57400    206.83601   -464.06771     135132.2   -41931.033    2573.4332   -44504.466    27.094147   0.92423189 
   57500    205.00104   -332.66134    135044.18    -41974.57    2550.6027   -44525.173    27.055528    0.9248343 
   57600    210.03129   -404.66107    135167.85    -41926.89    2613.1885   -44540.079    26.999724   0.92398818 
   57700     204.3108   -371.73063    135182.68   -41964.451    2542.0148   -44506.466    27.057279   0.92388678 
   57800    206.31717   -410.58036    135103.37   -41984.892    2566.9778    -44551.87    26.894128   0.92442915 
   57900    207.96047   -338.24689    135034.49   -41960.962    2587.4236   -44548.386    26.948194   0.92490069 
   58000    202.99902    -468.6318    135019.47   -41951.864    2525.6938   -44477.557    26.943738   0.92500357 
   58100    212.08634   -424.49647    135017.16   -41890.231    2638.7573   -44528.988    26.994198   0.92501937 
   58200     209.2941   -191.33824    135024.17   -41830.757    2604.0165   -44434.773    27.173983   0.92497137 
   58300    209.01379   -392.74486    135057.57   -41774.162    2600.5289   -44374.691    27.223673   0.92474261 
   58400    213.52146   -311.70497    135107.39   -41774.734    2656.6129   -44431.347    27.111255   0.92440163 
   58500    210.93156   -355.51095    135155.42   -41778.581    2624.3896   -44402.971    27.015101   0.92407312 
   58600    211.37336   -335.63727     135239.5   -41749.164    2629.8864   -44379.051    27.137323   0.92349859 
   58700    212.25102   -372.63933    135239.65    -41751.82    2640.8062   -44392.627    27.212385    0.9234976 
   58800    213.50315   -423.97617     135163.4   -41800.786    2656.3851   -44457.171    27.276747   0.92401858 
   58900     207.8865   -381.75997     135085.3   -41848.666    2586.5033    -44435.17    27.381282   0.92455278 
   59000    207.85432   -369.63561    135113.94   -41827.247    2586.1029    -44413.35    27.268024   0.92435681 
   59100    211.71266   -213.93092    135141.39   -41834.045     2634.108   -44468.153    27.209584   0.92416907 
   59200    209.65854   -429.90541    134992.41   -41855.527    2608.5508   -44464.078    27.153201   0.92518901 
   59300    210.33989   -338.76949    135016.89   -41849.246    2617.0281   -44466.274    27.320054   0.92502124 
   59400    210.03718   -321.32781    135033.59   -41894.756    2613.2619   -44508.017     27.27566   0.92490682 
   59500     210.7782   -372.22057    135119.05   -41865.759    2622.4816   -44488.241    27.276175   0.92432185 
   59600    212.10178   -392.02846    135091.37   -41856.007    2638.9494   -44494.957    27.350929   0.92451128 
   59700    210.30307   -348.08693    135022.22   -41884.181      2616.57   -44500.751    27.413123   0.92498474 
   59800    212.10102   -307.92997     135059.3   -41888.881      2638.94   -44527.821    27.314995   0.92473081 
   59900    209.45426   -323.58907    135085.13   -41857.937    2606.0092   -44463.946    27.348128   0.92455396 
   60000    207.00598   -381.69057    135100.69   -41888.877     2575.548   -44464.425    27.523533   0.92444744 
   60100    206.94772   -501.19212    135103.65   -41847.055    2574.8231   -44421.878    27.452595   0.92442721 
   60200    205.59175     -339.907    135007.35   -41832.126    2557.9523   -44390.079    27.322223   0.92508659 
   60300    210.66501   -377.87377    134963.93   -41798.329    2621.0732   -44419.403    27.314953   0.92538424 
   60400    211.25351   -407.90403     134926.8   -41750.099    2628.3953   -44378.494    27.334305   0.92563884 
   60500    211.43359   -278.88724    134984.78   -41772.398    2630.6359   -44403.034    27.359762    0.9252413 
   60600    210.26044   -253.51557    135029.57    -41827.01    2616.0396    -44443.05    27.370435   0.92493436 
   60700    208.81507   -357.62007     134817.5   -41846.161    2598.0564   -44444.217    27.434324   0.92638928 
   60800    215.09537   -399.85179     134922.9   -41808.277    2676.1953   -44484.472    27.502877   0.92566564 
   60900    213.52471   -366.38504    134974.22   -41806.103    2656.6534   -44462.757    27.454741   0.92531365 
   61000    208.73736   -427.63749    134989.96   -41843.484    2597.0896   -44440.574    27.605441   0.92520576 
   61100    207.54558    -434.9117     134888.6   -41878.433    2582.2615   -44460.694    27.549872   0.92590101 
   61200    205.69134   -434.17859    134861.68    -41868.93    2559.1914   -44428.122    27.479987   0.92608586 
   61300    207.64852   -240.81254    134717.17   -41847.648    2583.5424   -44431.191    27.370418   0.92707924 
   61400    210.67557   -269.18706    134721.22   -41877.551    2621.2047   -44498.755    27.439757   0.92705135 
   61500    207.35859   -264.90058    134849.15   -41870.794    2579.9351   -44450.729    27.574649   0.92617188 
   61600    208.14764   -322.63831    134872.68     -41829.1    2589.7524   -44418.852    27.559786   0.92601033 
   61700     204.8609   -415.68604     134852.3   -41895.123     2548.859   -44443.982    27.453328   0.92615023 
   61800    204.06884   -218.46351    134948.71   -41954.397    2539.0044   -44493.401    27.344954   0.92548857 
   61900    204.10922   -261.61392    135111.71   -41892.116    2539.5067   -44431.623    27.499172   0.92437206 
   62000    206.66628   -363.38665    135201.08   -41851.997    2571.3214   -44423.319    27.541372   0.92376103 
   62100    209.26556   -246.01991    134974.05   -41873.889    2603.6614    -44477.55    27.677379   0.92531487 
   62200    211.95503   -460.90139    135093.32   -41835.192    2637.1236   -44472.316     27.62745   0.92449793 
   62300    209.58289   -333.39281    135128.83   -41880.078    2607.6096   -44487.688    27.679155   0.92425493 
   62400    210.53951   -292.19918       135096    -41824.82    2619.5117   -44444.331    27.618567   0.92447956 
   62500    211.34418   -332.79443    134923.07   -41832.464    2629.5234   -44461.988    27.646166   0.92566448 
   62600    209.73871   -374.31436    134959.18   -41831.374    2609.5483   -44440.922    27.778328   0.92541681 
   62700    207.91104   -316.10026    134901.93   -41844.873    2586.8086   -44431.681    27.890448   0.92580952 
   62800     212.4948   -341.24136     134966.2   -41829.424    2643.8394   -44473.263    27.740901   0.92536868 
   62900    207.83759   -383.42418    134966.06   -41781.861    2585.8947   -44367.756    27.685687   0.92536963 
   63000     213.0998     -412.084    135003.44   -41745.463    2651.3666    -44396.83    27.798397   0.92511337 
   63100    210.93736   -369.27763    135044.97   -41736.303    2624.4618   -44360.765     27.76307   0.92482893 
   63200     208.8161   -314.51266    134914.72   -41769.643    2598.0693   -44367.713    27.865151   0.92572175 
   63300    210.73599   -231.50619    134980.52   -41798.389    2621.9564   -44420.345    27.841794   0.92527045 
   63400    210.86301   -419.50798     134916.1   -41725.703    2623.5368    -44349.24    27.755443   0.92571228 
   63500    214.05999   -384.77604    134995.76   -41818.449    2663.3132   -44481.762    27.880065   0.92516604 
   63600    206.70629   -361.14758    134827.38   -41820.923    2571.8192   -44392.742    27.788813   0.92632146 
   63700    206.74332   -376.34273    134717.95   -41819.852    2572.2799   -44392.132    27.926422   0.92707385 
   63800    206.35987   -269.52709    134830.93   -41916.068    2567.5092   -44483.577    27.892039   0.92629703 
   63900    207.31886   -309.23187     134643.1   -41897.432    2579.4408   -44476.873     27.86273   0.92758926 
   64000    205.69834   -292.66678    134503.61   -41888.169    2559.2784   -44447.447    27.713146    0.9285512 
   64100    210.92678   -254.72707    134480.82   -41803.563    2624.3301   -44427.893    27.754953   0.92870855 
   64200    211.42741   -324.72874    134675.91   -41798.059    2630.5589   -44428.618    27.694448   0.92736325 
   64300    210.68507   -486.52408    134620.48    -41718.83    2621.3229   -44340.153    27.571499   0.92774509 
   64400    211.34712   -463.87697    134603.87   -41744.222      2629.56   -44373.782    27.599971   0.92785956 
   64500    214.21157   -257.20322    134486.56   -41727.468    2665.1992   -44392.667    27.676333   0.92866891 
   64600     210.8418   -240.85601    134735.85   -41778.827    2623.2728     -44402.1    27.970755   0.92695074 
   64700    211.94409   -417.29419    134828.44   -41794.678    2636.9874   -44431.666    27.982225   0.92631417 
   64800    206.54119   -376.38984    134681.52   -41814.715     2569.765    -44384.48     27.89602   0.92732461 
   64900    210.47819   -268.20302     134700.3   -41787.023    2618.7488   -44405.772    27.761838   0.92719538 
   65000    212.82225   -412.32826    134668.07   -41756.777    2647.9134   -44404.691    27.742583   0.92741727 
   65100    208.97121   -417.53455    134467.81   -41781.756    2599.9992   -44381.755    27.727723    0.9287984 
   65200    215.17911   -340.97669    134464.72   -41768.834    2677.2372   -44446.072    27.957994   0.92881979 
   65300    211.92239   -329.79785     134534.6    -41771.86    2636.7175   -44408.578    27.928731   0.92833731 
   65400    212.48471   -281.17009    134566.97   -41710.072    2643.7138   -44353.786    27.907496   0.92811403 
   65500    209.99643   -330.33514    134654.47   -41769.819    2612.7548   -44382.574     27.95979   0.92751095 
   65600    208.38611   -457.20399    134596.04     -41796.7    2592.7194   -44389.419    27.878719   0.92791356 
   65700    208.05576   -406.74193    134538.07   -41840.205    2588.6092   -44428.814    27.773003   0.92831339 
   65800    210.83865   -328.73746    134638.56    -41841.66    2623.2337   -44464.894    27.934599    0.9276205 
   65900    207.78047   -350.70504    134540.12    -41819.52     2585.184   -44404.704    27.950729   0.92829925 
   66000    211.59878   -377.48827    134469.48   -41734.188    2632.6911   -44366.879    28.074658   0.92878686 
   66100    208.82939   -469.31028    134548.99    -41690.17    2598.2346   -44288.404    28.033484   0.92823804 
   66200    212.54713   -452.23176    134583.56   -41669.384    2644.4903   -44313.875    28.089559   0.92799959 
   66300    210.51538   -446.44438     134500.5   -41701.805    2619.2116   -44321.017    27.994326   0.92857268 
   66400    210.15188   -281.83922    134614.68   -41748.571    2614.6889    -44363.26    28.084289   0.92778506 
   66500    212.23704   -304.85372    134519.39   -41760.973    2640.6322   -44401.605    28.004212   0.92844227 
   66600    209.76913   -230.54745    134692.77   -41781.408    2609.9267   -44391.335    28.047076    0.9272472 
   66700    210.23266   -171.54803    134694.93   -41821.126     2615.694    -44436.82    28.023663   0.92723232 
   66800    210.92748   -318.75402     134809.4   -41772.012    2624.3388   -44396.351    28.097579   0.92644494 
[...]
   84600    205.35588   -350.76473    134690.96   -41976.938    2555.0176   -44531.956    30.362232   0.92725966 
   84700    207.19804   -341.40732    134674.09   -41989.745    2577.9375   -44567.682    30.306896   0.92737582 
   84800    207.69983   -325.42408    134715.95   -41961.993    2584.1808   -44546.174    30.212471   0.92708764 
   84900    209.04531   -261.44038     134789.4   -41933.334    2600.9211   -44534.255    30.351524   0.92658246 
   85000    209.76714   -427.03609    134674.13   -41882.993     2609.902   -44492.895    30.410283   0.92737555 
   85100    208.65311   -314.11118    134762.26    -41890.48    2596.0413   -44486.521    30.478291   0.92676906 
   85200    210.55807   -306.37177    134817.07   -41899.129    2619.7427   -44518.872    30.530365   0.92639228 
   85300    207.93789   -269.13611    134748.55     -41924.4    2587.1427   -44511.543    30.464468   0.92686337 
   85400    207.65205    -433.5535    134790.89   -41912.639    2583.5863   -44496.225    30.520381   0.92657222 
   85500    210.88892   -410.55126    134815.28   -41881.194    2623.8591   -44505.053    30.392876   0.92640456 
   85600    207.13927   -392.07872    134633.26   -41860.755    2577.2063   -44437.961    30.244378   0.92765701 
   85700    209.66858    -306.7422    134624.51   -41893.768    2608.6757   -44502.444    30.368241   0.92771736 
   85800    207.25798   -331.52488    134734.47   -41900.315    2578.6833   -44478.998    30.447026   0.92696022 
   85900    211.52989   -358.32934    134775.53   -41799.504     2631.834   -44431.338    30.407481   0.92667781 
   86000    211.57955   -403.33319    134789.17   -41854.392    2632.4518   -44486.844    30.408638   0.92658399 
   86100    210.51876    -407.9333    134711.24   -41838.518    2619.2536   -44457.772    30.316052   0.92712004 
   86200    209.98804   -323.72205    134546.02   -41813.009    2612.6504    -44425.66    30.362067   0.92825853 
   86300    209.61421   -305.67549    134547.68   -41847.196    2607.9992   -44455.196    30.423232    0.9282471 
   86400    210.59248   -213.02606    134546.73   -41866.942    2620.1708   -44487.113    30.339312   0.92825364 
   86500    209.44379   -283.97123    134488.25   -41851.103    2605.8789   -44456.981    30.470029   0.92865726 
   86600    207.93124   -443.16024       134556   -41789.592    2587.0599   -44376.652    30.680504   0.92818969 
   86700    209.16995   -357.39794    134606.32   -41783.665    2602.4719   -44386.137    30.577399   0.92784267 
   86800    209.49757   -415.59931    134538.99   -41848.497    2606.5481   -44455.045      30.4676   0.92830704 
   86900    213.37482   -200.08493     134604.8   -41817.187    2654.7884   -44471.975    30.473679   0.92785318 
   87000    213.55754   -402.58048    134709.76   -41817.076    2657.0617   -44474.138    30.454929    0.9271302 
   87100    211.37918    -345.7531    134652.92   -41847.571    2629.9588    -44477.53    30.490379    0.9275216 
   87200    210.09654   -330.09511    134599.51   -41834.781    2614.0004   -44448.782    30.612308   0.92788962 
   87300    207.39743    -257.1502    134660.77   -41832.252    2580.4183   -44412.671    30.721006   0.92746752 
   87400    207.77315   -290.20388    134519.56   -41837.363     2585.093   -44422.456    30.704005   0.92844112 
   87500    210.80377    -282.0352    134582.69   -41845.922    2622.7996   -44468.721    30.677058   0.92800558 
   87600     207.7642   -418.37206    134622.06   -41849.828    2584.9817   -44434.809     30.75172   0.92773419 
   87700    208.95562   -318.50071       134594   -41852.409    2599.8051   -44452.214    30.645955   0.92792762 
   87800    209.27117   -451.47889    134708.29   -41838.298    2603.7313   -44442.029    30.656779   0.92714032 
   87900    210.53547   -315.81822     134755.7   -41848.014    2619.4616   -44467.475    30.729524   0.92681418 
   88000    206.38027   -350.99633       134784   -41861.896    2567.7629   -44429.659    30.799537   0.92661955 
   88100    212.81318   -238.16423    134861.29   -41801.647    2647.8005   -44449.447    30.854817   0.92608851 
   88200    212.38443    -438.7426    134833.65   -41793.126    2642.4661   -44435.593    30.820624   0.92627838 
   88300    210.88285   -396.01938    134898.16   -41823.346    2623.7835   -44447.129    30.767944   0.92583541 
   88400    205.46427   -317.21151    134682.35   -41922.998    2556.3661   -44479.364    30.793346   0.92731894 
   88500    209.31347   -378.11413    134748.79   -41826.728    2604.2575   -44430.985    30.935636   0.92686166 
   88600     211.8878   -208.53998    134774.55   -41784.341     2636.287   -44420.628      30.7913   0.92668454 
   88700    209.55067   -315.25204    134748.06   -41766.417    2607.2088   -44373.626    30.849069    0.9268667 
   88800    212.82978   -360.09564    134621.55   -41707.268    2648.0071   -44355.275    30.894753   0.92773773 
   88900    211.95547   -321.65044    134676.23     -41754.3     2637.129   -44391.429    30.829607   0.92736109 
   89000    213.32587   -270.58491    134929.55   -41740.913    2654.1794   -44395.093    30.946434   0.92562003 
   89100    209.83555   -394.58423     134903.4   -41850.136    2610.7532   -44460.889    31.061151   0.92579945 
   89200    208.20547   -417.25941    134962.94   -41887.772    2590.4719   -44478.244    31.243815   0.92539098 
   89300    209.26251   -310.13789    134805.26   -41903.846    2603.6235   -44507.469    30.990808   0.92647341 
   89400     205.9493      -392.51    134799.64   -41929.035    2562.4008   -44491.436    31.022469   0.92651207 
   89500    202.70827    -426.8356    134697.31    -41954.52    2522.0762   -44476.597    31.020359    0.9272159 
   89600    203.51722    -252.8642    134755.47   -41985.323    2532.1412   -44517.464    31.073257   0.92681573 
   89700    208.19947   -404.21572    134794.97   -41954.765    2590.3972   -44545.162    31.148261   0.92654416 
   89800    210.47861   -251.11813    134741.24   -41920.588    2618.7541   -44539.342    31.004021   0.92691363 
   89900    203.32655   -356.07369    134744.93   -41973.546    2529.7688   -44503.315    31.182112   0.92688822 
   90000    209.32037   -288.87585    134812.92   -41890.525    2604.3434   -44494.868    31.194483   0.92642079 
   90100     205.6627   -354.52653    134964.87   -41900.883     2558.835   -44459.718    31.175224    0.9253778 
   90200    207.30135   -461.94995    134927.44   -41939.275    2579.2229   -44518.498    31.261182   0.92563449 
   90300     203.1104   -366.66735    134843.57   -41943.805    2527.0795   -44470.884    31.221833    0.9262102 
   90400    208.30106   -411.89132    134837.56   -41930.911    2591.6612   -44522.572    31.190758   0.92625153 
   90500    208.41395   -390.70655    134848.25   -41897.934    2593.0658       -44491    31.395705   0.92617805 
   90600    211.42028   -390.31686    134891.85    -41819.65    2630.4703   -44450.121    31.305645   0.92587869 
   90700    208.83167   -254.77749    134922.63    -41812.96     2598.263   -44411.223    31.386893   0.92566749 
   90800    210.86835   -345.74545    134965.71   -41842.809    2623.6032   -44466.412    31.285942   0.92537203 
   90900    207.17305   -414.41798    134921.19   -41930.634    2577.6267    -44508.26    31.334947   0.92567739 
   91000    207.82191   -257.85079    134914.21   -41938.024    2585.6997   -44523.723    31.445139   0.92572526 
   91100    209.93291   -309.50007    134909.65   -41924.839    2611.9645   -44536.804    31.367353   0.92575656 
   91200    208.78792   -261.90268    135069.88   -41898.996    2597.7187   -44496.715    31.424424   0.92465834 
   91300     212.4249   -379.23298    135207.15   -41815.237    2642.9695   -44458.206    31.475139   0.92371955 
   91400    210.04147   -466.15952    135175.48   -41809.024    2613.3153   -44422.339    31.572949     0.923936 
   91500    209.21413   -257.21605    135110.12   -41824.742    2603.0215   -44427.763    31.362622   0.92438293 
   91600    212.27218   -415.15249    134899.79   -41856.231    2641.0694     -44497.3    31.384295   0.92582419 
   91700    212.91747   -266.50253    134910.98   -41933.346    2649.0982   -44582.444    31.510778   0.92574738 
   91800    210.11258   -344.62166    134921.63   -41896.985    2614.1999   -44511.185    31.578269   0.92567432 
   91900    210.37628   -263.76359    134950.01   -41897.974    2617.4808   -44515.455    31.535654   0.92547968 
   92000    211.31765   -236.98622    134852.17    -41916.61    2629.1933   -44545.803    31.531949   0.92615117 
   92100    207.48875   -375.36591    134920.55   -41954.042    2581.5545   -44535.596    31.563098   0.92568173 
   92200    213.89203   -282.24208    135040.55   -41893.582    2661.2235   -44554.805    31.556433   0.92485919 
   92300    207.96809   -282.00469    134875.66   -41810.775    2587.5185   -44398.293    31.544107   0.92598986 
   92400    214.08361   -426.50806    134808.36   -41820.411    2663.6071   -44484.018    31.537633   0.92645215 
   92500    212.14606   -273.01386    134949.23   -41857.049    2639.5003   -44496.549     31.40112     0.925485 
   92600    212.76575   -287.52631     135042.5   -41830.619    2647.2104   -44477.829    31.469893   0.92484584 
   92700    213.13562   -130.55396    135119.29   -41828.855    2651.8123   -44480.668    31.569647   0.92432019 
   92800    211.78575   -316.95521    135105.86   -41876.014    2635.0174   -44511.031     31.70968   0.92441209 
   92900    210.53739   -258.42653    135219.72   -41843.277    2619.4854   -44462.762    31.777818   0.92363373 
   93000    213.03108   -224.33058    135074.52   -41873.715    2650.5117   -44524.227    31.673875   0.92462655 
   93100    212.40076   -375.82036    135152.16   -41805.889    2642.6692   -44448.558    31.613916   0.92409538 
   93200    212.56742   -298.44668    135032.01   -41816.196    2644.7429   -44460.938    31.623695   0.92491765 
   93300    211.53328   -373.27586    134895.37   -41840.194    2631.8762    -44472.07    31.639402   0.92585454 
   93400     207.4339   -390.97614    134883.48   -41876.276    2580.8721   -44457.148     31.53343   0.92593614 
   93500    207.44587   -351.20381     134907.9   -41911.807     2581.021   -44492.828     31.76409   0.92576857 
   93600    204.71002   -445.57887    134859.37   -41973.082    2546.9818   -44520.064    31.738619    0.9261017 
   93700    206.33347   -289.73565    134810.96   -41931.476    2567.1806   -44498.657    31.685593   0.92643427 
   93800    207.93813   -368.53773    134730.91    -41893.77    2587.1457   -44480.915    31.691249   0.92698467 
   93900    207.81851    -353.4695    134777.71   -41873.102    2585.6574   -44458.759     31.72759    0.9266628 
   94000    210.23934   -292.06906    134667.15   -41874.296    2615.7771   -44490.073     31.73382   0.92742359 
   94100    205.17165   -389.89723     134719.1    -41859.84    2552.7254   -44412.565      31.8693   0.92706592 
   94200    208.41278   -376.12207    134839.22   -41849.798    2593.0512   -44442.849    31.796968   0.92624009 
   94300    209.10843     -424.087    134683.98   -41798.887    2601.7064   -44400.593    31.678555   0.92730771 
   94400    211.77348   -292.13297    134742.06   -41784.604    2634.8648   -44419.469     31.86803   0.92690798 
   94500    215.00292   -253.15384     134702.4   -41732.227    2675.0451   -44407.272    31.915229    0.9271809 
   94600    211.38781    -154.8161    134824.32   -41772.492    2630.0662   -44402.558    31.894439   0.92634243 
   94700    213.36186   -460.53933       134739    -41822.04    2654.6271   -44476.667    31.794717   0.92692906 
   94800    211.29768   -387.03957    134737.96   -41816.066    2628.9448   -44445.011    31.863461   0.92693621 
   94900    206.14558   -391.19373    134739.49   -41789.197     2564.843    -44354.04    31.957662   0.92692563 
   95000     210.3124   -418.09951    134843.42    -41777.54    2616.6861   -44394.226    32.024205   0.92621123 
   95100    213.61748   -442.27018    134786.41   -41778.048    2657.8075   -44435.855    31.948777   0.92660303 
   95200    212.05582   -259.54486    134714.84   -41808.038    2638.3775   -44446.416    31.855986    0.9270953 
   95300    216.13819   -353.04031    134747.87   -41711.494    2689.1699   -44400.664    31.968054   0.92686802 
   95400    210.50201   -404.14573    134646.66   -41772.493    2619.0452   -44391.538    31.931112   0.92756473 
   95500    211.30447   -395.11232    134744.99   -41783.619    2629.0293   -44412.648    31.951807   0.92688784 
   95600    211.78303   -498.79058    134826.48   -41777.586    2634.9835   -44412.569    31.796728   0.92632761 
   95700    211.01029   -352.72291    134863.52   -41836.028    2625.3691   -44461.397    31.881502   0.92607321 
   95800     210.2425   -347.16368    134811.19   -41882.146    2615.8164   -44497.963    31.952122   0.92643264 
   95900    207.59825   -425.69223    134794.87   -41830.014    2582.9169   -44412.931    32.104997   0.92654487 
   96000    206.51488   -391.51873    134788.61    -41910.71    2569.4377   -44480.148    32.061611   0.92658784 
   96100    210.57931   -320.10239    134769.36   -41863.253    2620.0069    -44483.26    31.931008   0.92672024 
   96200    207.78754   -400.30582    134699.61   -41893.086    2585.2721   -44478.358     31.82315   0.92720008 
   96300    209.86542   -273.14778    134835.26   -41841.372    2611.1248   -44452.496    31.971963   0.92626726 
   96400    213.05867   -275.34001    134855.68   -41825.836    2650.8549   -44476.691    32.064687   0.92612707 
   96500    206.46674   -221.76951    134790.98   -41869.628    2568.8388   -44438.467    32.228838   0.92657158 
   96600     208.7717   -290.19684    134828.39   -41870.254    2597.5169   -44467.771    32.204572    0.9263145 
   96700     206.6098   -319.68465     134825.8   -41946.801    2570.6187    -44517.42    32.135695   0.92633229 
   96800    202.69982   -307.68394    134870.08   -41992.749    2521.9711    -44514.72     32.21242   0.92602818 
   96900    205.15602   -473.65864    134809.72   -41923.969    2552.5309   -44476.499    32.164481   0.92644276 
   97000    206.12207   -416.43829    134806.37   -41920.228    2564.5505   -44484.778    32.179777    0.9264658 
   97100    206.74934   -230.33991    134733.87   -41909.166    2572.3548   -44481.521    32.283969   0.92696433 
   97200    210.46493   -238.01199     134783.6   -41923.059    2618.5839   -44541.643    32.185408   0.92662231 
   97300    207.21838   -345.98069    134738.87   -41924.941    2578.1906   -44503.132     32.25087   0.92692991 
   97400    209.82681   -304.16125     134743.7   -41932.534    2610.6445   -44543.178    32.237636   0.92689672 
   97500    209.52057    -320.7977    134823.11   -41843.374    2606.8342   -44450.209    32.099276   0.92635079 
   97600    211.08455   -236.72717    134825.52   -41912.426     2626.293   -44538.719    32.253445   0.92633419 
   97700    208.65204   -395.27619    134743.33    -41846.04     2596.028   -44442.068     32.35646   0.92689924 
   97800    210.02469   -326.67632    134685.05    -41832.77    2613.1065   -44445.876    32.378277   0.92730036 
   97900    212.66425   -295.98425    134640.66   -41810.468    2645.9476   -44456.416    32.250369   0.92760605 
   98000    210.02061   -277.06277    134659.18   -41833.391    2613.0557   -44446.446    32.285138    0.9274785 
   98100    207.55606   -420.31216    134732.53   -41904.649    2582.3919   -44487.041    32.372733   0.92697352 
   98200     208.1716   -345.24989    134629.79   -41882.622    2590.0505   -44472.673    32.248487   0.92768097 
   98300    207.22918   -354.40619    134533.62    -41893.87     2578.325   -44472.195    32.100006   0.92834406 
   98400    206.43982   -430.73958    134651.12   -41902.599    2568.5039   -44471.103    32.400236   0.92753402 
   98500     212.7601   -363.64704    134530.58   -41897.865    2647.1401   -44545.005    32.443376    0.9283651 
   98600    208.36223   -383.19874    134544.53    -41922.48    2592.4223   -44514.902    32.587065   0.92826881 
   98700    207.53216   -299.52397     134639.1   -41975.652    2582.0946   -44557.746    32.510551   0.92761678 
   98800    210.07231   -284.23115    134646.39   -41946.463    2613.6989   -44560.162    32.563311   0.92756659 
   98900    207.07466   -327.47143    134638.27   -41949.139    2576.4025   -44525.542    32.478177   0.92762249 
   99000    203.18021   -249.82701    134625.28   -41981.354    2527.9481   -44509.302    32.453477   0.92771204 
   99100    209.02312   -336.58826     134671.3   -41901.882     2600.645   -44502.527    32.386321   0.92739502 
   99200    206.01014   -277.94213    134841.77   -41892.335    2563.1578   -44455.493    32.486112    0.9262226 
   99300    212.14878   -451.69034    134723.03   -41854.715    2639.5342    -44494.25    32.451108   0.92703891 
   99400     213.9792    -355.4897    134807.06   -41826.116    2662.3081   -44488.424    32.519227   0.92646105 
   99500    216.39015   -335.90333    134820.23   -41722.177    2692.3049   -44414.482     32.51233   0.92637056 
   99600    214.06289   -389.74034    135028.07   -41752.528    2663.3494   -44415.877    32.527817   0.92494468 
   99700    214.92777   -352.89149    134939.34   -41771.444      2674.11   -44445.554    32.613578   0.92555285 
   99800    207.99118   -381.99444    134991.04   -41789.979    2587.8057   -44377.785    32.504714   0.92519836 
   99900    213.52825   -396.39561    134925.15   -41847.923    2656.6974    -44504.62    32.484324   0.92565017 
  100000     209.4418   -379.13171    134898.44   -41854.289    2605.8542   -44460.143    32.418934   0.92583347 
  100100    209.42334   -159.18312    134799.02   -41788.026    2605.6245   -44393.651    32.517631   0.92651633 
  100200    212.44532   -347.50206    134945.07   -41793.138    2643.2237   -44436.362     32.67478   0.92551356 
  100300    213.51912   -265.63509    134940.49    -41780.61    2656.5838   -44437.194    32.652985   0.92554497 
  100400    211.84714   -351.61841    134897.24   -41815.471    2635.7812   -44451.253    32.491984   0.92584168 
  100500    213.77837   -334.54865    134931.59   -41742.365    2659.8093   -44402.174    32.425581   0.92560604 
  100600     209.2777   -239.41044    135064.44    -41820.56    2603.8124   -44424.372    32.439408   0.92469556 
  100630     213.7648   -362.03122    135071.97   -41809.761    2659.6405   -44469.402    32.460526     0.924644 
Loop time of 71.358 on 6 procs for 100000 steps with 4175 atoms

Performance: 605.398 ns/day, 0.040 hours/ns, 1401.385 timesteps/s
98.5% CPU use with 6 MPI tasks x no OpenMP threads

MPI task timing breakdown:
Section |  min time  |  avg time  |  max time  |%varavg| %total
---------------------------------------------------------------
Pair    | 56.122     | 57.287     | 59.681     |  15.1 | 80.28
Neigh   | 4.7127     | 4.7357     | 4.7538     |   0.7 |  6.64
Comm    | 4.4326     | 6.8211     | 7.9954     |  43.7 |  9.56
Output  | 0.1588     | 0.15968    | 0.16307    |   0.4 |  0.22
Modify  | 1.7386     | 1.7581     | 1.7742     |   0.8 |  2.46
Other   |            | 0.5969     |            |       |  0.84

Nlocal:        695.833 ave         704 max         688 min
Histogram: 1 1 0 0 1 0 2 0 0 1
Nghost:        1447.17 ave        1464 max        1425 min
Histogram: 1 0 0 0 2 0 1 0 1 1
Neighs:        0.00000 ave           0 max           0 min
Histogram: 6 0 0 0 0 0 0 0 0 0
FullNghs:      18800.7 ave       19030 max       18552 min
Histogram: 2 0 0 1 0 0 0 0 2 1

Total # of neighbors = 112804
Ave neighs/atom = 27.018922
Neighbor list builds = 5169
Dangerous builds = 0

undump              1
unfix               2
unfix               3
unfix               4


################################################
#######         Run Simulation         #########
################################################

reset_timestep      0
log                 log.run_${NAME}
log                 log.run_liquid_density_MLmW
