LAMMPS data file via write_data, version 29 Oct 2020, timestep = 800000

4175 atoms
1 atom types

-0.09189345479720856 50.09189345479699 xlo xhi
-0.09189345479720856 50.09189345479699 ylo yhi
-0.09189345479720856 50.09189345479699 zlo zhi

Masses

1 18.015

Atoms # atomic

1257 1 48.469895016406085 0.9971772230275759 5.231219207727287 -1 0 1
2986 1 2.4686078713840827 3.0617832100849482 3.6946172395647334 1 1 1
3625 1 9.769442233197228 3.076127717633924 4.998948260800784 0 1 1
2644 1 4.315371475726563 1.36309242327118 13.111191685371871 0 1 0
1359 1 29.2134991897131 0.42813793288489843 12.479545159600342 0 -1 1
3663 1 18.597311964982417 1.114787928881437 1.4350029410900453 0 1 0
3051 1 23.951516284533557 2.3455044819771373 2.1876834444947915 -1 1 1
1658 1 25.539445748007854 4.303193591417106 4.94976310930821 0 1 1
1323 1 28.456869271755785 2.0497501689657858 2.7355924615603944 -1 0 1
682 1 28.783075904131273 0.19897236909079835 1.098950572742386 -1 -1 0
2038 1 32.55353478615583 2.1939375610259186 1.0091243304011583 0 0 -1
3759 1 35.403021030862774 2.267936210226999 0.4768314808068834 0 0 1
268 1 19.83445125164428 19.408408659554468 0.5312544183392837 1 0 1
888 1 45.13577131570984 9.755404464248345 1.028529734818413 0 0 1
1679 1 37.59035248773053 22.542516641303234 0.6623155867468746 0 -1 1
1311 1 42.8586121129879 24.706397961239357 5.747285671667383 0 0 0
1001 1 48.01388852049427 1.4620241407156989 1.0493584101711548 0 0 1
1978 1 28.843735371089092 14.531528201903454 0.8634263330867611 1 -1 1
2160 1 7.2719872823671645 5.7727798811883115 1.0231123733247733 1 1 0
3170 1 9.944534778854864 2.6383967463155944 2.1098456373536916 0 0 0
1406 1 11.511260531050402 5.0213820549848664 2.7689821400669232 1 0 1
2368 1 5.983489881465322 23.855618335461887 0.5220850919082253 0 1 0
3448 1 21.544047147856812 5.425289384572051 1.6715504159041155 0 1 0
3103 1 22.67478571779836 22.588226296645708 1.6425323871453947 1 1 1
484 1 22.390884431164245 4.133363424917122 3.7344918968460905 0 -1 0
1342 1 48.91465506413468 22.499451423919982 0.018999767167131115 -1 0 2
784 1 21.16394400260623 9.438038074281557 0.34694035738774165 0 0 1
4134 1 26.822454020590364 4.145724442905763 2.1786252892433517 0 1 0
3291 1 40.759882530847406 2.6333221528068687 0.27466711044170683 0 1 1
2696 1 30.522680848205265 5.958800517946185 2.3684725409752083 -1 1 0
684 1 33.20522167384854 6.375073614627218 1.4144412885688624 0 0 0
401 1 37.21569663013031 5.298236285820715 2.6940466695074257 0 0 2
2248 1 39.81060199509733 5.775175030340305 0.30818748294424225 0 0 0
1589 1 10.569974198363411 11.33660528552974 -0.034013334079026236 0 0 1
1140 1 30.334208447155408 17.449707511886515 0.08454369419843752 0 0 0
2070 1 0.8740350720886668 23.830566386335338 5.874672192387431 1 0 1
1704 1 45.01352259485139 4.735771438454332 1.8443285835247676 0 0 0
3695 1 20.587959144348325 14.877771108726849 1.0877068024214114 0 0 1
3888 1 43.60372777886749 0.2589775038462562 1.1792256574146796 -1 1 1
2958 1 19.306634917161468 24.789434440478 16.100552966470758 0 0 0
1738 1 9.020029248024944 9.488812438537055 1.274124661275808 -1 1 -1
3837 1 10.553944240738367 7.00029218631348 1.0540293029855574 0 0 1
1203 1 13.124157798410861 8.053547522721596 1.8868002915626554 0 1 1
1713 1 15.590636802794641 6.533264543684553 1.4941339002513276 1 -1 2
2017 1 19.25642472913409 7.8014875258921865 2.2523211795669438 1 0 2
2177 1 25.749695197534916 0.499926686532703 0.6404905169626466 -1 1 -1
389 1 23.201993969595815 7.526640636386102 0.8892971179033607 0 -1 0
1460 1 24.36320056810582 8.148724387879879 3.2459698172944464 -1 0 2
2085 1 26.88808004312598 6.806521199556678 3.403373098440792 -1 0 1
507 1 30.730436678976368 9.9692853316911 3.239298132771516 -1 -1 0
2904 1 7.726352694816347 23.43104414081496 4.197792572657075 1 1 0
3674 1 37.3597318898985 7.94799516322384 2.525721882605902 0 0 0
443 1 43.929962235334976 0.30204540618364345 11.862348615260272 0 0 -1
1780 1 40.4105873928946 20.672829331272286 0.7778620741525604 0 0 2
2090 1 46.14185494615348 6.988495213338358 0.40231403400217236 -1 1 0
2580 1 0.6148834498501565 9.790222380635269 0.9734826018926723 0 1 0
2779 1 4.999650869361566 9.553185876216784 0.44264591204829673 0 1 0
3386 1 7.928927885362459 12.61534564295811 3.7911704889274214 1 1 0
433 1 44.88307464758637 12.410818528455442 0.48865163360372665 0 0 0
976 1 35.2322865466568 0.1647946591966774 4.813041050282773 -1 1 -1
2569 1 17.673284769261976 10.118991994177225 1.6848114172316218 0 1 0
3979 1 43.33693205649722 23.319041711247287 15.388344232633793 0 0 1
1019 1 19.640225749448497 11.902318808075483 2.249458013110331 0 0 1
3959 1 24.63252565334844 24.73005146352563 5.5752627240742365 0 0 0
175 1 29.275470801112544 10.294018249385985 0.8262720871061618 0 -1 0
2164 1 12.491606025180706 24.215353261843987 15.790076324212528 0 0 0
2566 1 33.59996305377033 10.041604425808128 3.267277280621156 0 1 -1
1876 1 0.48277930500375943 23.97557939713056 8.736813425962042 1 0 0
1221 1 40.4680887976952 12.289184243620968 1.8814552387751142 -1 0 0
3120 1 1.5128705005294318 16.0959716558128 15.145192652793018 0 1 1
1293 1 14.223685474624991 17.39516191260163 0.2363775561659922 1 0 0
4036 1 0.9685545923107777 13.476380619614506 0.7844209089540791 1 1 2
1167 1 4.7972737307487465 13.950195843930864 3.164017225175173 0 0 1
3431 1 6.736374549031575 13.333954478213785 1.4532594436847541 1 0 0
2251 1 7.252758696611799 15.911446655231892 0.607651534273877 -1 0 0
1643 1 11.353257881965733 13.62133832685731 1.3375779705353321 1 1 1
3903 1 9.911464535270197 15.806756814119455 0.4001715570026045 0 0 1
1925 1 29.007472610990146 5.120056866533951 0.30007493813993036 -1 0 1
2773 1 19.065974948500212 13.253348424691927 4.567143646476353 0 0 0
356 1 25.60738227609644 12.617458617132224 1.9784192036227197 0 0 1
168 1 24.80509003287949 15.865998280816504 2.772295798258045 1 1 1
353 1 28.12907810592939 12.28546530762866 2.4861907754208676 0 0 0
3320 1 33.59606150359919 13.63041645890126 3.08445989944105 0 0 1
3359 1 5.2984168728490015 24.260046909192653 11.132309976532603 0 1 1
918 1 38.200305699282396 13.971142605664788 1.7891090056980943 0 0 0
2026 1 36.10187924523171 13.990726436512022 3.788219867964332 -1 0 0
2625 1 42.96222805223876 13.80249453548199 1.9929960046131954 0 0 1
3556 1 16.886262719467574 11.0821272165206 15.003688877921428 0 0 1
2122 1 13.216167669063145 9.998311878128682 0.3902779838855731 0 1 0
1281 1 47.4329882822882 13.195465854015787 1.5962000364922315 0 0 1
1897 1 40.81218171727383 24.263817909927788 8.51690836376948 0 0 0
3058 1 34.35767520281371 13.382184694929457 16.073713901715273 0 1 0
3841 1 5.40913497031729 16.47298880783969 4.490932561486022 1 1 1
1848 1 7.1341635693942616 17.598852859475457 2.6122898250889297 0 0 1
591 1 48.552019003302775 0.4109659442294582 7.854777644872191 -1 0 1
1513 1 14.741567141065818 23.36511470916394 12.34438383081974 0 0 1
4027 1 17.548982795382706 14.241041461512884 1.9365923576652162 0 1 1
2069 1 21.764772676639737 16.038658450004963 3.111340955626143 1 0 0
2583 1 25.494024144074643 18.495806266045275 1.9607748009005652 0 0 1
2257 1 28.456870134761047 18.66472877955795 3.2994440670264256 0 0 0
2128 1 38.506415955787 0.6842307104094271 6.649116381790565 0 1 0
3570 1 32.98924288507128 16.715418922105812 0.453833075321064 -1 1 1
12 1 34.49191583198143 18.7219178650121 4.427626073402287 0 0 0
2683 1 34.516700078524536 19.24765173634656 1.4135748810650375 0 0 0
1657 1 0.9014015332052246 3.305598997643427 0.22839295370991902 1 0 0
4033 1 46.32739553239596 24.98879213353985 11.49292092755066 0 0 1
4074 1 42.115504627378115 16.351925574346474 1.1891443550055878 0 0 1
737 1 46.58636831600811 16.678598871389266 3.680778231215419 -1 0 1
2850 1 47.17151261783659 16.1255710721158 0.9316907807877712 -1 0 0
501 1 4.2558752674316755 19.488287673115643 0.7823250315280067 0 0 -1
2361 1 7.299292830223303 19.464251681561883 0.3297501257732836 0 1 -1
816 1 12.394934974745397 21.484430794121376 1.3020908378136806 1 0 1
2513 1 20.79895603502582 24.43063254447406 0.3512344758967724 -1 0 0
3657 1 21.179558275314832 18.66291968508086 3.0630494565680553 0 1 1
2327 1 18.37941701946274 21.245450231190677 2.4996909454997005 0 1 1
169 1 23.624056512989373 20.361941755751882 3.186508447184803 0 0 0
1784 1 47.35294743680678 24.678538295833064 4.294138431858822 -1 0 0
3031 1 26.93147808428231 21.07310011631289 2.0637246351477385 -1 0 0
673 1 29.74319606877469 21.564606028632305 2.4691322344718536 1 -1 0
2881 1 31.431976654278145 19.28310522731855 2.369512855022859 -1 0 -1
3686 1 37.07480648330295 18.10473149708823 0.7820815172074609 -1 1 1
3664 1 40.917323106641945 18.83947625542068 4.075434001797124 0 0 1
561 1 33.449343035202325 13.12785526940195 0.5211195820454632 -1 0 0
1151 1 42.3285405690199 19.028631648348302 1.9399693508591853 -1 0 1
2851 1 48.399891530703904 19.820957686548944 0.47894017334920425 -1 0 0
4026 1 29.161400885693563 24.093624939372276 12.573534672768128 0 -1 1
1053 1 0.8377421749083477 22.585286821837233 1.9810976875244992 0 -1 1
3641 1 3.7911925782949933 22.120578677375057 1.232695806366993 0 0 1
2530 1 12.071640643229115 24.233457790240085 0.11332926056613424 1 0 -1
4160 1 8.238637786356565 21.914678118956488 1.9550661602844626 0 0 1
2745 1 38.138523357180496 24.982134570585377 15.97487104504189 0 0 0
1126 1 7.215780553684414 8.178698848247917 -0.09124384681189415 1 0 1
911 1 15.754589750008556 22.684682088987167 4.034665627299417 1 0 0
1388 1 19.55454926110933 0.015370248432617473 3.829809952170331 -1 0 0
1836 1 29.014839112864138 24.72867813483355 8.729386651829731 0 1 0
764 1 48.047950515576616 4.506373393779898 0.20012166433579703 0 1 0
2573 1 31.823158035812487 8.76072505361114 0.431557034300209 0 1 1
3436 1 3.3924427918741435 24.374157578703592 5.149501431951008 0 1 -1
3608 1 33.647103061252594 22.943472770803094 2.5278496702105495 -1 0 0
2661 1 6.607707805779818 24.399906949399778 8.913505733508845 1 0 0
1540 1 36.140718165024296 23.79461648520577 2.553871404234327 1 0 0
281 1 45.7919569557606 19.173982156531313 1.1747739461657287 0 0 1
562 1 40.18098772215319 23.309541510365918 2.3802753863478605 0 0 1
2622 1 13.03978016333666 1.3110793862558026 15.73086601510537 -1 1 0
2738 1 45.27890243644878 21.56017032340777 3.2220947552508554 0 1 0
1489 1 4.799048464306711 4.403945172012723 0.7107495383331937 1 1 1
1047 1 29.574724407051253 0.5450415999188997 7.77956353596607 -1 1 0
1910 1 50.01902608109032 1.43511981804115 2.9169329773783534 -1 0 1
1367 1 6.918010283878961 1.1589960007430788 2.0709357607859626 0 1 0
2689 1 6.897664661659176 2.606425321315176 4.721843757804512 1 1 0
87 1 12.538445145398727 1.4907519285283175 5.401432011798113 0 0 0
391 1 12.672547740392385 1.742307469070163 2.386819857953516 1 1 -1
1385 1 16.081769305256582 1.876622976111952 4.563177407071486 0 0 0
2081 1 27.288674287649496 17.1964655120364 0.18171918462948689 1 0 1
3029 1 20.924946614036386 1.9724698139804575 5.18620974745234 -1 1 0
1833 1 25.21436352243175 1.415281289036498 4.446759249513609 0 0 1
197 1 28.204651377936845 1.2999485588405273 5.279733989168737 0 0 0
263 1 25.7706672027838 1.4825876822500148 9.173013234534038 1 0 0
1116 1 33.2199660447151 0.8472319147226783 6.481665955355675 -1 0 0
435 1 43.71655020226342 2.9032376481291635 0.13073195795533618 -1 0 0
510 1 35.721707843882 2.9335104324400922 3.3532049756301014 0 1 0
808 1 42.17171890885872 1.536064434170429 4.746017873980198 1 1 1
376 1 43.07718263987846 4.71892344012431 3.9763392615960917 -1 0 0
1330 1 45.78285172800411 0.3354034438614853 4.930550561253112 -1 1 0
529 1 2.291107097857953 5.253355003794067 8.40539147504111 1 0 0
1532 1 4.877022960649126 4.164930645740053 3.6159524774954965 0 0 1
1372 1 7.582436822510797 5.1898032282528845 6.1426873795568735 0 1 0
1526 1 11.076008364884215 5.508571696922366 5.709729709363918 0 -1 1
3775 1 14.4146135308682 4.1760796231045285 2.318143133674637 0 0 1
3404 1 18.114639073137024 5.135165941490456 1.8594290279441195 0 1 1
414 1 18.195718134613024 3.539840551713407 4.034694591239185 0 1 0
3003 1 27.184589813228712 3.144900071663549 6.975369874432453 -1 1 0
588 1 31.100118745617646 3.2406384588136796 3.1150110307622336 0 0 0
1006 1 33.186250011182175 3.37477736979158 5.1741805580521545 -1 0 1
631 1 34.71403641908863 7.49764439357347 3.624198715918918 0 -1 0
1283 1 35.547102892358524 4.966618665701468 5.471054361270241 -2 0 0
4097 1 40.04295367568655 5.542723741645638 3.3311404342254844 0 1 0
3825 1 40.29703084281557 2.864381392777546 3.191173899421895 0 0 1
3069 1 49.2211941990073 4.505209991724761 2.52150942273093 -1 1 0
4024 1 0.024528476626699103 6.78763351502956 4.3387976441544795 0 1 1
968 1 2.0293772753139123 5.39317864242532 2.1031765178506725 0 0 1
1803 1 3.666582907474097 6.429707962863936 4.6335726900943595 0 0 2
1070 1 6.630503707549662 6.671135100001638 3.934722314126005 0 1 0
4059 1 7.617030957532756 9.726853591364653 3.99108807389276 0 1 1
3710 1 16.117417201710275 8.273487649953923 3.6319732197368824 0 0 1
1212 1 18.784641101758655 5.688304268427884 5.906606037027494 1 0 0
1141 1 20.374334354412454 8.130028946199989 4.982680945446633 0 0 -1
3673 1 22.817399437447406 6.7739237327691875 4.872339058282261 0 0 0
880 1 27.23429000585364 6.6284002060898395 6.520900672874518 0 0 0
2789 1 29.55760510991777 7.71455081934866 4.157224336764056 0 0 1
254 1 31.83548455861272 5.938354283996407 6.075554594310684 -1 -1 0
242 1 33.83299974963267 7.864704160999037 6.271469597902884 -1 0 0
1907 1 41.901028211343004 8.000816348380527 3.4899303448390824 -1 0 0
2582 1 43.87356312133052 7.810957474520559 9.135691151515147 0 0 0
2990 1 47.66241258654099 7.20895536451153 3.30648707200239 -1 1 0
1396 1 43.530129465721416 6.6077273393903795 5.901520928329416 0 0 0
3289 1 0.9144745013201052 9.31490385869982 3.5536506717941614 1 1 0
815 1 3.870094846388067 9.225661025613407 3.0939422902800153 1 0 1
1101 1 4.700857640165512 11.341614508736948 4.689989456862773 0 0 1
161 1 7.0013628570540405 11.702536234596419 6.851362115928316 0 1 1
4093 1 10.341201802481773 9.396751418558248 5.245861472247014 0 1 0
3188 1 13.055562172994968 8.711270670628107 4.772327506587297 -1 1 0
253 1 15.227359116667433 10.923072826447816 3.9985589128212666 1 0 0
3254 1 21.42882581373709 10.770311518295763 4.174065347587539 0 0 1
1354 1 24.189185627291142 10.866823806658642 3.986299048851955 1 1 -1
2045 1 25.384104541882593 11.100615684743143 6.342902840232756 -1 0 1
3212 1 28.100293281617482 10.381573690506894 6.786982521384371 0 1 -1
404 1 29.207315684871986 11.993549761782358 5.041503322371823 0 0 0
3256 1 32.25935775615413 12.165363825451466 5.2406847584522005 0 1 1
78 1 40.27168846232995 10.409044707072066 3.9977601377891805 0 0 -1
35 1 43.860944829172915 9.204140420170374 5.760802219224651 -1 0 0
93 1 45.867064854477654 9.36620211183768 3.7239552316662197 0 1 1
618 1 0.013638027700700661 11.566852506513717 4.354111381345955 0 0 0
3534 1 1.8417237035425724 13.418285041149895 3.3297772367948824 1 1 1
1883 1 10.240460397708564 13.972443407272124 4.12768985924381 1 0 1
473 1 10.059365270337116 16.511558713116877 5.7009162062509935 -1 0 -1
3271 1 14.132725986907479 13.1310317755596 2.528386356871336 1 1 0
308 1 16.702760986054034 15.425845283782756 4.641556935001061 1 0 -1
943 1 21.002611475259254 15.16146916780014 5.670008795174534 0 0 0
206 1 29.860241875841613 15.869489247285298 2.956619712177504 1 0 -1
1038 1 32.78807292804061 16.44312017391768 3.2578554576893195 0 1 1
2287 1 36.74636678496197 12.290607576437719 5.791547822127641 0 0 0
2320 1 39.52562788603763 13.248025198360953 5.614254987429076 1 1 0
2349 1 43.425172446401724 14.14991902824227 4.934462242174782 -1 1 0
3206 1 46.36849120820601 14.399513787300325 4.953415890645787 1 0 0
778 1 47.345391526260826 11.79188958853044 4.044735916141397 -1 0 1
3193 1 0.8027115154803257 15.697454432237663 4.7971887713221655 0 1 0
1812 1 1.5714524797223772 17.65729044187793 2.7973076355554793 1 -1 1
4029 1 7.489233816608598 15.8313253670139 6.226073318836807 1 1 1
319 1 9.115634963039918 18.882143034907735 4.21696720588824 1 -1 0
1537 1 10.56734320757045 18.25770907081189 1.6868290115974018 0 0 1
1665 1 16.933575731674022 17.263651205947628 1.484374615307065 1 0 0
2677 1 12.745702427785211 15.509740496486835 3.980605144376784 1 0 0
1237 1 19.458404640192388 19.706169998827058 4.814876995096924 1 0 1
3996 1 21.290323239314034 19.460557149427604 6.879835135096243 -1 0 2
2706 1 22.976436536631166 17.146948673264692 7.091495296067284 0 0 0
4130 1 33.072834030817404 16.756958686002527 6.1958931629522995 0 0 2
4040 1 36.443777286863025 16.449249490515516 4.837929510214726 -1 0 0
787 1 39.573004376247226 16.085547604319448 5.027438266288298 0 0 1
2861 1 39.2900693734456 16.389540543864214 2.3761360426468836 0 0 0
782 1 42.39995993191905 16.947928236886053 5.589218807723393 0 0 0
2762 1 44.49324010101882 18.496148525652853 4.088381167879476 -1 1 0
1269 1 3.869988885170671 18.878445298804017 3.4690027446908434 1 1 0
2409 1 2.910152407201532 20.462535747266813 5.405666030649243 0 -1 1
1094 1 7.866463076427501 18.093315429684566 7.738183252553362 1 -1 0
396 1 5.516775855018215 19.899969415306355 8.402793318613464 0 -1 0
3733 1 10.720160482087227 21.175341827240096 3.6681861644531413 0 1 0
1576 1 10.020358702998166 19.881449283308246 7.001219061369708 1 0 1
1850 1 12.686690090857386 19.81704583950285 5.3044241571351884 1 0 1
2356 1 15.593310479032963 19.424160744640925 2.836997832963707 1 0 1
303 1 23.737082966248412 20.459725602364514 6.046730623060821 -1 0 0
1419 1 28.395576215194968 19.05161216200712 6.014502327680331 -1 0 1
2564 1 27.740041651619844 21.86629832781475 6.028629633931281 -1 1 0
261 1 36.41571719193531 20.13621898749898 6.328038675450308 1 0 1
1664 1 37.80706627475211 19.090106587370393 3.6076603237866602 0 0 1
3807 1 44.89327112275788 19.862295146692663 6.721060787866607 -1 0 0
135 1 48.555578106358034 17.345945903232675 5.292219516412803 0 0 0
1654 1 49.47774952534512 19.02726433383054 3.16517077483132 -1 0 1
270 1 18.797305286654762 23.94325430630381 11.15530906457593 1 0 1
1502 1 0.1760251844340982 21.203662927241417 4.569050265958097 0 1 1
2039 1 4.822815651164593 22.345641150928664 3.927474496740376 0 -1 1
2406 1 8.936487135412548 22.0442067848489 7.935684196520672 0 0 0
1954 1 10.120159808057483 23.83729022144899 5.509781529372597 1 -1 1
363 1 31.396777380278525 0.3762017868100517 10.100145217154811 0 1 0
2150 1 18.704508899228692 24.075967855290248 2.06382442828952 1 0 0
1056 1 24.918801430418963 24.380540754758396 11.792907893666243 1 0 0
1578 1 7.8263259951770685 1.4049660925074243 16.432688229682935 0 0 0
163 1 25.684184876432184 22.390487661171342 4.620861888937554 0 0 0
279 1 22.6304684510547 19.54102235513566 15.952326606280014 0 1 0
689 1 30.093516788163836 23.439941776113336 4.68708129141563 -1 0 1
1332 1 32.973765658246606 20.939071514380544 4.313426863387003 0 0 0
990 1 37.02347241771216 24.08780084724265 6.55762047356526 -1 0 0
2367 1 38.02815209230355 21.89261788086878 3.979358304665894 0 0 0
2062 1 44.51633926367221 21.264107696809 16.23780566062932 0 -1 0
1826 1 41.15565961052707 21.339302086490523 5.378903379587752 0 0 2
3079 1 42.84195535945576 22.868890348819104 3.552637351082313 0 0 0
2023 1 47.12016143754523 22.119999217797748 5.361662545625224 -1 0 1
4032 1 3.1462766772388115 0.9315626659858389 5.403301590720734 -1 1 0
211 1 2.09569508989366 1.2558393516333313 11.265069291477525 -1 0 0
3897 1 5.757830143880587 0.45293266983833036 6.187853934605004 0 1 1
3277 1 9.92666824686772 1.286677738834149 7.068589850694672 0 1 0
2671 1 12.732079466945892 2.350932057425752 8.43111042997848 0 1 1
3692 1 16.512408024126334 1.5101241231228069 7.179819165048242 0 1 1
1451 1 23.178152374128732 0.7692572952734977 5.885560181296655 0 -1 1
2381 1 19.41589328112423 2.204111512005065 7.501830240856535 1 0 0
1255 1 23.573350846868717 2.500562220571979 7.947383061005722 0 0 0
2189 1 20.11031059909554 3.3199493503701887 16.041626303462074 0 1 0
568 1 32.62867687766457 3.7626607624935566 8.403327409085861 1 0 0
2212 1 34.036802964090995 1.240451311218072 9.133911925436129 0 0 0
2919 1 41.288798995097615 1.4825860141227414 7.467141853118827 0 1 0
2645 1 44.71369099072626 0.5393229760029313 9.136585710328836 -1 1 0
2804 1 21.776006747685884 12.217244602747405 0.26168737661670327 1 0 0
2954 1 20.89953259003273 22.465443542207673 15.048078594383458 -1 -1 0
1164 1 48.62420693367156 3.9875218128005434 5.764357970217211 -1 0 0
1736 1 2.1789810330041255 6.523578753310872 11.08664336498276 0 0 0
3042 1 2.092859499154503 2.300749272209092 8.690373384448588 1 2 1
139 1 4.950869692685572 2.3398524762330815 8.754170778759791 0 0 0
2839 1 5.701807130283717 4.9133375858281925 8.446087011276155 0 0 0
1530 1 8.302901363557135 4.599083008276615 9.509678921497791 0 0 0
137 1 14.121028407744799 3.860616822818252 5.337969896396142 1 1 0
46 1 10.778191752639541 4.35703359776077 8.077313302020952 1 1 1
4114 1 12.874343651279872 6.022017825024381 9.405900476553326 0 1 1
704 1 15.215469474861704 3.684038203800008 8.0525429269638 0 0 0
2016 1 23.689167802156383 5.107066260949946 9.022578406276905 -1 0 1
1229 1 27.485979356277777 3.4526120575859753 10.381040432812712 0 0 0
2493 1 29.201188631700628 5.111388868534842 7.42148374409617 -1 1 -1
218 1 30.18983118598424 3.954566343574534 9.968578908626382 0 -1 -1
3909 1 37.75780303221774 3.7471257302068186 7.270768806941323 -1 1 1
758 1 37.03828988626375 4.132545668122533 9.856309682951931 0 0 0
251 1 39.415004429471054 5.908041220497863 6.238525072465495 0 -1 0
485 1 42.08024335238347 3.651349777287463 9.283112449043847 1 0 0
3068 1 44.61218089135094 3.075414373623286 8.426829985138246 0 0 1
3592 1 44.693960741171 2.6660126913365394 5.58910634024907 -1 1 0
2284 1 1.258629572042196 4.750396465503027 5.692300358767857 1 1 0
3597 1 46.13760551269881 5.160610041816709 4.721736805883128 -1 1 1
3032 1 49.60041561663224 6.503836219993805 9.068464738804286 -1 1 0
3998 1 4.246866450722743 7.097007987913752 7.412427786819742 0 0 2
442 1 6.742072727657351 8.822249817417596 7.3608461596469414 -1 0 0
123 1 9.303377933401507 7.635390361721575 7.265949609991533 1 0 0
1901 1 10.67054909373023 7.718707301053867 9.678821429983758 1 0 1
1310 1 13.983969583567024 6.448884447742176 6.338523137372409 0 0 1
3940 1 15.258299816591615 7.621113615978481 9.114880244972657 1 0 1
2174 1 16.637748989755522 7.670817802928001 6.4605727787923355 0 1 1
1729 1 19.56972066719745 4.675309857456514 8.357695515046315 -1 0 1
1895 1 24.52374042708515 6.910062232687228 7.094933461050535 0 0 1
657 1 29.431584168002054 8.492326587793976 9.888344238924871 0 0 1
1703 1 29.84928186319772 8.475053810887335 7.078989050988586 0 -1 0
1391 1 34.648369120517344 5.568593003966045 9.575816297263152 0 0 0
1574 1 35.7774718198603 7.4508967407245015 8.184788816067357 -1 0 1
940 1 38.26601325228359 8.211691224585985 6.892188860907146 -1 0 0
1586 1 41.66271305805744 6.176300444114231 7.964703784493528 1 1 2
2032 1 46.10165607648857 6.084241150099502 7.629334219192164 -1 0 1
1607 1 48.4530369708496 7.23655615121129 6.719387549605776 -1 0 0
2787 1 0.8952650208763344 9.080558099874017 9.871714103116915 1 1 0
2197 1 3.4964177472062694 9.475148497769963 8.692734679623266 0 0 0
873 1 2.9216790118678664 11.679079809924282 7.152831887347517 0 0 0
2259 1 7.7117499063568875 9.048278647608305 10.16344668555695 0 0 0
889 1 7.88672883288533 11.901880138797662 9.694075379812457 0 0 0
2590 1 11.001413451003765 11.830618332818217 6.064281720047237 0 0 0
385 1 17.678872409703814 9.958148412933069 7.922008664206702 0 -1 -1
4010 1 20.84497215450673 9.734728564310911 7.631786290714026 0 0 0
935 1 23.924489015416743 9.40723891404442 8.01358534707312 0 -1 0
1192 1 32.288655118370684 9.817300711613372 7.35482752107948 0 0 1
476 1 32.82980192507345 10.900802010020213 9.942224409238662 0 0 0
3485 1 36.10655422383061 9.026662954026705 10.616164061366032 -1 0 0
1254 1 37.786652240475554 9.743666126500873 4.7280295942652035 -1 0 0
1767 1 40.57528389866551 8.66685501318213 8.837015319210455 -1 0 2
2614 1 43.06104431308681 10.441055041710259 8.556379732344485 0 0 0
3405 1 43.6254386287312 11.390849487493126 11.122943200810802 -1 0 1
2371 1 49.09810758089524 9.897721663883424 8.303638394583128 0 0 0
309 1 0.36749278668447755 11.923118785247565 6.951301062627969 0 0 0
4018 1 49.94925440313069 14.545669870674223 7.205052008452395 -1 0 1
2278 1 3.799143666113747 14.127052168424106 7.926294795286362 1 0 0
1908 1 6.4917194657074155 14.15284010191691 8.016303606310789 0 0 1
109 1 13.583409209673404 11.14319616016689 6.439506338824972 1 0 0
3913 1 14.068387019417463 15.079648740409148 8.414900259772121 0 1 0
3476 1 16.766162661299784 12.151860239908167 6.155870192025708 1 1 0
640 1 17.486035970828336 14.775593948976809 7.541839559310286 -1 0 0
3613 1 21.7788625288061 12.51960223783286 6.38964984889871 0 1 0
3016 1 24.217066439608285 13.561916897867361 6.593019263613874 0 1 0
2121 1 25.82080740265269 13.75064463589887 8.998302458911583 0 1 -1
3679 1 28.31800234362566 12.325606485705793 8.85846694508756 0 1 0
9 1 32.14408048454542 14.392913392851218 7.051924216201174 0 0 0
223 1 33.58477611574664 13.607534981281976 9.220370204442531 1 0 1
1866 1 35.99964786671724 13.146731107938065 8.32354017791656 0 -1 1
3980 1 42.10472545372451 11.805842820751828 5.768891004546623 0 0 1
1768 1 44.91650093689359 12.834083895468117 7.640158509753078 -1 0 0
1380 1 3.147282604603898 16.355668103695415 6.244343421266573 0 -1 1
1214 1 8.565048409817301 16.19103550241826 9.790097470166653 1 0 1
4022 1 11.103625024457058 17.75735967439882 8.564146099236513 0 0 0
3059 1 12.946646100059628 18.25547528447894 2.9019798428868877 -1 1 0
3748 1 14.324481462700188 14.217705317969932 5.6965841799677435 0 0 1
912 1 16.852387801345603 18.09787939902466 4.838437822372271 0 1 1
146 1 18.966186359446866 16.941025550609904 6.847446172408967 0 0 0
3139 1 20.337235088757648 18.150427061191483 9.181683247044653 0 0 0
596 1 23.915405979353867 16.462030733611854 9.386243603730962 0 0 0
2908 1 25.48445648106092 15.622419329918763 5.231116063144176 0 1 0
2952 1 22.97939284441973 18.984626687379777 10.481200931898623 0 1 1
1370 1 28.49618634312177 14.634430676904843 4.857249035395891 0 0 1
1395 1 29.41107774607072 14.667749452073545 7.34741059955924 1 -1 0
1823 1 30.580102778663356 17.968454108635115 7.070216478692916 -1 0 0
3590 1 35.87437278162956 16.242481200651266 7.52519887920403 -2 0 1
1242 1 38.12782736678399 14.878777161557304 9.439688935926817 -1 0 -1
4102 1 43.151893087080275 14.616961614033025 8.872491645069758 0 1 0
954 1 43.64138343313586 17.465158454817207 8.214746354541516 0 0 1
2079 1 46.66109598659922 17.702923011550165 8.037811176255024 0 0 1
1125 1 47.32670413343377 14.98797308057255 7.446043141384621 0 0 1
2061 1 3.0383872222971795 18.77407334954187 7.562205541252743 1 -1 1
1491 1 0.613294833338586 19.35905623931304 9.144141325393003 0 0 0
425 1 5.493999361480141 20.166604623397713 11.10981078205839 1 0 -1
775 1 15.036416250245393 19.259171357131954 6.715206057762723 0 0 1
2418 1 16.301508478540914 21.031990494664793 8.346751194982353 1 0 0
522 1 19.388016240211886 21.53359956525074 7.646127681965696 0 -1 0
2138 1 25.715386722929072 18.201914090398194 6.407703383795573 0 0 0
910 1 26.229741826385432 17.99807112990021 9.16012568369929 1 0 0
3113 1 31.56047395140679 19.978708605491192 8.707558922876295 0 1 0
666 1 35.057606781952416 22.38402203456592 7.828136435591184 0 0 1
3287 1 35.73145913583722 18.769451158469046 8.752494427610985 0 0 0
3255 1 38.77009218451921 16.87774809530111 7.489353328022175 -1 0 1
898 1 40.40416925724336 20.279193459434534 9.796553836130496 -1 0 1
852 1 42.4766789976598 21.10423548475889 7.699163620728201 0 0 0
3110 1 47.5116733656368 23.81310813370077 14.030378222940127 0 0 0
2471 1 15.095996132663082 21.9508981773552 1.2004469481000575 0 0 0
2643 1 13.854227592211682 23.388737964377036 7.6609439041867695 0 1 0
2842 1 13.125549981992807 22.761203284478913 5.18276774221 1 1 0
1946 1 16.88285347239656 23.326788494573243 6.574469301675341 0 0 0
3764 1 20.714191499619194 24.025432370934148 7.86617175024887 1 -1 1
284 1 23.2315391266326 23.219910046069625 7.0973936134804285 -1 0 0
1133 1 24.956462892313528 23.0404993344357 9.242558590713475 -1 1 0
39 1 27.741010014903903 22.46353851848861 8.57251029538121 0 0 -1
2310 1 9.988491411589798 17.95647542497446 16.07228563710955 0 1 -1
186 1 32.773827064309366 21.712488697616887 6.888611634672071 0 1 -1
1415 1 29.83326633318029 20.34924476554549 16.245335307456617 0 -1 0
2854 1 39.242257700246064 19.779642811853325 7.13827791349705 0 1 0
2495 1 36.360906912041855 23.04336673732196 10.282111258310957 0 0 0
519 1 39.73182090183807 23.703339801189287 5.837537675973025 0 -1 0
864 1 46.183557165039154 22.278612193670863 8.099279364846009 -1 1 1
3219 1 43.66940383472255 23.513267228642434 8.246489990292279 -1 1 0
4004 1 48.791542874460056 19.69615963443898 7.063177732805559 0 -1 1
841 1 6.136640517829465 2.7061188764402098 11.589362043835273 1 0 0
159 1 30.64703408937761 11.439560239428362 15.293113854933964 0 0 -1
3482 1 8.576328841679851 1.496623998843929 9.930035161190991 -1 0 0
1227 1 15.033643398929092 2.560728636008857 -0.025615837028951316 1 1 1
3002 1 10.552649532070514 2.2870894276237865 12.654437569585586 1 1 1
3488 1 12.709510443742362 2.007636236899867 11.46122406619732 0 1 0
3322 1 17.035158897161885 2.62896484491123 12.12436691314272 1 0 0
1102 1 21.96982073747946 3.050026234056122 11.56533317947311 0 0 0
445 1 24.36030598456625 1.344546432682002 11.698489524479365 -1 -1 0
3851 1 25.99753563940239 3.4893148411451858 14.625459414446631 0 1 0
698 1 27.036007064243197 2.1387831830039037 12.639782892374743 0 0 0
1060 1 29.34317513878879 3.419462531824696 14.061746328554957 0 1 0
839 1 35.77456496886045 1.9336136592373134 11.199186035107736 0 0 0
2143 1 31.436116199045152 2.607679960982094 12.20925469697257 0 1 1
2973 1 32.383726200001746 24.3333481847181 13.796757379628403 0 0 0