
# Create simulation box of size 50 x 50 x 50 Angstrom
#
lattice	            sc 1
Lattice spacing in x,y,z = 1.0000000 1.0000000 1.0000000
region 	            all block 0 50 0 50 0 50 units box
create_box          1 all
Created orthogonal box = (0.0000000 0.0000000 0.0000000) to (50.000000 50.000000 50.000000)
  1 by 2 by 3 MPI processor grid

# fill box with 4175 randomly distributed atoms
#
create_atoms        1 random 4175 63782 all
Created 4175 atoms
  create_atoms CPU = 0.001 seconds
mass                1 18.015

# Define potential
#
pair_style          sw
pair_coeff          * * ML_mW.sw mW
Reading sw potential file ML_mW.sw with DATE: 2019-02-27

# Run minimization
#
minimize            1.0e-8 1.0e-8 10000 1000
WARNING: Using 'neigh_modify every 1 delay 0 check yes' setting during minimization (../min.cpp:187)
Neighbor list info ...
  update every 1 steps, delay 0 steps, check yes
  max neighbors/atom: 2000, page size: 100000
  master list distance cutoff = 6.0032907
  ghost atom cutoff = 6.0032907
  binsize = 3.0016454, bins = 17 17 17
  1 neighbor lists, perpetual/occasional/extra = 1 0 0
  (1) pair sw, perpetual
      attributes: full, newton on
      pair build: full/bin/atomonly
      stencil: full/bin/3d
      bin: standard
Per MPI rank memory allocation (min/avg/max) = 4.255 | 4.258 | 4.261 Mbytes
Step Temp E_pair E_mol TotEng Press 
       0            0    7792709.3            0    7792709.3    5898794.3 
     630            0   -45180.336            0   -45180.336   -154.07449 
Loop time of 1.16212 on 6 procs for 630 steps with 4175 atoms

99.3% CPU use with 6 MPI tasks x no OpenMP threads

Minimization stats:
  Stopping criterion = max force evaluations
  Energy initial, next-to-last, final = 
      7792709.32924461  -45180.0188663597   -45180.336116598
  Force two-norm initial, final = 2.0191930e+08 4.9721331
  Force max component initial, final = 1.0948746e+08 0.73126211
  Final line search alpha, max atom move = 0.053306038 0.038980685
  Iterations, force evaluations = 630 1000

MPI task timing breakdown:
Section |  min time  |  avg time  |  max time  |%varavg| %total
---------------------------------------------------------------
Pair    | 0.87552    | 0.99107    | 1.0565     |   5.9 | 85.28
Neigh   | 0.023856   | 0.024596   | 0.025465   |   0.4 |  2.12
Comm    | 0.061513   | 0.12672    | 0.24329    |  16.5 | 10.90
Output  | 0          | 0          | 0          |   0.0 |  0.00
Modify  | 0          | 0          | 0          |   0.0 |  0.00
Other   |            | 0.01974    |            |       |  1.70

Nlocal:        695.833 ave         704 max         685 min
Histogram: 1 1 0 0 1 0 0 1 0 2
Nghost:        1494.17 ave        1515 max        1468 min
Histogram: 1 1 0 0 0 0 1 1 1 1
Neighs:        0.00000 ave           0 max           0 min
Histogram: 6 0 0 0 0 0 0 0 0 0
FullNghs:      19997.0 ave       20462 max       19320 min
Histogram: 1 1 0 0 0 0 0 2 0 2

Total # of neighbors = 119982
Ave neighs/atom = 28.738204
Neighbor list builds = 26
Dangerous builds = 0

# Add velocity/set timestep
#
velocity            all create ${TEMP} 120598 rot yes dist gaussian
velocity            all create 225 120598 rot yes dist gaussian
timestep            5.0

# Define output
#
compute	            1 all msd
thermo	            100
thermo_style        custom step temp press vol etotal ke pe c_1[4] density

# Neighbor lists
#
neigh_modify        delay 0 every 1 check yes

# Set fixes
#
fix                 1 all momentum 10 linear 1 1 1 rescale
fix                 2 all nve
fix                 3 all temp/csvr ${TEMP} ${TEMP} 500.0 928347
fix                 3 all temp/csvr 225 ${TEMP} 500.0 928347
fix                 3 all temp/csvr 225 225 500.0 928347
fix                 4 all press/berendsen iso ${PRES} ${PRES} 1000.0 modulus 20000
fix                 4 all press/berendsen iso 250 ${PRES} 1000.0 modulus 20000
fix                 4 all press/berendsen iso 250 250 1000.0 modulus 20000

# Run 0.5 ns equilibration
#
dump                1 all custom 1000 eq.${NAME}.dump id type x y z vx vy vz
dump                1 all custom 1000 eq.liquid_density_MLmW.dump id type x y z vx vy vz
run                 100000
Per MPI rank memory allocation (min/avg/max) = 3.506 | 3.508 | 3.511 Mbytes
Step Temp Press Volume TotEng KinEng PotEng c_1[4] Density 
     630          225    869.67124       125000   -42380.908    2799.4278   -45180.336 2.7295415e-33   0.99914793 
     700    143.16383    151.99228    125265.41   -41521.368    1781.2302   -43302.598   0.26639164   0.99703099 
     800    177.35205   -66.844281    125086.65   -40740.828    2206.5966   -42947.425   0.63031954    0.9984558 
     900    195.55493    222.68597    124880.58   -40316.592    2433.0751   -42749.667     1.106858    1.0001034 
    1000    207.48404    191.34592    124957.37    -40037.07    2581.4959   -42618.565    1.5438661   0.99948877 
    1100    218.09346    301.92395    125194.39   -39846.331    2713.4973   -42559.829    1.9426286   0.99759654 
    1200    216.49094    199.07067    125450.66   -39871.912    2693.5589   -42565.471    2.3528672   0.99555865 
    1300     222.5714    183.35788    125263.85   -39856.633    2769.2114   -42625.844    2.7017175   0.99704338 
    1400    215.28209    212.53905    125331.34   -39867.951    2678.5185    -42546.47    3.0884811   0.99650645 
    1500    219.06932    37.614627    125286.25   -39819.302    2725.6388   -42544.941    3.4029115   0.99686513 
    1600    223.11952    199.58783    125398.86   -39722.797     2776.031   -42498.828    3.8473509    0.9959699 
    1700    225.20051    391.79535    125542.08   -39756.989    2801.9225   -42558.912    4.1545917   0.99483366 
    1800    221.36856    336.45977    125370.94   -39828.188    2754.2457   -42582.433    4.4788249   0.99619174 
    1900    220.50253    401.96829    125700.68   -39814.205    2743.4706   -42557.675    4.8367066   0.99357848 
    2000    226.15953    428.53697    125718.31   -39801.849    2813.8545   -42615.703    5.1801016   0.99343913 
    2100    226.34215    227.23743     125753.6   -39767.618    2816.1266   -42583.745    5.5287893   0.99316038 
    2200    229.78716     61.96673    125934.23   -39805.905    2858.9891   -42664.894    5.8673707   0.99173587 
    2300    230.00255    213.35221    125912.21   -39790.624     2861.669   -42652.294    6.1736971   0.99190929 
    2400    228.49723    98.096326    126157.54   -39802.962    2842.9399   -42645.902    6.5123392   0.98998037 
    2500    227.77817    312.95534    126099.21   -39755.238    2833.9935   -42589.231     6.781901   0.99043835 
    2600    230.67585     336.0111    126007.03   -39698.812    2870.0462   -42568.858    7.2650731   0.99116286 
    2700    230.78954    248.19171    125955.88   -39727.022    2871.4607   -42598.483    7.5846911   0.99156538 
    2800     229.3539     222.1679    125779.93   -39701.021    2853.5985    -42554.62    7.8955878   0.99295247 
    2900    228.92943    174.06736    125630.59   -39780.661    2848.3174   -42628.979    8.1989558   0.99413281 
    3000    225.70489    465.71549    125700.72   -39818.712     2808.198    -42626.91    8.4527762   0.99357817 
    3100    229.00091    376.74257    125790.39   -39785.548    2849.2067   -42634.755    8.7978049   0.99286988 
    3200    223.00619    355.95817    125805.43    -39826.09     2774.621   -42600.711    9.1743058   0.99275117 
    3300    227.19607    271.18575    125866.33   -39793.967     2826.751   -42620.718    9.5423685   0.99227088 
    3400    224.44428    156.01307    125749.38   -39839.895    2792.5136   -42632.409     9.820873   0.99319369 
    3500    223.25427     102.6354    125733.49   -39867.725    2777.7075   -42645.433    10.185322   0.99331923 
    3600    221.12804    267.97955     125741.4   -39907.659    2751.2532   -42658.912    10.258917   0.99325674 
    3700    217.21933    285.00488    125608.65   -39973.248    2702.6214    -42675.87    10.677639   0.99430648 
    3800    223.66225    296.92689    125501.46   -39921.637    2782.7836   -42704.421    10.924538   0.99515567 
    3900    221.92335     299.2864    125519.09   -39929.739    2761.1484   -42690.887    11.221648   0.99501594 
    4000    221.34807     359.1704    125718.91   -39910.987    2753.9908   -42664.978    11.480148   0.99343444 
    4100    221.88045    304.56601    125763.25   -39900.981    2760.6147   -42661.596    11.839928   0.99308414 
    4200    222.63795    13.525785    125840.81   -39918.311    2770.0393    -42688.35    12.124462   0.99247209 
    4300    221.97956    165.92228    125827.62   -39918.905    2761.8477   -42680.753    12.381543    0.9925761 
    4400    225.15434    264.76613    125986.78   -39930.799     2801.348   -42732.147     12.63294   0.99132218 
    4500    221.78968    311.86402    126171.91    -39936.29    2759.4852   -42695.776    12.938519   0.98986764 
    4600      223.656    161.42846    126162.05   -39987.647    2782.7058   -42770.353    13.177983   0.98994503 
    4700    227.30156    214.33075    126226.28   -39910.313    2828.0636   -42738.377    13.373275    0.9894413 
    4800    220.93367    421.47676    126335.49   -39977.111    2748.8349   -42725.946    13.811858   0.98858598 
    4900    225.57503    233.88227    126112.71   -39851.231    2806.5822   -42657.813    14.313482   0.99033229 
    5000    234.28437     108.3586    126209.99   -39802.749     2914.943   -42717.692    14.525803     0.989569 
    5100    227.87208    524.15261    126181.42   -39873.074     2835.162   -42708.236    14.880278   0.98979305 
    5200    223.72037    392.45106    126373.13   -39934.267    2783.5067   -42717.774    15.056439   0.98829153 
    5300    225.08653    201.05689    126127.25    -39890.21    2800.5043   -42690.715    15.427086   0.99021817 
    5400    225.42648    239.46926    126253.38   -39921.222     2804.734   -42725.956    15.784666   0.98922885 
    5500     222.2302    375.01708    126260.64   -39939.839    2764.9661   -42704.806    16.059086     0.989172 
    5600     221.2091     185.1011    126033.52    -39941.65    2752.2617   -42693.912     16.23606   0.99095455 
    5700    224.98554    366.25346    125865.36   -39924.682    2799.2478    -42723.93    16.629681   0.99227847 
    5800     225.7659    277.67974    126008.14   -39957.799     2808.957   -42766.756    16.838901   0.99115419 
    5900    223.75285    278.70928     126092.3   -39999.003    2783.9108   -42782.914    17.237411    0.9904926 
    6000    224.12637    222.01351    126106.44   -40001.979    2788.5582   -42790.537    17.388312   0.99038151 
    6100    227.49094    342.74022     125968.9   -39939.781    2830.4198     -42770.2    17.567832   0.99146287 
    6200    220.34263    382.06186    126157.81   -39997.689    2741.4812   -42739.171    17.781907   0.98997827 
    6300    220.96135    187.51179    126355.39    -39951.41    2749.1793    -42700.59    18.165768   0.98843028 
    6400    228.32052    174.94782    126086.37   -39937.595    2840.7413   -42778.336    18.317045    0.9905392 
    6500    225.83505    283.37149    126001.71   -39893.298    2809.8174   -42703.115    18.331535   0.99120471 
    6600    223.89796    293.96584    125910.94   -39970.464    2785.7163   -42756.181     18.71991   0.99191927 
    6700    215.24725    70.194494    126010.46   -40040.549     2678.085   -42718.634    18.995647   0.99113587 
    6800    226.79649    514.65059    125974.59   -39958.338    2821.7794   -42780.117    19.297209   0.99141813 
    6900    228.49961    159.83393    126156.01   -39900.413    2842.9696   -42743.383    19.756578   0.98999242 
    7000    223.43295    336.62717    126203.84   -39883.771    2779.9307   -42663.702    20.051447   0.98961717 
    7100    224.83789    368.51267    126365.76   -39911.027    2797.4108   -42708.438     20.17632   0.98834917 
    7200    222.68442    293.56617    126410.08   -39957.797    2770.6176   -42728.414    20.388976   0.98800266 
    7300    221.09581    181.70273    126356.41   -40034.102    2750.8522   -42784.955    20.676291   0.98842229 
    7400    219.74817   -40.515648    126154.58   -40062.296     2734.085   -42796.381    20.942534   0.99000362 
    7500    221.67214    235.21081     126188.7   -40025.439    2758.0229   -42783.461    21.367356   0.98973591 
    7600     217.6977    341.61141    126124.01   -40112.759    2708.5733   -42821.333    21.750915   0.99024355 
    7700    225.88114    200.81953    126101.87   -40014.157    2810.3908   -42824.548    22.139921   0.99041745 
    7800    226.62461    499.71575    126472.78   -40002.306     2819.641   -42821.947     22.37189   0.98751278 
    7900    222.47669    134.85127    126265.07   -40069.612     2768.033   -42837.645    22.592982   0.98913729 
    8000    223.02987    257.66668    126247.26   -40031.583    2774.9156   -42806.499    22.744599   0.98927681 
    8100    220.29991    260.20153    126363.21   -40115.065    2740.9498   -42856.015    23.015009    0.9883691 
    8200    221.58169    178.19438    126509.33   -40123.322    2756.8975    -42880.22    23.482011   0.98722755 
    8300    225.91027    251.95569    126554.25   -40110.163    2810.7532   -42920.917    23.787498   0.98687706 
    8400    219.58744    291.42694     126521.9    -40053.37    2732.0852   -42785.455     23.98631   0.98712942 
    8500     222.5457    244.58985    126695.37   -39977.842    2768.8916   -42746.734    24.582997   0.98577788 
    8600    222.58418    193.99497    126614.23   -40001.092    2769.3704   -42770.463    24.729141   0.98640958 
    8700    228.44634    229.09052    126534.91   -39970.283    2842.3068    -42812.59    25.274632   0.98702795 
    8800     224.7042    59.860821    126485.79   -40002.299    2795.7475   -42798.046    25.648358   0.98741126 
    8900    219.26758    366.83704    126204.96   -40070.674    2728.1056   -42798.779    25.953482   0.98960845 
    9000    220.23032    98.561612    126317.01   -40007.638    2740.0839   -42747.721    26.172191   0.98873058 
    9100    224.55084    260.63019    126263.48   -40079.889    2793.8393   -42873.728    26.399495   0.98914979 
    9200    220.59205    179.82201    126410.28    -39979.92    2744.5845   -42724.505    26.734248   0.98800103 
    9300    220.86448     237.8705    126272.11   -40024.188     2747.974   -42772.162     27.25715   0.98908213 
    9400    222.54731    386.62245    126446.86   -39964.041    2768.9116   -42732.953    27.618687   0.98771525 
    9500    223.03745    254.08909    126577.01    -39988.48      2775.01    -42763.49    27.835753   0.98669961 
    9600     225.4509    249.26671    126437.45    -39962.16    2805.0378   -42767.198    27.973932   0.98778878 
    9700    227.07546    43.283902    126155.94   -39910.679    2825.2505   -42735.929    27.942923   0.98999293 
    9800     225.7557     241.2719    125993.84   -39998.907    2808.8302   -42807.738    28.180608   0.99126666 
    9900    219.57067    257.78279    126217.33   -40071.878    2731.8766   -42803.755     28.31764   0.98951143 
   10000    224.56135    331.14795    126266.37   -40070.743    2793.9701   -42864.713    28.673712   0.98912713 
   10100    225.39928    219.15488    126187.62   -40030.702    2804.3955   -42835.097    29.191529   0.98974437 
   10200     225.2947    511.58485    126174.45   -40092.657    2803.0943   -42895.751     29.42784   0.98984769 
   10300    223.58014    211.90646     126241.3   -40085.987     2781.762   -42867.749    29.607479   0.98932354 
   10400    221.04015    273.67309    126192.77   -40033.677    2750.1596   -42783.836    29.734741   0.98970399 
   10500    225.18001    377.11682    126453.92   -40007.722    2801.6674    -42809.39    30.076833   0.98766006 
   10600     231.1416      353.439    126338.74   -39940.727     2875.841   -42816.568    30.235361   0.98856051 
   10700    227.40315    249.95122    126637.67   -39938.051    2829.3275   -42767.379    30.572015   0.98622704 
   10800    234.44709     567.5375    126816.34   -39925.782    2916.9675   -42842.749    30.943612   0.98483752 
   10900    226.99849    236.51837    126889.12   -39965.565    2824.2928   -42789.858    31.476408   0.98427265 
   11000    226.33264    275.13159    126724.05   -39950.779    2816.0083   -42766.787    31.611962   0.98555476 
   11100    223.92493    361.25282    126905.01   -39988.144    2786.0518   -42774.196    32.025325   0.98414943 
   11200    224.76324    164.75164    127059.29   -39982.072     2796.482   -42778.554     32.05254   0.98295442 
   11300    224.72765    285.18517    127122.21   -40000.473    2796.0392   -42796.512    32.237758   0.98246789 
   11400    222.63981     438.4513    127048.64   -40007.186    2770.0625   -42777.248      32.6466   0.98303684 
   11500     222.8354    211.28281    126925.65   -40024.817    2772.4961   -42797.313    32.939306   0.98398939 
   11600    224.51228    272.26169    127020.37   -40043.162    2793.3596   -42836.522     33.34622   0.98325558 
   11700    227.86887    344.17126    127238.25   -39935.043     2835.122   -42770.165    33.628922   0.98157193 
   11800    223.22895    194.41619    127130.09   -40010.614    2777.3925   -42788.006    33.935008   0.98240701 
   11900    225.19323    343.01003    127381.06    -40024.05    2801.8319   -42825.882    34.388667   0.98047142 
   12000    225.16211    164.79362    127433.05   -40041.869    2801.4448   -42843.314    34.729334    0.9800714 
   12100    227.71256    144.07413       127295   -39995.694    2833.1772   -42828.871     35.01314   0.98113427 
   12200    225.63583    139.80614    127100.86   -40005.126    2807.3387   -42812.464    35.193873   0.98263295 
   12300    224.27895    306.31268    126993.83   -40039.508    2790.4566   -42829.965    35.549698   0.98346109 
   12400    221.36827     194.1338    126931.79   -40018.368    2754.2422    -42772.61    35.893013   0.98394174 
   12500    223.79923    398.34877       126959   -40115.575    2784.4879   -42900.063    35.971086   0.98373088 
   12600    225.88255    227.53948     126959.8   -40032.866    2810.4083   -42843.274    36.268685   0.98372471 
   12700    224.60851    556.53772    126872.91     -40005.6    2794.5569   -42800.156     36.47193   0.98439839 
   12800    226.96515    207.81401    126575.11   -39975.482     2823.878    -42799.36    36.731412   0.98671445 
   12900    224.37226    33.583604    126625.17   -40038.148    2791.6175   -42829.765    36.875218   0.98632437 
   13000    225.29745    164.41554    126405.66   -39952.709    2803.1286   -42755.837    37.086254   0.98803721 
   13100     225.3094    224.10021    126502.41   -39955.366    2803.2773   -42758.643    37.217407   0.98728148 
   13200    230.12969    415.75683    126534.49    -39861.92    2863.2509   -42725.171     37.37246   0.98703121 
   13300    227.67059     184.3672     126484.5   -39918.988     2832.655   -42751.643     37.53423    0.9874213 
   13400    227.73555    391.38425    126850.98   -39997.697    2833.4632    -42831.16    38.027553   0.98456863 
   13500    222.41568    224.19792    126912.97    -40041.62    2767.2739   -42808.894    38.216744   0.98408765 
   13600    225.04691    206.09305     126787.9   -40088.758    2800.0115    -42888.77    38.410448   0.98505843 
   13700    223.70797    321.50162    126767.19   -40094.002    2783.3524   -42877.355    38.694064   0.98521935 
   13800    226.39517    369.00135     126859.7   -40010.147    2816.7864   -42826.934    38.988696   0.98450092 
   13900    225.73055    167.66386    127015.74   -40043.386    2808.5172   -42851.903    39.299245   0.98329145 
   14000    225.50161    350.39536    126880.05   -40032.341    2805.6687    -42838.01    39.569507   0.98434301 
   14100    222.42131    328.56554    126887.65   -40038.268    2767.3439   -42805.612    39.870463   0.98428406 
   14200    222.42403    133.77207    126899.08   -40069.626    2767.3778   -42837.004    39.955335   0.98419537 
   14300    223.93645    274.12507    126772.98   -40124.032    2786.1952   -42910.228    40.166338   0.98517438 
   14400    226.66076     135.5145    126652.58   -40098.656    2820.0907   -42918.747    40.425869   0.98611095 
   14500    223.82638    224.54205    126655.83   -40048.127    2784.8257   -42832.953    40.725549   0.98608562 
   14600     227.0292    235.54956    126851.44   -40051.342    2824.6748   -42876.016    40.957479   0.98456502 
   14700    224.51939    187.68921    126786.15   -40098.106    2793.4481   -42891.554    41.166981   0.98507207 
   14800    219.95672    214.27014    126878.14   -40147.112    2736.6797   -42883.792    41.395558    0.9843578 
   14900    217.14614    275.34179    126800.36   -40216.838    2701.7108   -42918.549    41.573003   0.98496164 
   15000    223.93065    124.81071    126828.36   -40211.555     2786.123   -42997.678    41.978291    0.9847442 
   15100    220.39683    114.99181    126767.72    -40242.39    2742.1555   -42984.546    42.332318   0.98521524 
   15200    223.15118    276.04129     126948.4   -40180.883    2776.4249   -42957.308     42.85451     0.983813 
   15300    223.98741    356.12284    127049.82   -40201.298    2786.8292   -42988.128    43.216283   0.98302769 
   15400    222.61893    281.44176    127179.78    -40199.27    2769.8027   -42969.073    43.373824   0.98202316 
   15500    220.37269    350.92583    127032.47   -40179.365    2741.8552    -42921.22    43.416354   0.98316198 
   15600     223.1461    333.81535    127115.53   -40104.681    2776.3617   -42881.042    43.659285   0.98251955 
   15700    219.50087    305.49378    126974.01   -40178.586    2731.0081   -42909.595    43.760136   0.98361459 
   15800     220.3426    277.85012    126989.92   -40164.309    2741.4808    -42905.79    43.971418   0.98349134 
   15900    222.24397    275.89594     127011.1   -40196.739    2765.1375   -42961.877    44.389247   0.98332738 
   16000    224.28325    443.83191    127197.53   -40128.058      2790.51   -42918.568    44.442616   0.98188611 
   16100    228.59452    243.92824    127215.08   -40074.832    2844.1504   -42918.982    44.901534    0.9817507 
   16200    222.99811    100.85021    127088.03   -40129.218    2774.5204   -42903.739    45.201969   0.98273215 
   16300    221.09754     134.6365     126776.6   -40135.857    2750.8737   -42886.731    45.151213   0.98514621 
   16400    227.52118       205.14    126795.56   -40028.699     2830.796   -42859.495     45.26704   0.98499895 
   16500    230.11114    313.84043     126724.7   -40026.775    2863.0201   -42889.795    45.497136   0.98554967 
   16600    227.07504    307.66752     126721.3   -40021.167    2825.2452   -42846.412    45.648342   0.98557613 
   16700    223.31738    366.89948    126765.27   -40043.357    2778.4928   -42821.849    45.717924   0.98523426 
   16800    225.00017    119.27464     127034.6   -40046.687    2799.4299   -42846.117    45.863252   0.98314545 
   16900    225.43917    226.86142    126826.66   -40007.777    2804.8919   -42812.669    46.126711   0.98475741 
   17000    226.37967    314.78057     126778.4   -40013.658    2816.5934   -42830.251    46.218827   0.98513224 
   17100    227.76194    211.77559    126942.43   -39924.136    2833.7915   -42757.927    46.694085   0.98385929 
   17200    230.49074    78.698416    127243.86   -39944.708     2867.743   -42812.451    47.073381   0.98152859 
   17300    226.63703    337.36042    127341.25   -40007.284    2819.7956   -42827.079    47.178088   0.98077795 
   17400    227.31596    285.59975    127375.22   -40041.934    2828.2426   -42870.176     47.36837    0.9805164 
   17500    226.56385     345.6329    127436.98   -40039.476     2818.885   -42858.362    47.763036   0.98004117 
   17600    225.94557    342.00125    127466.39   -40010.588    2811.1924   -42821.781    48.032776   0.97981505 
   17700    228.48742    313.44439    127548.78   -40031.859    2842.8179   -42874.677     48.09344    0.9791822 
   17800    223.90751    192.13934    127645.34   -40045.459    2785.8351   -42831.294    48.464002   0.97844148 
   17900    232.09152    123.07584    127837.66   -40022.859    2887.6597   -42910.519    48.684567   0.97696946 
   18000    232.16989    307.68613    127822.72   -39992.284    2888.6348   -42880.919    49.025086   0.97708368 
   18100    223.87722    219.26649    127961.29   -40115.921    2785.4582   -42901.379    49.344521   0.97602557 
   18200    223.96736    233.65055    127982.05   -40126.888    2786.5797   -42913.467    49.556205   0.97586724 
   18300    228.82596    311.02027    127702.24    -40056.51      2847.03    -42903.54    49.696576   0.97800551 
   18400     224.2943    152.96146    127821.37   -40137.911    2790.6475   -42928.559    49.965618   0.97709401 
   18500    228.35108    131.28524     127624.1     -40094.7    2841.1216   -42935.822    50.355389   0.97860427 
   18600    223.98194    150.17102    127371.13   -40150.472    2786.7612   -42937.233    50.704213   0.98054787 
   18700    224.93023    86.838809    127229.82   -40115.475    2798.5597   -42914.035    50.818064   0.98163692 
   18800    228.00125    211.54363    127170.39   -40083.017     2836.769   -42919.786    50.806798   0.98209572 
   18900    226.93447    257.87061    127388.17   -40120.354    2823.4962    -42943.85    51.044257   0.98041672 
   19000     231.3862    163.65352    127284.73   -40108.037    2878.8842   -42986.921    51.031166   0.98121345 
   19100    220.32587    259.22105    127404.05   -40162.609    2741.2727   -42903.882    51.149692   0.98029453 
   19200    227.76636    208.23745    127382.18   -40139.237    2833.8465   -42973.083    51.355894   0.98046284 
   19300    227.85708   -89.844133    127323.65    -40088.34    2834.9753   -42923.315    51.550799   0.98091351 
   19400    226.12587    413.37266    127155.62   -40088.677    2813.4357   -42902.112     52.00255   0.98220979 
   19500    221.85235    337.57064    127016.25   -40070.006     2760.265   -42830.271    52.311674    0.9832875 
   19600    224.55396    183.47512    127001.87   -40086.275    2793.8782   -42880.153     52.51194   0.98339882 
   19700    224.17361    261.03812    126960.12   -40056.973    2789.1459   -42846.119    52.829168   0.98372224 
   19800    225.52657    173.99516    126945.15   -40081.508    2805.9792   -42887.488    53.021508    0.9838382 
   19900    226.68727    145.02803    126981.68   -40071.446    2820.4205   -42891.867    53.385587   0.98355516 
   20000    224.51688    190.92291    126993.38   -40102.162    2793.4168   -42895.579    53.580117   0.98346459 
   20100    224.34411    144.09973    126636.23   -40070.484    2791.2672   -42861.751    53.829928   0.98623825 
   20200    226.39372    220.96622    126660.24   -40103.178    2816.7683   -42919.947    54.332046   0.98605128 
   20300    222.75551    279.79146    126762.45   -40125.646     2771.502   -42897.148    54.614169   0.98525622 
   20400    225.97909    125.82768    126963.32   -40130.665    2811.6095   -42942.275    54.840469    0.9836974 
   20500    226.09961    22.146508    126850.99   -40103.384     2813.109   -42916.493    55.055585   0.98456853 
   20600    227.62061   -66.903864     126843.2   -40132.044    2832.0332   -42964.077    54.912809   0.98462899 
   20700    223.60864    375.64079    126737.02   -40069.029    2782.1166   -42851.145     55.19418    0.9854539 
   20800    225.36328    288.46792    126978.05   -40061.491    2803.9476   -42865.439    55.620586   0.98358332 
   20900    222.18957    381.53787    127151.91   -40101.113    2764.4607   -42865.573    56.151693    0.9822384 
   21000    218.95822    372.03712    127164.93   -40190.403    2724.2565    -42914.66      56.6052   0.98213786 
   21100    223.42639    281.21172    127246.64   -40191.728    2779.8491   -42971.578    56.966604   0.98150722 
   21200    224.09475    198.02863    127397.41   -40171.838    2788.1648   -42960.003    57.206056    0.9803456 
   21300    219.75417    178.17636    127407.06   -40193.547    2734.1597   -42927.707    57.283453   0.98027136 
   21400    222.97623    222.68787    127112.21   -40158.052    2774.2482     -42932.3    57.244365   0.98254521 
   21500     223.8828    373.99568    127029.54   -40140.829    2785.5277   -42926.357    57.431409   0.98318462 
   21600    226.72939    384.09094    127022.58   -40082.637    2820.9447   -42903.581    57.672368   0.98323847 
   21700    222.44048    290.21233    127096.54   -40047.339    2767.5824   -42814.921    58.118734   0.98266632 
   21800    226.68707    253.73601    127105.59   -40029.744    2820.4181   -42850.162    58.499907   0.98259639 
   21900    225.61756    346.91695    127019.18   -40031.817    2807.1114   -42838.928    58.729216    0.9832648 
   22000    223.72727    285.73719    127096.07   -40064.445    2783.5925   -42848.038    58.934918   0.98266994 
   22100     225.1848    212.61858    126908.29   -39994.885    2801.7271   -42796.613    59.108294   0.98412397 
   22200    224.28321    393.04879    126834.03   -40033.516    2790.5096   -42824.026    59.349833   0.98470017 
   22300    217.97538    158.29227    126777.83   -40002.894    2712.0281   -42714.922    59.773586   0.98513671 
   22400    225.63123    133.56095    126876.38   -39949.479    2807.2814    -42756.76    59.872289   0.98437149 
   22500     228.5118     166.3371    126994.04   -39948.735    2843.1213   -42791.856    60.242339   0.98345949 
   22600    229.35227    260.67967    127109.52   -39910.155    2853.5783   -42763.734    60.689145   0.98256602 
   22700    223.66233    227.43369    127040.45   -39933.295    2782.7846    -42716.08     61.13516    0.9831002 
   22800    230.33495    375.32553    127092.68   -39918.657    2865.8047   -42784.461    61.303283   0.98269618 
   22900    223.69658    276.83348    127210.99   -39979.035    2783.2108   -42762.246     61.54142   0.98178225 
   23000    230.17043    109.71403    127244.95   -39969.264    2863.7577   -42833.021    62.051654   0.98152022 
   23100    220.81912    101.04145    126994.65   -40087.681    2747.4097    -42835.09    62.407892   0.98345474 
   23200    223.93972    265.30528    126999.74   -40034.882    2786.2358   -42821.118    62.810512   0.98341535 
   23300    224.75832    311.19154    127004.64   -40074.498    2796.4208   -42870.919    62.865368   0.98337742 
   23400     226.7578    112.20863    127090.49    -40011.57    2821.2982   -42832.869    63.265944   0.98271313 
   23500    220.40734     261.3884    127102.48   -40049.661    2742.2863   -42791.947     63.66125   0.98262038 
   23600    226.04346    378.40436    127240.95   -40040.385    2812.4104   -42852.795    63.924644   0.98155111 
   23700    225.89395    222.67723     127269.4    -40094.87    2810.5502    -42905.42    64.247938   0.98133167 
   23800    223.81855    77.401675     127129.9   -40161.361    2784.7282   -42946.089    64.198265    0.9824085 
   23900    223.53682    245.47763     127054.2   -40192.917     2781.223    -42974.14    64.194045   0.98299383 
   24000     226.4253    197.74095    127050.67   -40116.566    2817.1613   -42933.727    64.677021   0.98302114 
   24100    224.32713    241.41094    127059.53     -40117.5     2791.056   -42908.556    65.048477   0.98295255 
   24200    222.86808     146.3943    126976.25   -40176.065    2772.9026   -42948.968     65.51937   0.98359727 
   24300    226.24503     347.3946    127134.01   -40152.547    2814.9183   -42967.465    65.598767   0.98237671 
   24400    225.78673    345.23184    127198.29   -40196.106    2809.2162   -43005.322    65.908136   0.98188026 
   24500    224.29101    192.30245    127077.15   -40124.537    2790.6065   -42915.143    66.016566   0.98281627 
   24600    221.89283    234.60991    127000.37   -40114.249    2760.7686   -42875.017    66.200749   0.98341043 
   24700    224.49681    286.31891    127015.94   -40142.506    2793.1671   -42935.673    66.549025   0.98328987 
   24800    226.66073     167.6215    127012.37   -40144.763    2820.0903   -42964.853    66.730561   0.98331753 
   24900    221.99415    185.71756    126819.96   -40089.025    2762.0293   -42851.054    67.075202   0.98480941 
   25000    228.64593    340.52238    127017.62   -40061.102    2844.7901   -42905.892    67.373266   0.98327688 
   25100    228.30196    373.47192    127010.79   -40074.348    2840.5105   -42914.859    67.918396   0.98332978 
   25200    225.31837    375.16318    127175.19   -40124.217    2803.3889   -42927.605    68.269816   0.98205863 
   25300    223.13918    284.19965    127161.72   -40121.189    2776.2756   -42897.465    68.476862   0.98216266 
   25400    222.41157    229.63455    127012.21   -40101.413    2767.2228   -42868.636    68.816085   0.98331877 
   25500    225.96876     294.9761    127054.66   -40061.989     2811.481    -42873.47    68.958352   0.98299025 
   25600     223.4663    133.15986    127094.55    -40144.62    2780.3456   -42924.966    69.130625    0.9826817 
   25700    225.99613    285.76114    127123.18   -40164.387    2811.8216   -42976.209    69.149135   0.98246038 
   25800    223.05521    227.53246    127128.72   -40137.807    2775.2309   -42913.038    69.364683   0.98241762 
   25900    225.97982    183.62831    127328.73   -40084.777    2811.6186   -42896.395    69.770898   0.98087443 
   26000    227.72269    72.473155     127366.4   -40003.452    2833.3032   -42836.755    70.072931   0.98058431 
   26100    225.93559    269.34691    127195.96   -40079.912    2811.0682    -42890.98    70.286867   0.98189825 
   26200     225.2572    258.97158    127122.79   -40069.608    2802.6279   -42872.235    70.412753   0.98246339 
   26300    223.14304    157.36729    127219.86   -40033.463    2776.3237   -42809.787    70.490848   0.98171382 
   26400    227.21231    79.841523    127122.82   -40024.248     2826.953   -42851.201    70.620803   0.98246317 
   26500    225.04922    316.54096    127057.82   -40075.726    2800.0402   -42875.766    70.715069   0.98296581 
   26600    220.97931    194.41235    127180.11   -40113.292    2749.4027   -42862.695    70.967133    0.9820206 
   26700    218.65727     320.8597    127183.96   -40142.098    2720.5121   -42862.611    71.266351   0.98199087 
   26800    223.81114    250.68338    127183.69   -40068.425     2784.636   -42853.061    71.708385     0.981993 
   26900    225.93385    280.59514    127156.11    -40078.39    2811.0466   -42889.436     72.18495   0.98220597 
   27000    221.39696    289.49969     127184.1   -40124.755    2754.5991   -42879.354    72.255912   0.98198979 
   27100    226.66763    195.51858    127198.37   -40130.437    2820.1762   -42950.613    72.359316   0.98187966 
   27200    225.12741    371.36367    127398.92   -40147.806    2801.0129   -42948.819    72.466651   0.98033399 
   27300     217.5386    182.32949    126922.41   -40180.714    2706.5938   -42887.308    72.188093   0.98401447 
   27400    222.94018     237.6876    126765.66   -40106.251    2773.7997    -42880.05    72.595861   0.98523125 
   27500    225.07291    384.87059    126692.97   -40014.654    2800.3348   -42814.989    72.916179   0.98579657 
   27600    226.62289    193.38097    126738.76   -40022.895    2819.6196   -42842.514    73.025761   0.98544035 
   27700    223.61964    374.67657    126766.45   -40014.777    2782.2534   -42797.031    73.290654   0.98522508 
   27800    226.26653    25.627573    126684.78   -39937.205    2815.1858    -42752.39    73.546668   0.98586025 
   27900    222.39239    258.64919    126543.12   -39941.267    2766.9842   -42708.252    73.595723   0.98696394 
   28000    220.77115    134.06294     126395.3   -39961.681    2746.8129   -42708.493    73.937328   0.98811814 
   28100    224.18801    148.06689    126350.24   -39943.881     2789.325   -42733.206    74.324106   0.98847053 
   28200    226.56862    62.067543    126183.74    -40001.44    2818.9444   -42820.384    74.418573   0.98977481 
   28300    224.22553     44.42218    126222.97   -39986.021    2789.7919   -42775.812    74.765164   0.98946722 
   28400    221.57188     399.2548    126064.69   -40014.596    2756.7754   -42771.371    75.216583   0.99070953 
   28500    224.27892    344.28782    126216.87   -40048.272    2790.4562   -42838.729    75.536787   0.98951505 
   28600    222.24011    226.42118    126209.15   -39998.078    2765.0895   -42763.167    75.676827    0.9895756 
   28700    221.63006    441.19514    126350.76   -39996.337    2757.4993   -42753.836    76.099476   0.98846649 
   28800    228.69547    143.25106    126581.84   -39958.254    2845.4064    -42803.66    76.594219   0.98666198 
   28900    227.98261    196.05237    126707.87   -39924.316    2836.5371   -42760.853    76.716475   0.98568063 
   29000    221.74002    178.59997    126926.19    -40017.09    2758.8674   -42775.957    76.791048   0.98398523 
   29100    231.79586    409.64943    126999.06   -39968.721    2883.9812   -42852.702    76.981203   0.98342063 
   29200    228.98844    295.64428    127126.89   -39954.136    2849.0515   -42803.187     76.93369   0.98243175 
   29300    228.39636    397.18661     127044.6   -40033.517    2841.6849   -42875.202    77.136747   0.98306806 
   29400    221.50256    308.87761    127071.09   -40094.548     2755.913   -42850.461    77.483914   0.98286311 
   29500    221.21051    154.51305    127386.91   -40138.053    2752.2792   -42890.332    78.167795   0.98042644 
   29600      226.219    223.54797    127477.48   -40052.327    2814.5944   -42866.922    78.670043    0.9797298 
   29700     223.3048    107.41579    127324.99   -40100.223    2778.3363    -42878.56    78.669032   0.98090324 
   29800    224.71451    424.10728    127089.33   -40091.978    2795.8757   -42887.853    78.711976   0.98272205 
   29900    220.24135    59.520088    127145.93   -40133.801    2740.2211   -42874.022    78.712264   0.98228463 
   30000    223.49362    189.40999    127088.05   -40097.441    2780.6856   -42878.126    78.754417   0.98273197 
   30100    223.55862    53.958104    127128.66   -40079.325    2781.4942   -42860.819    79.218898   0.98241806 
   30200    224.86079    247.86225    127141.14     -40077.5    2797.6958   -42875.196    79.708089   0.98232166 
   30300    222.56602    130.18823    127184.86   -40055.714    2769.1444   -42824.859    79.897168   0.98198399 
   30400     226.0518    221.46005    127133.55   -40050.539    2812.5141   -42863.053    80.267706   0.98238027 
   30500    223.55937    405.23123    126954.56   -40053.312    2781.5036   -42834.815    80.518075   0.98376527 
   30600    226.28221    118.87557    127149.55   -40038.369    2815.3809    -42853.75    80.833689   0.98225663 
   30700     227.0985    213.98772    127158.59   -40049.902    2825.5371   -42875.439    81.110857   0.98218682 
   30800    229.51771     197.6259    127178.21   -39986.357    2855.6367   -42841.993    81.399001   0.98203532 
   30900    222.04498    306.71418    127151.36   -40112.198    2762.6617    -42874.86    81.724805   0.98224265 
   31000    224.51402    102.49317    127012.74   -40166.704    2793.3812   -42960.085    81.851456   0.98331468 
   31100    223.00079    503.33429    126999.42   -40169.933    2774.5538   -42944.487    82.022055   0.98341778 
   31200    224.22789     215.9663    127072.88   -40198.735    2789.8213   -42988.556    82.695345   0.98284928 
   31300    222.83683    316.48827    127048.79    -40157.85    2772.5138   -42930.364    82.934947    0.9830357 
   31400    221.35096    121.26952    126942.19   -40112.068    2754.0267   -42866.095    83.183971   0.98386114 
   31500     221.7792    393.98858    126901.45   -40155.996    2759.3549   -42915.351    83.269475   0.98417703 
   31600    227.80041    246.08249     126901.4   -40074.311    2834.2702   -42908.582    83.210176   0.98417741 
   31700    225.58205    81.440564     126826.8   -40097.964    2806.6696   -42904.633    83.751283   0.98475631 
   31800    228.13988    427.08676    126666.99   -40034.544    2838.4939   -42873.037    83.760867   0.98599875 
   31900    225.01171    392.51061     126639.4   -40014.247    2799.5735    -42813.82    83.774925   0.98621358 
   32000     225.9533    139.11089    126539.55   -40011.959    2811.2886   -42823.247    83.832949   0.98699172 
   32100    224.49603    316.45924    126452.33   -40003.341    2793.1574   -42796.498    84.467601   0.98767249 
   32200    225.78199    192.61236    126444.62   -39983.694    2809.1572   -42792.851     84.63976    0.9877327 
   32300    226.77675    100.28868    126297.11    -39958.36    2821.5339   -42779.894    84.869586   0.98888634 
   32400    219.57541    80.486717    126333.38   -40005.299    2731.9356   -42737.234    85.146939   0.98860247 
   32500    223.99311    208.57171    126301.38   -40007.564    2786.9001   -42794.464    85.122426   0.98885296 
   32600    223.14035    527.01914    126498.14   -39934.355    2776.2902   -42710.645    85.666167   0.98731485 
   32700    225.32523      360.883    126562.37   -40006.153    2803.4742   -42809.627    85.864453   0.98681378 
   32800    219.16391    101.80195    126400.49   -40040.072    2726.8157   -42766.887    86.070968   0.98807761 
   32900    222.66547     263.5336    126423.55   -40039.008    2770.3817    -42809.39    86.528677   0.98789736 
   33000    219.89404    524.22917    126583.07   -40093.522       2735.9   -42829.422    86.633032   0.98665239 
   33100    222.82493    307.45617    126484.48   -40016.902    2772.3658   -42789.268    86.804964   0.98742149 
   33200    224.24894    385.16996    126376.05   -40066.287    2790.0832    -42856.37    87.365658   0.98826869 
   33300    222.51831    264.90239    126510.58     -40000.1    2768.5508   -42768.651    87.740758   0.98721774 
   33400    224.79132    250.14822     126530.9    -40077.96    2796.8314   -42874.791    87.932011   0.98705925 
   33500    226.90231    256.63282    126446.87   -40044.821    2823.0961   -42867.917    88.220938   0.98771519 
   33600    227.66142    196.36954    126522.59   -40018.118    2832.5409   -42850.659    88.574249   0.98712402 
   33700    223.39122    193.75115    126449.49   -40014.792    2779.4115   -42794.204    88.973676    0.9876947 
   33800    224.60479    300.73233    126384.41   -40017.486    2794.5106   -42811.997    89.387667    0.9882033 
   33900     221.3331    390.97564    126303.35   -40032.295    2753.8045   -42786.099     89.57713   0.98883751 
   34000    228.52142    346.70847    126457.49   -39987.069    2843.2409    -42830.31    89.748854   0.98763221 
   34100    221.18707    293.36261    126499.35   -40026.487    2751.9877   -42778.475    89.722875    0.9873054 
   34200    226.99053    294.18393     126538.8   -40040.063    2824.1937   -42864.256    90.194436   0.98699761 
   34300     222.0074    61.551556    126502.86   -40092.424    2762.1941   -42854.618    90.759118   0.98727802 
   34400    228.46324    248.91548    126382.65   -40022.423     2842.517    -42864.94      90.6116   0.98821704 
   34500    227.64145    412.36007    126756.35   -40064.686    2832.2924   -42896.978    91.528459   0.98530364 
   34600    226.04659    216.40318    126947.73   -40049.704    2812.4493   -42862.154    91.675014   0.98381821 
   34700     219.1017    167.51789    126851.23   -40136.393    2726.0417   -42862.434    91.849179   0.98456667 
   34800    221.54493    333.77674    126832.81   -40119.807    2756.4401   -42876.247    92.035372   0.98470965 
   34900    224.05363    293.21481    126782.07   -40135.396    2787.6531   -42923.049    92.342775   0.98510376 
   35000    214.38223    119.67192    126722.65   -40203.176    2667.3225   -42870.499    92.563753   0.98556564 
   35100    224.29649    212.87196    126746.85   -40126.183    2790.6748   -42916.858    93.022749   0.98537751 
   35200    223.81964    231.71471    126516.72   -40120.434    2784.7418   -42905.176    92.941525   0.98716986 
   35300    228.85809    225.39295    126533.84   -40114.867    2847.4297   -42962.296    93.886872   0.98703629 
   35400     220.7666    250.78817    126740.63   -40144.525    2746.7562   -42891.281    94.146626   0.98542581 
   35500    227.43768    134.38302    126630.02   -40047.432    2829.7571    -42877.19    94.526222   0.98628663 
   35600    223.27038    291.31119    126712.33   -40095.848     2777.908   -42873.756    95.020852    0.9856459 
   35700    228.41294    278.66745    126662.13   -40055.375    2841.8913   -42897.266     95.03755   0.98603655 
   35800    224.07989    417.59105    126638.09   -40095.229    2787.9799   -42883.209    95.428613   0.98622377 
   35900    224.36844    132.93594    126683.92   -40034.374      2791.57   -42825.944    95.861165   0.98586698 
   36000    224.22493    133.77343    126773.87   -39984.914    2789.7844   -42774.698    96.331688    0.9851675 
   36100      223.981    170.01001    126664.16   -40004.747    2786.7495   -42791.497    96.252123   0.98602077 
   36200    226.73604    159.04008    126512.32   -40038.314    2821.0273   -42859.341     96.44193    0.9872042 
   36300    223.85251    166.83107    126302.48    -40099.01    2785.1508    -42884.16    96.751474    0.9888443 
   36400    223.24788     229.7258    126188.14   -40041.489     2777.628   -42819.117    96.875032   0.98974036 
   36500    224.23296    270.41639    126266.11   -39997.343    2789.8843   -42787.228    97.568724   0.98912916 
   36600    224.72625    238.48312    126406.25    -40113.59    2796.0218   -42909.611    97.821174   0.98803254 
   36700    223.33039    426.02525    126584.28    -40054.03    2778.6546   -42832.685    98.122068     0.986643 
   36800    227.34438    236.93304    126814.27    -40055.44    2828.5963   -42884.036    98.441713   0.98485364 
   36900    223.16749    463.17779    126813.48   -40085.074    2776.6278   -42861.702    99.087159   0.98485976 
   37000    224.48102    78.765495    126942.64    -40026.53    2792.9706     -42819.5    99.200995   0.98385765 
   37100    227.93744     240.6623    126791.83   -40030.158     2835.975   -42866.133    99.535831    0.9850279 
   37200    226.20654    304.11918    126836.53   -40094.482    2814.4394   -42908.922     99.66575   0.98468079 
   37300     225.8637     300.1762    126845.01   -40104.789    2810.1738   -42914.963    100.01591    0.9846149 
   37400    224.13069    308.33902    127070.93   -40145.698    2788.6118    -42934.31     100.1283   0.98286439 
   37500    218.66855    504.18895    127126.03    -40152.53    2720.6525   -42873.183    100.12575   0.98243841 
   37600    220.88594   -61.543997    127251.71   -40089.072     2748.241   -42837.313    100.63075   0.98146811 
   37700    224.60875    310.49606    127000.58   -40081.126    2794.5599   -42875.686    100.42534   0.98340885 
   37800    221.75844    40.139528     126901.5   -40181.158    2759.0966   -42940.255    100.68997   0.98417664 
   37900    223.91622    248.45268    127040.19   -40131.422    2785.9435   -42917.366    100.89596   0.98310222 
   38000    219.24211    221.78904    126865.77   -40101.191    2727.7887   -42828.979    101.08033   0.98445384 
   38100    227.70317    289.97651    126818.39   -40050.284    2833.0603   -42883.344    101.30613    0.9848216 
   38200    222.28452    243.47563    126756.27   -40072.313    2765.6421   -42837.955    101.33343   0.98530428 
   38300    226.81987    188.29737    126756.93   -40018.506    2822.0704   -42840.577     102.0039   0.98529914 
   38400    222.65367    251.33657    126775.05   -40085.867    2770.2349   -42856.102    102.18795   0.98515826 
   38500    228.56389    153.83359    126774.69   -40108.342    2843.7693   -42952.111    102.52931   0.98516112 
   38600    228.02918    355.23521    126678.09   -40071.265    2837.1165   -42908.382    103.02664   0.98591232 
   38700     223.2806    287.24579    126762.51   -40087.458    2778.0351   -42865.493    103.31532   0.98525575 
   38800    221.68955    115.23034    126821.05   -40120.929    2758.2395   -42879.168    103.67667   0.98480097 
   38900    229.77523    413.77736     126889.4   -40066.139    2858.8407    -42924.98    103.68066   0.98427047 
   39000    223.91098    284.23345    126973.19   -40120.557    2785.8783   -42906.436    104.10442   0.98362095 
   39100    221.57256    141.77238     127189.5   -40067.594    2756.7839   -42824.378    104.62688   0.98194812 
   39200    221.65261   -28.363539    127043.35   -40088.878    2757.7799   -42846.658    105.02664   0.98307779 
   39300    224.34803    229.83332    126829.21   -40092.254    2791.3161    -42883.57    105.38071   0.98473759 
   39400    226.48106    149.60466    126906.62   -40060.009     2817.855   -42877.864     105.6907   0.98413693 
   39500    229.59362    192.19406     127002.4   -40026.618    2856.5812   -42883.199    105.69206    0.9833947 
   39600     223.1362    89.202351    126766.62   -40068.523    2776.2386   -42844.761    105.62074   0.98522379 
   39700    228.28515     120.8827    126797.74   -40005.775    2840.3013   -42846.076    105.99793   0.98498201 
   39800    222.31371    345.38092    126863.95   -40060.571    2766.0052   -42826.576    106.63186   0.98446796 
   39900    219.93598    262.27128    126774.38   -40101.329    2736.4218   -42837.751    107.00073   0.98516346 
   40000    217.28741    155.70098    126698.86    -40129.84    2703.4684   -42833.309    107.07676    0.9857507 
   40100    225.80775    213.16123    126735.29   -40034.907    2809.4777   -42844.384     107.0137   0.98546738 
   40200    225.32251     374.0673    126712.62   -40048.201    2803.4404   -42851.641    107.16953   0.98564365 
   40300    230.50652     180.4053    126659.42     -40051.7    2867.9394   -42919.639    107.61651    0.9860577 
   40400    229.55701    357.62913    126557.17   -39969.367    2856.1256   -42825.492    107.97364   0.98685435 
   40500    228.29615    97.021415    126641.47   -39977.196    2840.4382   -42817.634    108.32349   0.98619738 
   40600    227.93344    382.32013    126583.07   -40009.913    2835.9254   -42845.839    108.66899   0.98665241 
   40700    222.44337    233.74276    126400.15   -40076.684    2767.6185   -42844.303    109.07423   0.98808024 
   40800    221.34532    431.92612    126542.81   -40109.691    2753.9566   -42863.647    109.43306   0.98696631 
   40900    219.77728    390.87441    126632.45    -40133.93    2734.4472   -42868.377    109.66394   0.98626768 
   41000    224.54081    294.42253    126726.58   -40056.777    2793.7146   -42850.491    109.72012   0.98553508 
   41100    229.14669     331.8967    126652.59   -40045.569    2851.0205   -42896.589    109.67653   0.98611085 
   41200    224.43971    398.35947    126814.76   -40067.362    2792.4566   -42859.819    109.90809   0.98484982 
   41300    222.35745    167.06039    126810.64   -40233.366    2766.5495   -42999.915    110.01229   0.98488183 
   41400    221.90015    406.99638    126883.76   -40171.437    2760.8597   -42932.296    110.40466   0.98431422 
   41500    222.82131    297.07339    126782.21   -40172.319    2772.3207   -42944.639    110.25342   0.98510266 
   41600     221.8722    238.77736    126692.66   -40119.135     2760.512   -42879.647    110.38052   0.98579895 
   41700    221.26898    99.444225    126682.51    -40089.08    2753.0067   -42842.087    110.89813    0.9858779 
   41800     220.0662    200.19627    126628.39   -40089.912    2738.0419   -42827.954     111.0319   0.98629928 
   41900    228.23819    297.54359    126811.57   -40047.167    2839.7169   -42886.884    111.22252   0.98487461 
   42000    227.64253    383.31487    126980.92   -40036.955    2832.3059   -42869.261    111.41798   0.98356111 
   42100    227.93306    260.55382    126810.28    -40037.05    2835.9206   -42872.971    111.56215   0.98488463 
   42200    227.04979    356.91713    126861.79   -40007.732     2824.931   -42832.663    111.99353   0.98448466 
   42300     225.6045    234.83467    126940.98   -39994.788    2806.9489   -42801.737    112.46708   0.98387058 
   42400    227.78197    307.22484    126979.92   -40033.072    2834.0408   -42867.113    112.63554   0.98356886 
   42500    226.98479    297.88816     127043.8   -40041.238    2824.1223    -42865.36    112.85906   0.98307426 
   42600    226.16254    276.48277    126948.89   -40058.259     2813.892   -42872.151    113.05627   0.98380921 
   42700    227.03494    44.696873    126945.95   -40076.984    2824.7462   -42901.731      112.945   0.98383204 
   42800    228.12726    206.67773    127040.57   -40030.077    2838.3368   -42868.414    113.13381   0.98309927 
   42900    222.06212    264.08435    127030.98   -40098.171    2762.8749   -42861.046    113.27732   0.98317347 
   43000    226.63674    348.11238    127070.71   -40121.065    2819.7919   -42940.857    113.76998    0.9828661 
   43100    227.09932     132.6266    127099.84   -40103.827    2825.5472   -42929.374    114.10982   0.98264079 
   43200    227.56454    235.67941    127070.61   -40066.495    2831.3355   -42897.831    114.28716   0.98286686 
   43300    228.43073    206.15264    127077.87   -40083.974    2842.1126   -42926.087     114.5084   0.98281068 
   43400    224.52833    243.70845    127184.56   -40036.224    2793.5593   -42829.783    114.94686   0.98198626 
   43500    226.63675    144.25504    127058.68   -40047.642    2819.7921   -42867.434    115.34683   0.98295914 
   43600    232.51347    157.02534    126947.94   -39949.032    2892.9096   -42841.941    115.93538   0.98381659 
   43700    225.58094    186.15287    126805.62   -39976.811    2806.6557   -42783.467    116.23509   0.98492078 
   43800    231.94862    317.27578    126966.86   -39975.657    2885.8819   -42861.539    116.62546      0.98367 
   43900    231.22431    142.39303    126921.99   -40012.039    2876.8699   -42888.909    116.77938   0.98401771 
   44000    223.72735    343.56569    127060.94   -40050.231    2783.5936   -42833.824    117.09786   0.98294165 
   44100    224.93108    183.14572    126983.25    -40084.94    2798.5702    -42883.51    117.43777   0.98354306 
   44200    223.09542    253.89863    127348.71   -40118.658    2775.7311   -42894.389    117.75596   0.98072054 
   44300    221.59694    401.37919    127274.01    -40139.18    2757.0873   -42896.268    118.14395   0.98129612 
   44400    227.97204    343.04574    127441.82   -40104.569    2836.4056   -42940.974    118.28475   0.98000401 
   44500    221.35759    271.76218    127359.24   -40137.039    2754.1093   -42891.148    118.29485   0.98063945 
   44600    221.73528    281.37212    127651.52   -40205.726    2758.8084   -42964.535    118.65116    0.9783941 
   44700    224.30034    348.77522    127614.18   -40191.444    2790.7227   -42982.167    118.78258   0.97868038 
   44800    221.95127    347.10189    127700.99   -40167.388    2761.4958   -42928.884    118.80095   0.97801505 
   44900    226.45472    74.510359    127743.27   -40122.357    2817.5273   -42939.884    118.90267   0.97769138 
   45000    227.25034    359.11813    127851.02   -40117.026    2827.4263   -42944.452    119.42123   0.97686739 
   45100    229.14824    193.16188    127741.96   -40070.793    2851.0397   -42921.832    119.39171   0.97770139 
   45200    221.06775    333.43103       127604   -40141.776    2750.5031   -42892.279    119.52673   0.97875847 
   45300    226.17044    294.59847    127740.66   -40156.701    2813.9902   -42970.691       119.61   0.97771136 
   45400    226.87725    167.12883    127873.44   -40131.372    2822.7843   -42954.156    119.87692   0.97669614 
   45500    222.92763    460.17851    127921.97   -40140.306    2773.6435    -42913.95     119.8603   0.97632559 
   45600    228.75971    452.19961    128080.57   -40135.534    2846.2057    -42981.74    120.04865    0.9751166 
   45700    222.92616     161.2716    128199.91   -40147.991    2773.6253   -42921.617    120.37482    0.9742089 
   45800    226.58605      153.765    128027.34   -40106.271    2819.1612   -42925.432    120.46268   0.97552201 
   45900    230.14817    121.32366    127951.58   -40050.309    2863.4808    -42913.79    120.72973   0.97609965 
   46000     230.0128    148.86263    127797.57   -40031.043    2861.7965   -42892.839    120.58306   0.97727596 
   46100      230.163   -7.7853848    127541.48   -39977.619    2863.6653   -42841.284    120.72396   0.97923825 
   46200    226.92009    302.38127    127569.83   -39965.189    2823.3173   -42788.506    120.95236    0.9790206 
   46300    231.44691    100.01418    127452.31   -39996.499    2879.6396   -42876.139    120.95768   0.97992331 
   46400    228.59387    374.81217     127378.6   -40029.563    2844.1424   -42873.705     120.8487   0.98049041 
   46500     230.8659    544.79023    127399.68   -40040.184    2872.4107   -42912.595    121.30954   0.98032812 
   46600    227.27116    86.861477    127398.15   -40038.524    2827.6853   -42866.209    121.64195   0.98033989 
   46700    222.57949    265.01457    127108.31   -40122.928     2769.312    -42892.24    121.77141   0.98257531 
   46800     219.8727    244.42291    127178.41   -40163.366    2735.6344   -42899.001    122.28772   0.98203377 
   46900    227.60274    227.69818    127242.02   -40061.902    2831.8108   -42893.713     122.4596   0.98154282 
   47000    224.43437    175.77079    127096.31   -40035.008    2792.3902   -42827.399    122.72093   0.98266808 
   47100    227.93852    140.00745    126816.85   -39998.095    2835.9885   -42834.083    122.60523   0.98483355 
   47200    226.10389    145.05424    126780.32   -40031.634    2813.1623   -42844.796     123.4246   0.98511731 
   47300    225.94624    42.514631    126625.66   -40047.754    2811.2008   -42858.955    123.65282   0.98632056 
   47400    224.09157     296.8879    126570.38   -39995.453    2788.1251   -42783.578    124.24131   0.98675134 
   47500    226.22605    349.42067    126861.76   -39931.148    2814.6822    -42745.83    124.89588   0.98448492 
   47600    229.56114     167.8014    126524.68   -39879.186     2856.177   -42735.363    124.73123   0.98710774 
   47700    225.98085    467.58233    126505.59   -39921.378    2811.6314    -42733.01    125.36906   0.98725672 
   47800     225.1828    50.476888    126662.62   -39910.466    2801.7022   -42712.168    125.62863   0.98603274 
   47900    223.41367     250.0199    126491.83   -39984.119    2779.6908    -42763.81    125.52524   0.98736411 
   48000    221.89886    317.58616    126573.02   -39969.872    2760.8437   -42730.716     126.1182   0.98673078 
   48100    225.14132    282.07592    126517.11   -39922.007    2801.1861   -42723.193    125.72593    0.9871668 
   48200    224.61345     256.0994    126498.96   -39941.751    2794.6183   -42736.369    125.67211   0.98730845 
   48300    222.33528    266.37536    126392.69   -39908.237    2766.2736   -42674.511    125.85162   0.98813857 
   48400    226.44161    228.31011    126188.12   -39809.337    2817.3642   -42626.701    126.24379   0.98974052 
   48500    227.23429    347.31702    126255.45   -39868.986    2827.2266   -42696.212     126.5812   0.98921269 
   48600    226.39195    299.57314    126348.76   -39874.133    2816.7463   -42690.879    127.13229   0.98848213 
   48700    232.04008    311.60137    126539.23   -39834.771    2887.0198   -42721.791    127.87776   0.98699425 
   48800    226.04451    263.94894    126608.58   -39881.565    2812.4234   -42693.989    128.09432   0.98645364 
   48900    228.63141    501.68457    126434.69   -39877.048    2844.6093   -42721.658    128.23537   0.98781034 
   49000    226.64732    323.36622    126452.09   -39921.087    2819.9235    -42741.01    128.32887   0.98767441 
   49100     224.4602    184.46311    126502.69   -39931.341    2792.7117   -42724.053    128.49785   0.98727936 
   49200    225.41906     219.5961     126524.8    -39959.83    2804.6417   -42764.472    128.72757   0.98710679 
   49300    226.05482     310.3817    126424.06   -39895.987    2812.5517   -42708.539    128.68773   0.98789339 
   49400    222.07242    102.78147    126189.81   -39869.978    2763.0031   -42632.981    128.45045    0.9897272 
   49500    227.39298    346.74845    126198.75   -39880.632     2829.201   -42709.833    128.60865   0.98965709 
   49600    228.33318    379.95794    126305.98   -39886.142    2840.8989   -42727.041    129.05668   0.98881691 
   49700    222.27495    272.33571    126202.49   -39898.441     2765.523   -42663.964    128.99983   0.98962778 
   49800    224.63012    7.7141495    126272.82   -39945.598    2794.8257   -42740.423    129.38224   0.98907663 
   49900    229.81988    194.53526    126112.99   -39834.927    2859.3962   -42694.324    129.97277   0.99033007 
   50000    230.88264    181.05591    125984.15   -39885.454    2872.6189   -42758.073    130.23161    0.9913429 
   50100    223.98501    216.86444    126156.51   -39905.142    2786.7993   -42691.942    130.43707   0.98998846 
   50200    226.53848    269.83111    126247.06   -39970.893    2818.5693   -42789.462    131.35093   0.98927841 
   50300    226.28436    389.54001    126208.29   -39930.282    2815.4076    -42745.69    131.70936   0.98958232 
   50400    226.11237    179.92019    126049.19   -39949.642    2813.2677    -42762.91    132.19047    0.9908314 
   50500     222.5898    377.47715    126177.35   -39990.076    2769.4403   -42759.516    132.51543     0.989825 
   50600    223.20629     291.2619    126409.49   -40009.071    2777.1106   -42786.181    132.86539   0.98800725 
   50700    223.72135     134.7804    126204.51   -40036.905    2783.5189   -42820.424    133.24543   0.98961198 
   50800    222.56349    305.48975    126193.28   -40028.806    2769.1129   -42797.919    134.11757   0.98969998 
   50900    226.26042    302.43419    126182.99   -39946.234    2815.1098   -42761.344     134.3483   0.98978069 
   51000    222.67871    255.81325    126177.39   -39972.623    2770.5465    -42743.17    134.64263   0.98982465 
   51100     223.3523    260.20599     126052.3   -39994.122    2778.9273   -42773.049     135.1041   0.99080692 
   51200    223.82091   -44.923263    125871.73   -39983.962    2784.7576   -42768.719    135.21934   0.99222832 
   51300    221.86602    385.68849    126045.44   -40047.084    2760.4351    -42807.52    135.64792   0.99086088 
   51400    219.68506    323.14144    126054.99   -40038.129    2733.2998   -42771.429    135.85008   0.99078578 
   51500    220.66557    288.37213     126135.8   -40023.503    2745.4992   -42769.002    135.61521   0.99015102 
   51600    221.63498    379.76971    126057.91   -39968.164    2757.5605   -42725.724    136.02969   0.99076286 
   51700    226.72769    269.45158       126096   -39968.238    2820.9235   -42789.162    136.57967   0.99046358 
   51800    220.42367    338.08484    126081.62   -39999.317    2742.4895   -42741.806    137.02845   0.99057653 
   51900    222.96673    204.75569    126103.38   -40030.964      2774.13   -42805.094    137.99055   0.99040556 
   52000    224.43105    283.48203    125982.16   -40044.708    2792.3489   -42837.057    138.18129   0.99135858 
   52100    223.84146    222.52296    126318.35   -39997.736    2785.0133   -42782.749    138.75712   0.98872012 
   52200     222.6199    26.493673    126287.36    -40038.76    2769.8148   -42808.575    138.68706   0.98896271 
   52300    223.35165    89.139072    126198.08   -40030.576    2778.9191   -42809.495     138.8907   0.98966234 
   52400    227.32333     320.5346     125918.5   -39980.652    2828.3344   -42808.986    138.99247   0.99185978 
   52500    226.96443    266.38049    126025.41   -39989.213     2823.869   -42813.082    139.60312   0.99101832 
   52600    224.86136    382.28425    126201.27    -40030.98    2797.7028   -42828.682    140.03218   0.98963736 
   52700     222.0628    292.81875    126230.47   -40051.966    2762.8834    -42814.85    140.43638   0.98940844 
   52800    223.97651     475.1541    126218.81   -39988.103    2786.6936   -42774.797     140.9391   0.98949979 
   52900    221.52567    445.74508    126428.84   -39946.736    2756.2005   -42702.937    141.19798   0.98785605 
   53000     226.4522    299.55385    126468.59   -39929.447    2817.4959   -42746.942    141.41369   0.98754551 
   53100    227.29445    109.73435     126417.3   -39975.674    2827.9751   -42803.649    141.24092   0.98794617 
   53200    224.15161     354.7056    126282.77   -39958.841    2788.8722   -42747.713    141.74202   0.98899867 
   53300    222.47815    355.99243    126061.41   -39953.728    2768.0512   -42721.779    142.18901   0.99073531 
   53400    220.70356    144.13186    125830.61   -40016.819    2745.9719    -42762.79    142.59375   0.99255255 
   53500    225.37597    203.55956    125924.77   -40026.336    2804.1055   -42830.441    142.74863   0.99181032 
   53600    220.31946     297.9024    125942.84     -40030.3     2741.193   -42771.493    143.38288   0.99166803 
   53700    219.49982    443.60273    126352.94   -40056.206     2730.995   -42787.201    143.66671   0.98844943 
   53800    223.84688    150.87768    126240.85   -39931.603    2785.0807   -42716.684    143.62621    0.9893271 
   53900    221.68332    341.75643    126072.51   -39996.058     2758.162    -42754.22    143.68464   0.99064805 
   54000     223.4383     79.86427    126247.25   -39979.686    2779.9973   -42759.684    143.95779   0.98927696 
   54100    221.77026    254.39243    126259.32   -40001.424    2759.2437   -42760.668    144.52514   0.98918237 
   54200      224.566    263.09728    126259.08   -39973.602     2794.028    -42767.63    144.68571   0.98918424 
   54300    225.30347    167.94979    126387.14   -39955.908    2803.2035   -42759.112    145.48771   0.98818193 
   54400    226.39639    157.06027    126540.05   -39985.512    2816.8016   -42802.314    145.64945   0.98698782 
   54500    223.55281     392.4095    126664.59   -39968.761    2781.4219   -42750.182    145.46855   0.98601738 
   54600    227.17063     248.6482    126623.47   -39875.302    2826.4345   -42701.736    145.97866   0.98633764 
   54700    225.42057     372.0155    126362.88   -39875.481    2804.6604   -42680.142    145.89696   0.98837168 
   54800    227.63765    331.65379    126705.35   -39946.298    2832.2451   -42778.544    146.83056   0.98570018 
   54900    224.96832    254.45083    126755.65   -40013.121    2799.0336   -42812.155    147.27039   0.98530904 
   55000    223.25258    257.09747    126681.25   -40080.985    2777.6865   -42858.672    147.14131   0.98588771 
   55100    225.12321    371.88052    126710.77    -40050.14    2800.9608   -42851.101    147.54757   0.98565807 
   55200    223.94354    262.87319    126663.61   -40066.973    2786.2834   -42853.256    147.84016   0.98602508 
   55300    227.34375    227.38055    126430.91   -40026.556    2828.5884   -42855.145    147.73996   0.98783982 
   55400    222.66979    225.72523    126287.57   -40001.276    2770.4355   -42771.712     148.0833   0.98896105 
   55500    225.90354    167.99658    126177.67   -39938.136    2810.6695   -42748.805    149.03913   0.98982243 
   55600    226.56843    419.67715    126271.09    -39944.47     2818.942   -42763.412    149.56375   0.98909017 
   55700    225.32161    400.03707    126323.17   -39937.144    2803.4291   -42740.573    149.66372   0.98868235 
   55800    227.07503    170.69586    126092.89   -39965.647    2825.2451   -42790.892    149.65715   0.99048801 
   55900    228.33803    271.29584    126416.07   -39946.858    2840.9592   -42787.817      150.505   0.98795583 
   56000    233.68479    194.16206    126429.66    -39929.89     2907.483   -42837.373    150.80816   0.98784962 
   56100    225.71988    225.08577    126309.57   -39890.527    2808.3845   -42698.912     150.6757   0.98878884 
   56200    228.40809    350.61714    126418.88   -39895.026    2841.8308   -42736.857     150.9841   0.98793388 
   56300    227.70768    83.235401    126549.84   -39937.073    2833.1164    -42770.19    150.97406   0.98691152 
   56400    222.94759    343.53564     126561.1   -39942.866    2773.8919   -42716.758     151.3714   0.98682365 
   56500    221.56413    112.81928    126598.61   -40022.914     2756.679   -42779.593    151.63507   0.98653133 
   56600    224.50638    380.78092    126788.15   -40048.708    2793.2862   -42841.995    151.83853   0.98505651 
   56700    224.68513      182.817    126934.57   -40097.654    2795.5102   -42893.164    152.41817   0.98392024 
   56800     225.8096    147.38594    126688.25   -40027.838    2809.5008   -42837.339     152.2925   0.98583325 
   56900    222.71116    551.47604    126659.33   -40009.894    2770.9503   -42780.844    153.00726   0.98605835 
   57000    228.45377    201.14092    126901.13   -39942.065    2842.3993   -42784.465    153.43528   0.98417954 
   57100    226.23173    267.46819    126924.28   -40004.141    2814.7528   -42818.893    153.70634        0.984 
   57200    221.96713    268.50415     126713.5   -40065.874     2761.693   -42827.567    153.97772   0.98563682 
   57300    221.15313   -17.792495    126681.74   -40121.275    2751.5654    -42872.84    154.51922   0.98588395 
   57400     221.9555    375.23612    126665.88   -40131.273    2761.5484   -42892.821    154.69388   0.98600739 
   57500    214.82994    292.36853    126808.43   -40186.774    2672.8928   -42859.667    154.70419   0.98489899 
   57600    219.55266    244.72625    126994.06   -40133.204    2731.6525   -42864.857    155.14174   0.98345935 
   57700    219.91717    113.04832    126922.21   -40176.891    2736.1877   -42913.079    155.44937   0.98401601 
   57800    222.53116    443.43948    126974.89   -40217.528    2768.7108   -42986.238    155.59123   0.98360778 
   57900    223.53784    224.23685    126890.75     -40203.1    2781.2357   -42984.336    155.55329   0.98426003 
   58000    220.42357    257.25201     126931.7   -40215.599    2742.4882   -42958.087     155.5598   0.98394245 
   58100    220.52271    364.61475    126938.58   -40135.141    2743.7218   -42878.862    155.91093   0.98388912 
   58200    226.33753     21.36077    127007.06   -40080.093    2816.0691   -42896.162    155.96723   0.98335869 
   58300    227.69815    357.10148    127028.84   -40029.901    2832.9979   -42862.899      156.726   0.98319009 
   58400    228.26473    158.79674    126877.74   -40046.057    2840.0472   -42886.104    157.17772   0.98436094 
   58500    227.48039    255.88036    126834.38   -40051.531    2830.2885   -42881.819    157.74112   0.98469748 
   58600    227.52859    249.13045    126819.81   -40017.943    2830.8883   -42848.831    157.83229   0.98481061 
   58700    229.99019    324.13218    126887.73   -40010.437    2861.5152   -42871.952    158.10464   0.98428344 
   58800    226.50474    150.31792    126858.48   -40052.375    2818.1495   -42870.525    157.98437   0.98451042 
   58900    223.65637    332.41699    126882.53   -40093.715    2782.7105   -42876.425    158.27705   0.98432378 
   59000    221.60824    97.414929    126936.88   -40065.578    2757.2278   -42822.806    158.85389    0.9839023 
   59100    222.95519    123.42923    126843.91   -40062.279    2773.9865   -42836.266    159.01082    0.9846235 
   59200    226.36555    324.78395     126910.3   -40070.504    2816.4178   -42886.921    159.46623   0.98410839 
   59300    223.38185    284.95332    126792.67    -40062.23     2779.295   -42841.524    159.37734   0.98502141 
   59400    219.11264    90.805064    126787.57   -40082.321    2726.1778   -42808.499    159.76905   0.98506098 
   59500    225.45156    159.29415    126740.99   -40057.769    2805.0461   -42862.815    159.95039   0.98542301 
   59600    225.61695    394.93812    126917.62   -40055.473    2807.1038   -42862.577    160.40011   0.98405162 
   59700    224.92467    295.78842    126947.85   -40101.552    2798.4905   -42900.043    160.42318   0.98381729 
   59800    220.78043    459.53524    127044.16   -40098.448    2746.9283   -42845.377    160.42944   0.98307152 
   59900    226.33962    284.07752    127240.49   -40075.029    2816.0952   -42891.124     160.6851   0.98155464 
   60000    223.65525    269.86317    127036.41   -40110.733    2782.6965    -42893.43    160.78688   0.98313143 
   60100    223.07922    165.68742    127204.46   -40088.072    2775.5296   -42863.602    161.46304   0.98183262 
   60200    227.37996    241.99097    127284.64   -40065.269     2829.039   -42894.308    162.13098   0.98121414 
   60300    221.94502    129.67453    127013.45   -40031.727     2761.418   -42793.145    162.13128   0.98330918 
   60400    230.98244    286.64567    127117.55   -39982.059    2873.8606    -42855.92    162.30521   0.98250394 
   60500    225.66254    111.20343    127104.92   -40019.668     2807.671   -42827.339    162.87781   0.98260151 
   60600    227.46172    151.64332    127359.13   -40083.814    2830.0563   -42913.871    162.83054   0.98064028 
   60700    226.33697    274.90978     127255.1   -40102.916    2816.0622   -42918.978    162.54695   0.98144193 
   60800    227.43409    323.63575    127305.04    -40075.44    2829.7125   -42905.153    162.79876   0.98105696 
   60900    230.47887    146.58904    127236.23   -40061.851    2867.5953   -42929.446    162.86013   0.98158747 
   61000     227.7045    211.07066    127421.61   -40110.993    2833.0768   -42944.069    163.04397   0.98015943 
   61100     221.7214    340.82976    127545.43   -40160.009    2758.6357   -42918.645    163.58283   0.97920791 
   61200    225.47127    190.89665    127528.96   -40166.234    2805.2913   -42971.525     163.5172   0.97933436 
   61300    225.07939    464.38437    127265.13   -40141.732    2800.4156   -42942.148    163.63418   0.98136455 
   61400    221.68247    200.97206     127313.7   -40156.412    2758.1514   -42914.563    163.91972   0.98099023 
   61500    221.99311    308.48471    127258.26   -40143.845    2762.0164   -42905.862    164.80257   0.98141756 
   61600     224.0411    179.20125    127300.85    -40114.25    2787.4972   -42901.747    165.07894   0.98108925 
   61700    222.04794    125.03465    127190.72    -40191.38    2762.6985   -42954.078    165.48118   0.98193874 
   61800    221.05947    274.55395     127221.5   -40264.912       2750.4   -43015.312    165.48074   0.98170113 
   61900    222.16257    411.16335    127336.07    -40199.46    2764.1247   -42963.585    165.85871   0.98081788 
   62000    223.16635    245.92829    127406.95   -40154.046    2776.6137    -42930.66    166.14233   0.98027224 
   62100     225.6078    212.92936    127516.03   -40164.791    2806.9899   -42971.781    166.72962   0.97943367 
   62200    224.09646    394.23016    127570.84   -40122.548     2788.186   -42910.734    166.97755   0.97901285 
   62300    220.30416    101.44734    127426.21   -40153.449    2741.0025   -42894.452    166.92134   0.98012406 
   62400      224.862    406.72708    127435.88   -40088.426    2797.7107   -42886.137    167.13034   0.98004962 
   62500    227.63837    325.57755    127665.42   -40107.161    2832.2541   -42939.415    167.75415   0.97828754 
   62600     224.8935    269.47225     127594.8   -40109.657    2798.1027    -42907.76    167.59588   0.97882899 
   62700    222.21814    239.09713    127472.95   -40136.012    2764.8161   -42900.828    167.43273   0.97976467 
   62800    225.02985    219.28428    127383.03   -40111.338    2799.7992   -42911.137    167.36873   0.98045627 
   62900    222.94024    167.66796    127334.32   -40049.176    2773.8004   -42822.977    167.60353   0.98083135 
   63000    229.00787    123.39646    127237.35   -40004.886    2849.2933   -42854.179    167.85542   0.98157888 
   63100     228.0801    177.56067    127132.06   -39995.973      2837.75   -42833.723    168.13148   0.98239179 
   63200     224.8724    301.93397    127106.73   -40016.896    2797.8402   -42814.736    168.19085   0.98258755 
   63300    225.77908    225.43195    127244.07   -40046.415     2809.121   -42855.536    168.72504   0.98152697 
   63400    227.88436    317.11095    127241.86   -39959.084    2835.3147   -42794.399    169.11749   0.98154404 
   63500    225.74357    159.15655    127136.86   -40052.777    2808.6792   -42861.456    168.88141   0.98235472 
   63600    226.19403    168.53162     127049.2   -40051.011    2814.2838   -42865.295    169.05418   0.98303246 
   63700     224.8478    160.67846    127060.26   -40052.008    2797.5341   -42849.543    169.36486    0.9829469 
   63800    221.57781    45.992612    126866.06   -40169.123    2756.8492   -42925.972    169.24323   0.98445159 
   63900    219.91201    225.31344    126718.75    -40168.16    2736.1234   -42904.284    169.23842   0.98559595 
   64000    225.78996    284.97501    127039.57   -40156.254    2809.2564    -42965.51    169.99502   0.98310698 
   64100    224.80631    174.59777    126866.39   -40074.242    2797.0179    -42871.26    170.25671   0.98444902 
   64200    225.68459    185.49475    126943.19   -40067.133    2807.9454   -42875.078    170.64306   0.98385345 
   64300     233.9414    173.87127    126971.93   -39985.872    2910.6758   -42896.547    170.65213    0.9836307 
   64400    229.83262    186.83237    127102.49   -40033.694    2859.5548   -42893.249    170.90577   0.98262034 
   64500    230.89627    198.22537    126962.97   -40049.774    2872.7886   -42922.563    170.97819   0.98370011 
   64600    230.38462    286.43181    126967.34   -40113.111    2866.4227   -42979.534     170.8019   0.98366625 
   64700    222.76521    295.87422    127004.17   -40135.679    2771.6227   -42907.302    171.26167   0.98338104 
   64800    223.49702    163.00544    126895.84   -40151.044    2780.7279   -42931.772    171.46585    0.9842205 
   64900    225.73224    254.12302    126947.34   -40125.836    2808.5382   -42934.374    171.30061   0.98382129 
   65000    228.19696    187.58266    127001.84   -40092.045     2839.204   -42931.249    171.67604   0.98339908 
   65100    222.63836    57.510993    126848.67   -40107.575    2770.0444   -42877.619     172.1383   0.98458649 
   65200    225.82485     297.4728    126952.96   -40085.115    2809.6905   -42894.805    172.17984   0.98377768 
   65300    226.05819    261.24505    126992.52   -40068.608    2812.5936   -42881.201    172.39413   0.98347123 
   65400    227.77778    140.34915    126949.85   -40004.341    2833.9886    -42838.33    172.73331   0.98380182 
   65500    227.86193    260.15559    126935.51   -40063.245    2835.0356    -42898.28    173.36771   0.98391293 
   65600     221.4438    47.173698    126789.59   -40085.459    2755.1819   -42840.641     173.4024   0.98504534 
   65700    224.12736    372.51927     126904.7    -40121.75    2788.5704   -42910.321    173.40319   0.98415184 
   65800    224.19851    270.60282    126842.37   -40147.745    2789.4557     -42937.2    173.73709    0.9846354 
   65900    224.82765    271.57853    126966.55   -40106.896    2797.2834   -42904.179    174.12901   0.98367241 
   66000    222.48821    170.61569    126792.77   -40018.797    2768.1763   -42786.973    174.00496   0.98502058 
   66100    225.18576     210.2406    126803.84   -39951.373     2801.739   -42753.112    174.71432   0.98493463 
   66200    229.10591     203.7603    127033.93   -39934.558    2850.5131   -42785.071    175.17973   0.98315065 
   66300    225.28296    225.61243    127065.48   -39980.578    2802.9484   -42783.526    175.71694   0.98290652 
   66400    227.35387    241.22549    126872.44   -40030.083    2828.7144   -42858.797    175.97118   0.98440202 
   66500     224.3865    68.732043    126812.58   -40073.106    2791.7946   -42864.901    175.78012    0.9848667 
   66600    224.82738    284.37213    126888.47   -40095.606      2797.28   -42892.886    176.14869   0.98427773 
   66700    221.89657    241.56121    126873.21   -40123.784    2760.8151     -42884.6    176.22506   0.98439612 
   66800    227.99375    306.94701    127066.99   -40073.926    2836.6756   -42910.602    176.99528   0.98289484 
[...]
   84600    221.82154    311.85199    127183.15   -40167.167    2759.8817   -42927.049    223.25905   0.98199713 
   84700     222.4426    358.61301     127141.8   -40168.343    2767.6088   -42935.951     223.2968   0.98231654 
   84800    222.71968    283.24831    127107.46   -40141.779    2771.0563   -42912.835    223.79921   0.98258191 
   84900    224.15725    312.82696    127353.93    -40132.37    2788.9423   -42921.313    224.47283   0.98068031 
   85000    225.39218    179.17842    127279.78   -40081.092    2804.3072   -42885.399    224.89672   0.98125166 
   85100    222.39581    350.66005    127255.12   -40096.421    2767.0267   -42863.447    225.23797   0.98144176 
   85200    226.55601    366.38097    127350.85   -40098.484    2818.7875   -42917.271    225.49842   0.98070402 
   85300    224.04196    254.36905    127484.75    -40140.25    2787.5079   -42927.758    226.55554   0.97967396 
   85400    226.25778     146.5567    127610.13   -40135.679    2815.0769   -42950.756    226.99191   0.97871141 
   85500    221.04187    352.18292    127630.28   -40116.098    2750.1811   -42866.279     227.6903   0.97855692 
   85600    227.83113    250.00452    127706.27   -40086.235    2834.6524   -42920.888     227.6589   0.97797464 
   85700     224.1375    182.31542    127637.13   -40123.449    2788.6966   -42912.145    227.76035   0.97850437 
   85800    223.80902    121.95073       127587   -40119.343    2784.6097   -42903.953    228.47178   0.97888881 
   85900    227.53068    38.965295    127453.61   -40024.302    2830.9142   -42855.216    228.46744   0.97991333 
   86000    226.11171     177.8894     127284.1   -40080.977    2813.2596   -42894.237    228.03451   0.98121829 
   86100    227.04969     333.8467    127414.82   -40079.636    2824.9298   -42904.566    228.29568   0.98021166 
   86200    227.48251    322.87137    127283.84   -40074.772    2830.3149   -42905.087    228.28531   0.98122032 
   86300    227.09563    355.40096    127519.29   -40116.817    2825.5014   -42942.318     229.0515   0.97940862 
   86400    225.57071    170.50702    127569.48    -40134.62    2806.5285   -42941.148    229.31399   0.97902325 
   86500    223.02181    205.44964    127699.51   -40120.012    2774.8153   -42894.827    229.47766   0.97802642 
   86600    223.61057    88.014332    127653.62   -40051.946    2782.1407   -42834.087    229.88213   0.97837796 
   86700    229.47929    287.27237    127767.72   -40052.236    2855.1586   -42907.395    230.12008   0.97750428 
   86800    225.10001    399.88414    127869.43   -40129.461    2800.6721   -42930.133    230.81466   0.97672672 
   86900    229.43121    334.85763    127824.97   -40115.594    2854.5604   -42970.154    230.84419   0.97706642 
   87000     221.9014     235.3129     127792.3    -40133.11    2760.8753   -42893.985    231.36417   0.97731624 
   87100    225.25994    129.49039    127916.33   -40156.136    2802.6619   -42958.798    231.76635   0.97636861 
   87200    225.41327    383.89025    127656.83   -40146.696    2804.5696   -42951.266    231.35045   0.97835339 
   87300    227.18089    176.30449    127765.89   -40156.035    2826.5622   -42982.597    232.18586   0.97751826 
   87400    223.73757   -21.443935    127582.21   -40159.143    2783.7208   -42942.864    232.31429   0.97892558 
   87500    224.83526    112.99226    127534.92   -40168.417    2797.3781   -42965.795    232.62399   0.97928859 
   87600    225.50389    183.24649     127430.8   -40170.196    2805.6971   -42975.893    232.99598   0.98008873 
   87700    226.27702    256.01162    127365.05   -40176.547    2815.3164   -42991.864    232.89938   0.98059471 
   87800    230.08463    287.50722    127435.51   -40140.071    2862.6902   -43002.761    233.15274   0.98005247 
   87900    227.56164    351.44222    127476.53   -40147.071    2831.2994   -42978.371    233.28432   0.97973716 
   88000    219.76123     252.9245    127290.05   -40160.118    2734.2475   -42894.365    232.91008   0.98117245 
   88100    227.31378    265.69624    127529.05   -40083.046    2828.2156   -42911.261    233.29684   0.97933364 
   88200    222.92825    108.71942    127349.35   -40063.251    2773.6512   -42836.903    233.31449   0.98071556 
   88300    221.02708    175.38985    127296.35   -40085.468    2749.9971   -42835.465     233.9072   0.98112392 
   88400    215.58188    375.61059    127339.73   -40181.419    2682.2484   -42863.667    234.43715   0.98078963 
   88500    225.88667    397.69973    127442.44   -40082.994    2810.4596   -42893.453    235.05173   0.97999919 
   88600    225.04654    329.02871    127532.63   -40038.726    2800.0068   -42838.733    235.70356   0.97930616 
   88700    229.16781    357.63686    127558.18   -40022.244    2851.2832   -42873.527    235.28482   0.97911002 
   88800    228.34852     393.8798     127883.5   -39953.238    2841.0897   -42794.328    235.71932   0.97661927 
   88900    229.03448    171.88703    127705.76   -40011.159    2849.6243   -42860.783    235.79088   0.97797849 
   89000    233.05464    175.27085       127663    -40015.55    2899.6427   -42915.193    236.47405   0.97830611 
   89100    223.06557    340.17592    127817.17   -40128.362    2775.3598   -42903.722    236.71151   0.97712608 
   89200    223.03174    183.88886    127581.66   -40154.879    2774.9388   -42929.818    236.88234   0.97892978 
   89300    225.71365    321.09815       127510   -40165.737    2808.3069   -42974.044    237.23743   0.97947996 
   89400    222.80534    153.52417     127456.8   -40199.365     2772.122   -42971.487     237.7747   0.97988877 
   89500    221.05457    392.70457    127651.53   -40235.573    2750.3391   -42985.912    238.49039   0.97839404 
   89600    215.83917    149.65038    127524.83   -40278.353    2685.4496   -42963.802     238.4926   0.97936607 
   89700    221.53548    167.47841    127520.68   -40243.329    2756.3225   -42999.652    238.57216   0.97939793 
   89800    222.36341    304.27875    127449.83    -40204.15    2766.6236   -42970.774     238.3097    0.9799424 
   89900    219.68477    159.09196    127371.76   -40272.288    2733.2962   -43005.584    238.30076   0.98054306 
   90000    227.35823    462.10088    127419.27   -40184.954    2828.7686   -43013.722    238.23164   0.98017743 
   90100     219.6368    333.93495    127302.11   -40193.155    2732.6994   -42925.855    238.31392   0.98107948 
   90200    220.02646    299.16141    127270.43   -40214.882    2737.5475    -42952.43      238.649    0.9813237 
   90300    223.71659    352.36611    127200.04   -40221.755    2783.4597   -43005.215     238.3691   0.98186677 
   90400    226.98856    294.43342    127494.59   -40221.623    2824.1693   -43045.792    238.82995   0.97959833 
   90500    226.97397    169.35536    127484.67   -40192.321    2823.9877   -43016.309    239.30992   0.97967458 
   90600    228.31273    232.93408    127344.21   -40099.612    2840.6444   -42940.257    239.32653   0.98075519 
   90700     226.2519    103.59978    127367.56   -40100.685    2815.0037   -42915.689    239.23126   0.98057539 
   90800    227.98836     222.1496    127277.15   -40126.561    2836.6086    -42963.17    239.12325    0.9812719 
   90900    216.52922    152.91106    127247.17   -40238.667    2694.0352   -42932.702    239.65834   0.98150309 
   91000    219.61229    346.11618    127177.78   -40253.114    2732.3945   -42985.509    239.77025   0.98203863 
   91100    219.91579    185.25754    127294.54   -40245.413    2736.1705   -42981.583    239.87398   0.98113786 
   91200    227.52925    274.05051    127180.14   -40199.499    2830.8965   -43030.396    239.76507   0.98202038 
   91300    223.43017    337.86958    127005.55   -40090.082    2779.8961   -42869.979    239.93501   0.98337035 
   91400    228.84277    213.52257    126988.89   -40051.685    2847.2392   -42898.924    239.83254   0.98349939 
   91500     228.4287    147.78757    126967.63   -40052.589    2842.0874   -42894.676    240.35497   0.98366403 
   91600    226.92468    91.421344    126798.71   -40085.575    2823.3744   -42908.949    240.23549   0.98497446 
   91700    226.19717    227.43278    126551.51   -40137.171    2814.3229   -42951.494    240.77565   0.98689846 
   91800    226.36586    329.03343     126526.7   -40088.695    2816.4217   -42905.117    241.30636   0.98709201 
   91900    227.25265    156.94074    126530.57   -40081.735     2827.455    -42909.19    241.36454    0.9870618 
   92000    222.60638    257.52844    126633.73    -40090.79    2769.6466   -42860.437    241.38471   0.98625768 
   92100    228.28465    159.57299    126634.21   -40132.944     2840.295   -42973.239    241.64165     0.986254 
   92200    224.26129    255.32777    126603.78   -40052.017    2790.2367   -42842.254    242.09211   0.98649102 
   92300    228.40734    290.19797    126749.61   -39963.906    2841.8215   -42805.728    242.43556   0.98535603 
   92400     224.1478       152.51    126720.43   -39989.317    2788.8248   -42778.142    243.05924   0.98558289 
   92500    228.60127    493.40009    126758.45   -40039.838    2844.2344   -42884.072    243.22169   0.98528732 
   92600    225.90326    197.91289    126987.98   -40029.086     2810.666   -42839.752    243.44611   0.98350642 
   92700    226.91322    129.22749    126829.05   -40016.927    2823.2319   -42840.159    243.29923   0.98473881 
   92800    225.13435     346.4354    126911.64   -40063.408    2801.0993   -42864.507    243.64935   0.98409803 
   92900    225.13847    405.26078    126809.57   -40028.459    2801.1506    -42829.61    243.15946   0.98489007 
   93000    227.75982    336.42876    127124.85   -40069.434    2833.7652   -42903.199    243.83311   0.98244752 
   93100    229.07154    415.13122    127093.95   -40019.328    2850.0854   -42869.414    244.06999   0.98268634 
   93200    222.92329    166.56757     126947.3   -40026.047    2773.5895   -42799.637    244.42403    0.9838216 
   93300     229.2364    108.58659    126987.46   -40035.501    2852.1366   -42887.638    244.94652   0.98351046 
   93400    220.98699    473.65355     126930.4   -40080.305    2749.4983   -42829.804    245.14837   0.98395252 
   93500    222.40582    255.57115    126742.24   -40126.176    2767.1513   -42893.328    245.17425   0.98541335 
   93600    221.80714    112.30466    126878.85   -40188.427    2759.7025   -42948.129    245.58315    0.9843523 
   93700    222.58731    389.21023    126840.64    -40155.31    2769.4093   -42924.719    245.04877    0.9846489 
   93800    227.32994     167.3481    127103.91    -40127.92    2828.4166   -42956.337    245.49708   0.98260938 
   93900    221.01957    349.20508       127098   -40112.671    2749.9036   -42862.574    245.82834   0.98265503 
   94000    223.02042    284.57581    126924.11   -40106.115     2774.798   -42880.913    245.52955    0.9840013 
   94100    226.52064    202.99473    127159.19   -40098.286    2818.3474   -42916.634    246.07497   0.98218222 
   94200     223.1889    154.67311    127048.49   -40102.303    2776.8943   -42879.198    246.90581   0.98303799 
   94300    222.03236    149.69525    127051.13   -40053.504    2762.5047   -42816.009    247.19238   0.98301752 
   94400    229.31476     249.0725    127082.96   -40043.882    2853.1116   -42896.993    247.66243   0.98277131 
   94500    225.06631    295.73408    126895.88   -39981.827    2800.2528    -42782.08    247.40554   0.98422025 
   94600    228.65081    180.66466    126676.82   -40022.176    2844.8508   -42867.026    247.49836   0.98592224 
   94700    225.62997    461.71178    126635.16   -40071.507    2807.2658   -42878.773    247.60237   0.98624656 
   94800    223.09818    222.37239    126744.81    -40057.03    2775.7655   -42832.796    248.01729   0.98539331 
   94900    223.96056    286.73623    126741.72   -40019.027    2786.4952   -42805.522    247.61914    0.9854174 
   95000    229.84533     111.4191    126823.95   -39991.944    2859.7128   -42851.657    247.77956   0.98477845 
   95100    223.75787    361.65788    126897.06   -39974.168    2783.9732   -42758.141    247.85362    0.9842111 
   95200    227.51732    335.05085    126553.41   -39989.872     2830.748    -42820.62    248.03202   0.98688367 
   95300    230.35698    503.73659    126549.48    -39877.37    2866.0788   -42743.449    248.33147   0.98691426 
   95400    224.29303    251.99592    126710.56   -39930.744    2790.6317   -42721.376    248.79068   0.98565968 
   95500    227.69993    334.41675    126756.01    -39932.87      2833.02    -42765.89    248.97073   0.98530629 
   95600    223.81131    460.48851    126738.89   -39923.975    2784.6382   -42708.614    248.97168   0.98543934 
   95700    227.49657    85.346837    126632.77   -39978.562    2830.4898   -42809.052    249.30479   0.98626515 
   95800    222.89177    163.32159    126676.31   -40018.578    2773.1974   -42791.776    250.16088   0.98592622 
   95900    224.46333    23.117347    126638.07   -39961.859    2792.7505   -42754.609    250.61577    0.9862239 
   96000    224.02701    461.03734    126469.76    -40027.19    2787.3219   -42814.511    250.63296    0.9875364 
   96100    226.50192    104.60388       126509   -39978.285    2818.1145     -42796.4    250.17603   0.98723007 
   96200    223.88623    110.99861    126535.22    -40025.01    2785.5703    -42810.58    250.67857   0.98702552 
   96300     224.8011     403.7422     126680.1   -39978.547     2796.953     -42775.5     251.2514   0.98589667 
   96400    224.51947    178.73162    126536.95   -39957.884    2793.4491   -42751.333    251.85551   0.98701202 
   96500    225.60462    90.016921    126477.75    -40000.52    2806.9504   -42807.471    251.44223     0.987474 
   96600    221.28356     95.55377    126420.65   -39991.004    2753.1881   -42744.192    251.41439   0.98792004 
   96700    222.15913    253.95391    126375.55    -40070.72    2764.0819   -42834.801    251.28441   0.98827262 
   96800     219.8942    329.44898    126376.75   -40123.552    2735.9019   -42859.454    251.42713   0.98826323 
   96900    221.14655    166.71454    126369.34   -40062.119    2751.4836   -42813.603    251.92541   0.98832115 
   97000    224.48243    109.95965    126549.41   -40073.718    2792.9883   -42866.706    252.99883   0.98691481 
   97100    217.84804    235.67214    126551.19   -40063.293    2710.4438   -42773.736    253.73228   0.98690096 
   97200    216.94158    405.08467    126454.37    -40066.21    2699.1657   -42765.375    254.15978    0.9876566 
   97300    224.00286    335.91753    126657.69   -40058.067    2787.0214   -42845.088    254.62134   0.98607111 
   97400    220.72515    188.38937    126515.69   -40063.241    2746.2405   -42809.481    254.95557   0.98717787 
   97500    227.60639    282.62258    126399.63   -39982.708    2831.8562   -42814.564    254.97054   0.98808428 
   97600    219.67358    341.00241    126700.62   -40067.426     2733.157   -42800.583    255.83235   0.98573705 
   97700    229.03621     302.2697    126519.94   -40007.825    2849.6459   -42857.471    256.02875   0.98714474 
   97800    223.68607    412.31541    126503.33   -39984.949      2783.08   -42768.029    256.26027    0.9872743 
   97900    228.11886    396.20298    126534.93   -39959.498    2838.2322   -42797.731    256.90917   0.98702782 
   98000    228.28162    299.68761    126430.78   -39984.618    2840.2573   -42824.876    257.34146   0.98784086 
   98100    221.60361    45.242875    126379.37   -40038.217    2757.1702   -42795.387    257.11776   0.98824271 
   98200    224.69984    299.21094     126234.7   -40004.496    2795.6932   -42800.189    257.40864   0.98937524 
   98300    222.28212   -59.131281    126069.53   -40012.984    2765.6122   -42778.596    257.55291    0.9906715 
   98400    222.64115    305.48593     126045.1   -40009.979    2770.0792   -42780.059    257.63976   0.99086355 
   98500    220.80604    75.690859    126107.77   -40014.679     2747.247   -42761.926    257.86153   0.99037107 
   98600    221.70931    313.75398    126433.15   -40053.288    2758.4853   -42811.774    258.38307   0.98782236 
   98700     223.4482    232.07197    126534.54   -40105.097    2780.1204   -42885.218    259.01137   0.98703084 
   98800    218.17935     260.9188    126488.09   -40065.367    2714.5659   -42779.933    258.69816   0.98739328 
   98900    224.98093    353.76593    126529.05    -40085.97    2799.1905   -42885.161    258.85698   0.98707366 
   99000    222.34586    303.79441    126588.73   -40148.112    2766.4052   -42914.517    259.72293   0.98660831 
   99100    225.26782    206.77933    126637.14   -40086.372    2802.7599   -42889.131    260.13159   0.98623116 
   99200    226.55635    159.04755    126548.81   -40092.488    2818.7917    -42911.28    260.43912   0.98691949 
   99300    225.31919    303.41766    126373.31   -40055.753    2803.3991   -42859.152    260.20549    0.9882901 
   99400    224.51572    162.47738    126412.06   -40021.378    2793.4024   -42814.781    260.44688   0.98798717 
   99500     228.0225    350.22118    126691.08   -39891.726    2837.0334    -42728.76    261.62367   0.98581128 
   99600    227.87737    260.19142    126729.57   -39894.191    2835.2278   -42729.419    261.94264   0.98551186 
   99700    227.85712    425.52005    126952.45   -39906.639    2834.9758   -42741.615    262.93924   0.98378164 
   99800    226.67774    289.09421    127033.19   -39921.218    2820.3021    -42741.52    263.64419   0.98315638 
   99900    227.32883    327.67438    127007.33   -39975.934    2828.4029   -42804.337    263.33507   0.98335655 
  100000    228.45677    326.07516    127150.69   -39982.595    2842.4365   -42825.032    263.69604   0.98224783 
  100100    227.74549    351.74381    127255.29   -39908.361    2833.5868   -42741.947    263.83886   0.98144043 
  100200    229.84164    354.32008    127292.18   -39920.334    2859.6669   -42780.001    264.08971   0.98115603 
  100300    225.50408    276.95634    127306.22   -39930.768    2805.6995   -42736.468    264.34661   0.98104781 
  100400    225.81747    392.30623    127067.91   -39983.158    2809.5986   -42792.756    264.88194   0.98288771 
  100500    231.65933    296.71536    127106.54   -39912.189    2882.2824   -42794.472    265.40738     0.982589 
  100600    226.42686    185.81457    126984.84   -40029.039    2817.1806   -42846.219    265.56251   0.98353072 
  100630    226.72595    235.33558    127062.28   -40009.392    2820.9019   -42830.294    265.64094    0.9829313 
Loop time of 94.822 on 6 procs for 100000 steps with 4175 atoms

Performance: 455.591 ns/day, 0.053 hours/ns, 1054.608 timesteps/s
98.8% CPU use with 6 MPI tasks x no OpenMP threads

MPI task timing breakdown:
Section |  min time  |  avg time  |  max time  |%varavg| %total
---------------------------------------------------------------
Pair    | 77.504     | 78.942     | 80.207     |   9.5 | 83.25
Neigh   | 5.2479     | 5.2692     | 5.2983     |   0.7 |  5.56
Comm    | 6.7421     | 7.9856     | 9.4207     |  29.4 |  8.42
Output  | 0.15914    | 0.15989    | 0.16323    |   0.4 |  0.17
Modify  | 1.7656     | 1.78       | 1.804      |   1.2 |  1.88
Other   |            | 0.6857     |            |       |  0.72

Nlocal:        695.833 ave         713 max         682 min
Histogram: 1 1 0 1 0 1 1 0 0 1
Nghost:        1485.83 ave        1500 max        1475 min
Histogram: 1 0 1 0 2 1 0 0 0 1
Neighs:        0.00000 ave           0 max           0 min
Histogram: 6 0 0 0 0 0 0 0 0 0
FullNghs:      19811.7 ave       20474 max       19193 min
Histogram: 1 1 0 0 1 1 0 1 0 1

Total # of neighbors = 118870
Ave neighs/atom = 28.471856
Neighbor list builds = 5698
Dangerous builds = 0

undump              1
unfix               2
unfix               3
unfix               4


################################################
#######         Run Simulation         #########
################################################

reset_timestep      0
log                 log.run_${NAME}
log                 log.run_liquid_density_MLmW
