
# Create simulation box of size 50 x 50 x 50 Angstrom
#
lattice	            sc 1
Lattice spacing in x,y,z = 1 1 1
region 	            all block 0 50 0 50 0 100 units box
create_box          1 all
Created orthogonal box = (0 0 0) to (50 50 100)
  2 by 2 by 3 MPI processor grid

# fill box with 4175 randomly distributed atoms
#
create_atoms        1 random 8350 63782 all
Created 8350 atoms
  create_atoms CPU = 0.00238442 secs
mass                1 18.015

# Define potential
#
pair_style          sw
pair_coeff          * * ML_mW.sw mW
Reading potential file ML_mW.sw with DATE: 2019-02-27

# Run minimization
#
minimize            1.0e-8 1.0e-8 10000 1000
WARNING: Using 'neigh_modify every 1 delay 0 check yes' setting during minimization (../min.cpp:168)
Neighbor list info ...
  update every 1 steps, delay 0 steps, check yes
  max neighbors/atom: 2000, page size: 100000
  master list distance cutoff = 6.00329
  ghost atom cutoff = 6.00329
  binsize = 3.00165, bins = 17 17 34
  1 neighbor lists, perpetual/occasional/extra = 1 0 0
  (1) pair sw, perpetual
      attributes: full, newton on
      pair build: full/bin/atomonly
      stencil: full/bin/3d
      bin: standard
Per MPI rank memory allocation (min/avg/max) = 4.227 | 4.23 | 4.232 Mbytes
Step Temp E_pair E_mol TotEng Press 
       0            0     11872759            0     11872759    4534518.1 
     690            0   -90352.201            0   -90352.201   -174.59631 
Loop time of 2.26967 on 12 procs for 690 steps with 8350 atoms

99.2% CPU use with 12 MPI tasks x no OpenMP threads

Minimization stats:
  Stopping criterion = max force evaluations
  Energy initial, next-to-last, final = 
         11872759.1815     -90351.4085221     -90352.2010139
  Force two-norm initial, final = 7.60366e+07 9.33719
  Force max component initial, final = 2.91454e+07 1.56181
  Final line search alpha, max atom move = 0.0389471 0.060828
  Iterations, force evaluations = 690 1001

MPI task timing breakdown:
Section |  min time  |  avg time  |  max time  |%varavg| %total
---------------------------------------------------------------
Pair    | 1.7091     | 1.8792     | 2.0846     |   9.2 | 82.79
Neigh   | 0.03022    | 0.033426   | 0.049474   |   2.7 |  1.47
Comm    | 0.10722    | 0.31527    | 0.49232    |  23.1 | 13.89
Output  | 0          | 0          | 0          |   0.0 |  0.00
Modify  | 0          | 0          | 0          |   0.0 |  0.00
Other   |            | 0.0418     |            |       |  1.84

Nlocal:    695.833 ave 719 max 678 min
Histogram: 2 1 0 2 3 1 1 0 0 2
Nghost:    1375.08 ave 1417 max 1343 min
Histogram: 3 1 3 1 0 0 0 0 1 3
Neighs:    0 ave 0 max 0 min
Histogram: 12 0 0 0 0 0 0 0 0 0
FullNghs:  19933.5 ave 21185 max 19028 min
Histogram: 2 2 1 1 2 0 1 1 0 2

Total # of neighbors = 239202
Ave neighs/atom = 28.6469
Neighbor list builds = 28
Dangerous builds = 0

# Add velocity/set timestep
#
velocity            all create ${TEMP} 120398 rot yes dist gaussian
velocity            all create 289 120398 rot yes dist gaussian
timestep            5.0

# Define output
#
compute	            1 all msd
thermo	            100
thermo_style        custom step temp press vol etotal ke pe c_1[4] density

# Neighbor lists
#
neigh_modify        delay 0 every 1 check yes

# Set fixes
#
fix                 1 all momentum 10 linear 1 1 1 rescale
fix                 2 all nve
fix                 3 all temp/csvr ${TEMP} ${TEMP} 500.0 928347
fix                 3 all temp/csvr 289 ${TEMP} 500.0 928347
fix                 3 all temp/csvr 289 289 500.0 928347
fix                 4 all press/berendsen iso ${PRES} ${PRES} 1000.0 modulus 20000
fix                 4 all press/berendsen iso 1 ${PRES} 1000.0 modulus 20000
fix                 4 all press/berendsen iso 1 1 1000.0 modulus 20000

# Run 0.25 ns equilibration
#
dump                1 all custom 1000 eq.${NAME}.dump id type x y z vx vy vz
dump                1 all custom 1000 eq.slab_289K_halfindent.dump id type x y z vx vy vz
run                 50000
Per MPI rank memory allocation (min/avg/max) = 3.477 | 3.48 | 3.482 Mbytes
Step Temp Press Volume TotEng KinEng PotEng c_1[4] Density 
     690          289    1140.5057       250000   -83159.921    7192.2803   -90352.201 6.871214e-33   0.99914793 
     700    126.36594    1236.0177    251028.49   -82849.344    3144.8418   -85994.185  0.055139961   0.99505431 
     800    202.92655    79.010911    251346.05    -79975.51     5050.189   -85025.699   0.59178751   0.99379714 
     900    232.16487    24.123656    251491.67   -78266.781    5777.8367   -84044.618    1.1753843   0.99322169 
    1000    250.77481   -64.732404     251468.3   -77207.885    6240.9783   -83448.863    1.8932599   0.99331401 
    1100    261.87015     49.61088    251203.06    -76458.56    6517.1055   -82975.665    2.6778441   0.99436282 
    1200    274.86494   -135.44302    251634.69   -75890.798    6840.5042   -82731.302    3.5968108   0.99265718 
    1300    281.40698    26.284499    251562.94   -75373.337    7003.3145   -82376.651    4.5396574    0.9929403 
    1400    282.59212   -52.350347    251517.81   -75249.237    7032.8089   -82282.045    5.5729315   0.99311848 
    1500     287.1608   -105.69704    251267.84   -75018.594    7146.5084   -82165.103    6.6944639   0.99410645 
    1600    281.18716    -36.61959    251021.96   -74999.949    6997.8439   -81997.792    7.8776905   0.99508019 
    1700    280.71124    32.779217    250966.33   -74944.624    6985.9998   -81930.624    9.0043719   0.99530078 
    1800    290.00722   -197.50674    250507.46   -74788.608    7217.3467   -82005.955    10.101543   0.99712393 
    1900    289.30376   -186.63291    250454.94    -74773.85    7199.8399    -81973.69    11.464171   0.99733301 
    2000    292.50388    14.443542    250239.35   -74641.031    7279.4806   -81920.511     12.75491   0.99819225 
    2100     287.0788    -104.4584    250374.14   -74777.831    7144.4678   -81922.299    13.743031    0.9976549 
    2200    286.69504   -59.903103     250163.5   -74769.772    7134.9172   -81904.689    14.946391   0.99849491 
    2300    288.39392   -82.256139    250477.23   -74700.914     7177.197   -81878.111    16.128475   0.99724429 
    2400    288.81439    -189.8474    250377.58   -74682.521    7187.6612   -81870.183    17.305138   0.99764118 
    2500    287.77103   -152.12058    250467.43   -74666.993    7161.6952   -81828.688    18.290828   0.99728329 
    2600    293.66084   -50.405663    250580.28   -74515.806    7308.2735   -81824.079    19.490308   0.99683414 
    2700    290.04064   -45.150688    250496.01   -74528.423    7218.1786   -81746.601    20.764554   0.99716949 
    2800    289.22032    83.897401    249924.92    -74683.33    7197.7634   -81881.093     22.00976   0.99944808 
    2900    287.36527    143.38685     250170.2   -74594.299    7151.5972   -81745.896    23.216509   0.99846817 
    3000    290.78779   -102.16901    249878.03   -74545.329    7236.7727   -81782.102    24.180431   0.99963563 
    3100    287.37499   -96.267079    249967.89   -74534.593    7151.8391   -81686.432    25.205616   0.99927629 
    3200    290.58753    213.09888     250378.2   -74565.863    7231.7887   -81797.651    26.425958   0.99763871 
    3300    289.02369    -96.23722    250838.24   -74558.813      7192.87   -81751.683    27.633213   0.99580901 
    3400     290.8769   -299.34387    250746.52   -74522.796    7238.9903   -81761.786    28.797222   0.99617326 
    3500    290.01829   -59.459918     250597.3   -74442.134    7217.6222   -81659.757    30.204588   0.99676645 
    3600    287.76312    106.21598    250301.12   -74414.042    7161.4983   -81575.541    31.526451   0.99794593 
    3700    292.31702   -26.526485     250227.1   -74474.301    7274.8302   -81749.131    32.846616   0.99824112 
    3800    290.73078    59.449379    250200.14   -74447.506    7235.3538    -81682.86    34.079932   0.99834867 
    3900     286.2835    -164.1781    250466.62   -74600.293    7124.6753   -81724.968    35.324069    0.9972865 
    4000    293.13139   -58.229363    250574.48   -74644.581    7295.0974   -81939.678    36.512405   0.99685721 
    4100    292.11008    9.9508719    250482.49   -74599.287    7269.6801   -81868.967    37.841632   0.99722334 
    4200    291.71966   -87.057885    250380.86   -74590.562    7259.9638   -81850.526    39.348902   0.99762811 
    4300    292.55717   -35.025151    250398.89   -74496.721    7280.8067   -81777.528    40.550299   0.99755625 
    4400     288.4091   -7.4528059    250958.23   -74488.338    7177.5747   -81665.913    41.994052   0.99533292 
    4500    294.30109   -148.77148    250596.82   -74448.872    7324.2075    -81773.08    43.233077   0.99676838 
    4600    288.81429    48.875404    250593.87   -74538.786    7187.6586   -81726.444    44.318109   0.99678009 
    4700     288.5709   -47.479519    250427.54   -74605.026    7181.6013   -81786.627    45.695201   0.99744215 
    4800    289.91739    32.291967    250551.17   -74608.015    7215.1112   -81823.126    46.869986   0.99694997 
    4900    288.90977    41.106963    250674.76   -74575.833    7190.0349   -81765.868    48.286447   0.99645846 
    5000    287.97593    154.21888    250562.23   -74739.463    7166.7946   -81906.258    49.549236   0.99690598 
    5100    290.29857    51.735999    250322.27   -74610.027    7224.5976   -81834.624    50.748421    0.9978616 
    5200    289.71363   -150.61437    250569.02   -74696.841    7210.0403   -81906.881    51.900989   0.99687894 
    5300    287.25558    116.25451    250683.96   -74691.954    7148.8674   -81840.821    52.865361   0.99642188 
    5400    291.72332    82.594293    250862.15   -74568.575     7260.055    -81828.63    54.135044   0.99571411 
    5500    292.20623    96.792926    250676.02   -74500.536    7272.0731   -81772.609    55.131666   0.99645343 
    5600    291.89552   -55.831552    250513.68   -74373.646    7264.3405   -81637.987    55.994429   0.99709916 
    5700    287.36668   -10.840101    250114.14   -74574.221    7151.6323   -81725.853    57.370948   0.99869196 
    5800     289.1473     127.6324    249893.13   -74543.414    7195.9461    -81739.36    58.852758   0.99957523 
    5900    285.98944    83.055326    249737.05   -74680.252    7117.3571   -81797.609    60.128234    1.0001999 
    6000    282.84983    36.300078    249829.01   -74770.073    7039.2224   -81809.295    61.249329   0.99983176 
    6100    285.56865    165.71699    250140.82   -74801.252    7106.8849   -81908.137    62.791883   0.99858545 
    6200    289.44854   -194.89436    250417.44   -74751.968    7203.4431   -81955.411    64.051354   0.99748238 
    6300    287.34714     102.8956    250265.99   -74777.304    7151.1459    -81928.45    65.250093   0.99808602 
    6400    286.76853    117.31227    250167.07   -74695.758    7136.7463   -81832.504    66.282276   0.99848066 
    6500    287.93392    33.638035    250336.44   -74629.729    7165.7491   -81795.478    67.571374   0.99780513 
    6600    288.47175    93.963026    250471.44   -74711.102    7179.1338   -81890.236    68.578981   0.99726732 
    6700    284.94499     31.98789    250124.99    -74737.64    7091.3642   -81829.005    69.916104   0.99864863 
    6800     285.2254    118.73705    250037.64   -74858.594    7098.3428   -81956.937    71.236358   0.99899754 
    6900    288.85502     113.0219    250242.28   -74779.359    7188.6722   -81968.031    72.442241   0.99818056 
    7000    288.15494   -29.631127    250128.73   -74595.718    7171.2496   -81766.968    73.593902   0.99863369 
    7100    288.59522    4.6776231    250296.87   -74747.684    7182.2067   -81929.891    75.227176   0.99796288 
    7200    285.38393   -167.33872    250176.83   -74737.428    7102.2881   -81839.716    76.582706    0.9984417 
    7300    286.16071    181.00872    249975.96   -74746.607    7121.6196   -81868.227     77.62754   0.99924403 
    7400    287.69006    73.068603     250017.8   -74792.767    7159.6802   -81952.447    78.750104   0.99907678 
    7500    290.60142       19.923    250529.08   -74715.346    7232.1346    -81947.48    79.901494   0.99703786 
    7600    291.85852    110.27399    250637.99   -74673.919    7263.4197   -81937.338      81.2644   0.99660463 
    7700    289.09643    197.17468    250543.53   -74638.058    7194.6802   -81832.738    82.406558   0.99698038 
    7800    285.20189    146.47022    250635.08   -74654.615    7097.7576   -81752.373     83.38697   0.99661621 
    7900    282.60632    92.434042    250475.79    -74753.43    7033.1622   -81786.592    84.797486   0.99725001 
    8000     286.8915   -55.302098    250246.61   -74746.806    7139.8065   -81886.612    85.960696   0.99816329 
    8100    289.68516    -14.42005     250202.3   -74623.263    7209.3318   -81832.595    87.359741   0.99834009 
    8200    287.17498    132.24822    250366.39   -74651.021    7146.8615   -81797.882    88.568261   0.99768577 
    8300    290.68893   -200.99608    250328.72   -74587.233    7234.3125   -81821.546    89.531525   0.99783589 
    8400     285.8334   -17.746506    250102.14   -74670.069    7113.4739   -81783.543    90.322234   0.99873989 
    8500     287.4795    136.48977    250432.82   -74686.049      7154.44   -81840.489    91.561752   0.99742111 
    8600    286.41483   -131.74221    250273.96   -74596.583    7127.9439   -81724.527    92.925915   0.99805421 
    8700    291.55099    117.31464    250138.67   -74543.911    7255.7663   -81799.677     93.94945   0.99859401 
    8800    291.56466    41.748599    250269.13   -74478.057    7256.1064   -81734.164    95.076123   0.99807349 
    8900    286.19341    20.893336    249972.71    -74530.74    7122.4334   -81653.173    95.859145     0.999257 
    9000    295.59388    146.16408    250113.88   -74423.968    7356.3808   -81780.349    97.191114   0.99869301 
    9100      293.439   -97.871967    250311.18   -74473.485    7302.7527   -81776.237    98.542156   0.99790581 
    9200    289.72048   -9.9039831    250690.37   -74513.873    7210.2108   -81724.083    99.871709   0.99639638 
    9300    288.82278    -138.9994    250633.24   -74540.424    7187.8698   -81728.294    101.35853   0.99662354 
    9400    291.36269   -165.14625    250678.52   -74550.724      7251.08   -81801.804    102.55727   0.99644349 
    9500    287.75096    28.958966     250874.3   -74608.003    7161.1956   -81769.199    103.56488    0.9956659 
    9600    287.88488   -56.790023    250691.97    -74696.69    7164.5286   -81861.219    105.07969   0.99639005 
    9700    289.02798    88.515908    250756.69   -74595.694    7192.9768   -81788.671    106.44899   0.99613288 
    9800    290.30253    60.833136    250774.28    -74644.78    7224.6961   -81869.477    107.73425   0.99606301 
    9900    284.97051   -2.4510706    250794.42    -74568.29    7091.9992    -81660.29    109.24983   0.99598302 
   10000    284.79786   -40.242798    250729.35   -74771.702    7087.7026   -81859.404    110.53611    0.9962415 
   10100    289.36742    107.91539    250936.61   -74675.893    7201.4242   -81877.317    111.49173   0.99541863 
   10200    285.47603   -111.32995    250896.66   -74717.481      7104.58   -81822.061    112.37641   0.99557717 
   10300    289.61846    7.5491239    250709.17   -74715.492    7207.6718   -81923.163    113.48507   0.99632168 
   10400    289.12746   -58.389143    250389.57    -74592.96    7195.4523   -81788.412    114.95991   0.99759342 
   10500    290.54986   -44.005602    250322.04   -74612.875    7230.8512   -81843.726    116.47876   0.99786253 
   10600    289.30691     89.56452    250359.11   -74563.822    7199.9183    -81763.74    117.88519   0.99771476 
   10700    285.64514    25.906402     249996.7    -74630.96    7108.7886   -81739.748    119.34049   0.99916112 
   10800    286.59251   -90.467493    250050.44   -74527.237    7132.3655   -81659.603    120.81929   0.99894638 
   10900    291.24473   -319.07372    250211.08   -74376.579    7248.1445   -81624.723    122.66248   0.99830504 
   11000    289.63752   -137.77505    249812.06   -74460.516    7208.1462   -81668.662    124.08427   0.99989961 
   11100    290.44402   -1.8072699    250213.33   -74499.441    7228.2173   -81727.658    125.78329   0.99829604 
   11200    288.77764   -53.864762    250417.08   -74497.606    7186.7464   -81684.353    127.11953    0.9974838 
   11300    288.25905    -13.50424     250344.1   -74557.694    7173.8406   -81731.535    128.42181   0.99777461 
   11400    288.68121   -152.69202    250634.26   -74551.823    7184.3467   -81736.169    129.69427   0.99661949 
   11500    285.56674   -34.421839    250346.25   -74745.459    7106.8374   -81852.297    130.86964   0.99776604 
   11600    288.46699   -49.624427    250490.55   -74796.382    7179.0155   -81975.398    132.01102   0.99719124 
   11700    285.56889   -36.899781    250595.28   -74731.524     7106.891   -81838.415    133.25754   0.99677449 
   11800    291.46327   -106.79007    250702.98   -74683.427    7253.5832    -81937.01    134.52719   0.99634627 
   11900    288.84715    12.280861    250668.77   -74810.722    7188.4764   -81999.199    135.78005   0.99648226 
   12000    286.41417   -116.06427    250003.97   -74756.726    7127.9273   -81884.653    136.49434   0.99913206 
   12100    288.46959    92.760181     250298.1   -74757.048    7179.0802   -81936.128    137.72907   0.99795795 
   12200    290.59712     100.2106    250613.75   -74579.972    7232.0276       -81812    139.31519   0.99670105 
   12300    291.70585   -61.737527    250891.98   -74484.554    7259.6202   -81744.174    140.92563   0.99559573 
   12400    292.16404   -128.77786    250580.82   -74389.892    7271.0231   -81660.915    141.73386   0.99683202 
   12500    290.49178   -12.948613     250396.3    -74393.02     7229.406   -81622.426    142.66785   0.99756658 
   12600    291.89366   -177.78175    250419.03   -74441.854    7264.2942   -81706.148    143.80115   0.99747605 
   12700    290.72607    63.364089    250155.43   -74400.389    7235.2367   -81635.626    145.14417   0.99852713 
   12800    290.92764    128.32841    250088.07   -74480.347     7240.253     -81720.6    146.72437   0.99879606 
   12900    287.79097    118.77587    250151.05   -74524.891    7162.1915   -81687.083    148.12819   0.99854461 
   13000    289.99058   -129.10992    250686.68   -74578.182    7216.9326   -81795.115    149.59566   0.99641107 
   13100    289.05832   -147.89711    250417.48   -74554.251    7193.7318   -81747.983    150.63169   0.99748222 
   13200    288.77564    16.029197    250388.72    -74531.43    7186.6967   -81718.127    151.42119   0.99759678 
   13300    289.77654    1.6829408    250667.52   -74490.859     7211.606   -81702.465    152.57308   0.99648721 
   13400     290.1085    120.71089    250719.42   -74602.194    7219.8673   -81822.061    154.14273   0.99628094 
   13500    286.91526    27.981935    250522.53   -74604.993    7140.3979   -81745.391    155.36837   0.99706395 
   13600    289.19666   -39.059679    249984.38   -74590.303    7197.1744   -81787.477    156.49495   0.99921037 
   13700    291.24029    108.71298    250253.41   -74626.686    7248.0339    -81874.72    157.40322   0.99813618 
   13800    287.68394    -71.43438    250454.75   -74681.809    7159.5278   -81841.337    158.44917    0.9973338 
   13900    288.41154    96.728988    249943.57   -74741.534    7177.6355   -81919.169    159.39425   0.99937349 
   14000    285.03933    68.764719    250000.18    -74866.63     7093.712   -81960.342    160.27684    0.9991472 
   14100    288.66029    178.38287    249658.66   -74838.914     7183.826    -82022.74    161.26568     1.000514 
   14200    286.87847   -92.915545    249806.72   -74788.896    7139.4824   -81928.379    162.62969   0.99992097 
   14300    288.93579    -199.8996     249693.6   -74762.796    7190.6823   -81953.479    163.54667     1.000374 
   14400    287.11588    161.66695    249650.48   -74706.972    7145.3907   -81852.363    165.04719    1.0005468 
   14500    284.27637    82.786861    250047.43    -74721.19    7074.7244   -81795.915    166.53618   0.99895842 
   14600    290.87479   -39.379115    249881.55   -74585.263    7238.9379   -81824.201    167.77953   0.99962155 
   14700    287.78731    151.96149    249948.91   -74553.281    7162.1005   -81715.382    168.74192   0.99935216 
   14800    289.89545    148.48392    250159.88   -74573.904    7214.5651   -81788.469    169.63799   0.99850935 
   14900    287.83438   -33.045809    250246.33   -74573.841    7163.2718   -81737.113     170.9498   0.99816443 
   15000    287.95668    21.858324     250307.5   -74676.129    7166.3154   -81842.445    172.35694    0.9979205 
   15100     289.5819    122.18993    250388.09   -74658.957    7206.7619   -81865.719    173.62169   0.99759929 
   15200    285.85023    237.62232     250490.5   -74767.412    7113.8927   -81881.305    175.21507   0.99719143 
   15300    288.96491   -39.057014    250399.55   -74672.189    7191.4071   -81863.596    176.70598   0.99755363 
   15400    290.66529    88.374149    250882.56   -74504.053    7233.7241   -81737.777    178.22178   0.99563312 
   15500    288.28247   -64.317282    250856.09   -74533.144    7174.4234   -81707.567    179.66251   0.99573815 
   15600    289.73992   -3.1124963    250379.92   -74595.446    7210.6946   -81806.141    181.10136   0.99763186 
   15700    289.09232  -0.31951571     250442.1   -74606.083    7194.5778   -81800.661    182.41473   0.99738417 
   15800    288.70383   -98.249011    250482.28   -74650.332    7184.9096   -81835.242    184.06694   0.99722416 
   15900     288.8117     -63.3075    250301.72   -74586.806    7187.5941     -81774.4    185.22639   0.99794355 
   16000     286.2535    125.98047    250498.64   -74716.153    7123.9288   -81840.082    186.40762   0.99715904 
   16100    289.44372    17.780354    250187.24   -74658.607    7203.3231    -81861.93     187.6842   0.99840018 
   16200    291.63205    133.67716     250612.2   -74484.812    7257.7835   -81742.596      189.016    0.9967072 
   16300    288.82665   -80.338831    250709.95   -74486.244    7187.9662    -81674.21    189.78336   0.99631858 
   16400    294.64704    1.1397002    250660.72    -74426.04     7332.817   -81758.857    190.92938   0.99651426 
   16500    286.24432   -49.823261    250557.97   -74419.194    7123.7004   -81542.894    192.29832   0.99692293 
   16600     288.5927   -48.123345    250250.91   -74470.064     7182.144   -81652.208    193.98123   0.99814615 
   16700    289.05072    34.075222    250075.03   -74601.391    7193.5426   -81794.934    195.58091   0.99884817 
   16800    289.45029    133.82689    250313.68   -74535.955    7203.4866   -81739.442    197.02105   0.99789584 
   16900    291.59783   -226.86449    250454.82   -74440.877    7256.9319   -81697.808    198.57188   0.99733351 
   17000    291.49263    23.914173    250026.35   -74521.333    7254.3139   -81775.646    199.74613   0.99904263 
   17100    288.12893    -23.92078    250177.27   -74556.284    7170.6021   -81726.886    201.10435   0.99843995 
   17200    289.48715   -88.473183    249588.23   -74492.309    7204.4039   -81696.713    202.27828    1.0007963 
   17300    293.93803    144.74108    249985.04   -74402.361     7315.172   -81717.533    203.86874   0.99920773 
   17400    290.49129    249.09318    250208.18    -74529.39    7229.3937   -81758.783     205.3855   0.99831661 
   17500    290.63569    21.705883    250565.57   -74478.016    7232.9875   -81711.003    207.31853   0.99689269 
   17600    288.57546   -39.535815    250284.05   -74654.545    7181.7148   -81836.259    208.34245   0.99801397 
   17700    289.70607    63.223491    250537.31   -74651.587     7209.852   -81861.439    209.80844   0.99700514 
   17800    289.45449   -70.040737    250467.12   -74617.345     7203.591   -81820.936    211.20756   0.99728453 
   17900     288.8625    -155.1691    250171.37    -74715.23    7188.8583   -81904.088    212.10346    0.9984635 
   18000    285.15353    156.81033    250288.07   -74738.603    7096.5541   -81835.157    213.18509   0.99799797 
   18100    287.74494   -204.37653    250167.55   -74770.988    7161.0459   -81932.034    214.22931   0.99847874 
   18200    289.15507    71.412236    250563.77   -74630.141    7196.1395   -81826.281    215.89781   0.99689984 
   18300    287.31245   -11.108872    250525.56   -74672.463    7150.2825   -81822.745      217.119   0.99705187 
   18400     287.5131    56.596953    250602.15    -74803.65    7155.2763   -81958.927    217.65804   0.99674716 
   18500    288.20221    105.92677    250624.44   -74637.039    7172.4259   -81809.465    219.03035   0.99665854 
   18600    289.78862    67.828032    250313.57   -74662.758    7211.9065   -81874.665    220.31393   0.99789629 
   18700    289.38567    109.29952    250789.11   -74510.349    7201.8785   -81712.228    222.09726   0.99600411 
   18800    289.42664   -34.558625    250653.83   -74597.154    7202.8979   -81800.052    223.25103   0.99654165 
   18900     287.0623    16.526045    250437.68   -74629.565    7144.0571   -81773.622    224.51171   0.99740175 
   19000    288.62987   -31.667105    250323.71   -74603.898     7183.069   -81786.967    225.56451   0.99785586 
   19100    291.25332   -53.910429    250187.85   -74666.365    7248.3582   -81914.723    226.89904   0.99839774 
   19200    289.44863   -74.968972    250216.54   -74643.095    7203.4453   -81846.541    228.37186   0.99828327 
   19300    293.57335    68.328716    250291.89   -74630.607    7306.0964   -81936.704    229.89666   0.99798272 
   19400    286.16487   -97.676815    250052.53   -74661.851    7121.7231   -81783.574    230.93546   0.99893803 
   19500    289.13071    25.396653    250132.59    -74594.73    7195.5333   -81790.264    232.35133   0.99861831 
   19600    291.66232    3.2358469    250480.72   -74605.011    7258.5369   -81863.548    233.32112   0.99723039 
   19700    285.65608   -40.271757    250360.25   -74624.823    7109.0609   -81733.884    234.38155   0.99771023 
   19800    288.60409   -174.88014    250082.29   -74517.369    7182.4273   -81699.796    235.50942   0.99881916 
   19900    290.86547    54.534391    250117.27   -74514.051     7238.706   -81752.757    237.01186   0.99867947 
   20000     288.8976   -74.535181     250173.6   -74451.314    7189.7319   -81641.046    238.20639   0.99845461 
   20100    288.47345     133.8002    250295.63   -74539.368    7179.1762   -81718.544    239.37351   0.99796782 
   20200    292.90544    229.59302     250582.3    -74452.67    7289.4741   -81742.144    239.98293   0.99682611 
   20300    292.14743    124.27646    250826.98   -74459.896    7270.6098   -81730.506    241.14345   0.99585374 
   20400    291.94629    49.980855    251076.09   -74502.577    7265.6041   -81768.181     242.4086   0.99486568 
   20500     291.2268   -110.32311    251111.19    -74476.98    7247.6981   -81724.678    243.70722    0.9947266 
   20600    291.50676    66.343744    250858.42   -74563.372    7254.6655   -81818.037    244.79267    0.9957289 
   20700    285.90934    109.35097    250697.87   -74635.299    7115.3637   -81750.663    245.52748    0.9963666 
   20800     291.2863    -29.53118     250525.5   -74647.821     7249.179       -81897    246.30859   0.99705213 
   20900    288.37437   -13.285451     250360.2   -74649.772    7176.7104   -81826.482    247.18985   0.99771042 
   21000     291.9159    20.976764    250509.83   -74537.859    7264.8478   -81802.707    248.53406   0.99711451 
   21100    291.63278   -120.62251    250087.04   -74573.491    7257.8016   -81831.292    249.29126   0.99880021 
   21200    287.78882    -60.49082    250366.57   -74721.038    7162.1378   -81883.176    250.91911   0.99768506 
   21300    285.76987   -67.994691     250487.2   -74767.731    7111.8929   -81879.624    252.64793   0.99720457 
   21400    288.83264   -30.754638    250358.02   -74683.464    7188.1152   -81871.579    253.62281   0.99771912 
   21500    290.74148   -151.56796    250511.69   -74546.628      7235.62   -81782.248    254.87729   0.99710711 
   21600     288.6455    80.804984    250443.51   -74645.674     7183.458   -81829.132    255.25607   0.99737855 
   21700    288.96669    71.856988    250397.07   -74548.089    7191.4513    -81739.54    256.72277   0.99756354 
   21800    293.27169   -56.498303     250362.2    -74509.64     7298.589   -81808.229     257.8117   0.99770246 
   21900    288.45948   -97.845429    250065.51   -74512.152    7178.8284   -81690.981    258.90915   0.99888619 
   22000    289.67252    18.108169    250070.17   -74560.621    7209.0171   -81769.638    259.75816   0.99886758 
   22100    290.81983   -3.2155224    249906.21   -74439.086    7237.5701   -81676.657    260.76723   0.99952289 
   22200    289.34992    153.74319    250001.53   -74390.622    7200.9888   -81591.611    262.32883    0.9991418 
   22300    288.74145    357.06044    249710.36   -74470.331    7185.8459   -81656.177    263.20231    1.0003068 
   22400    288.14743     34.18366    249765.35   -74606.898    7171.0627   -81777.961    264.87785    1.0000866 
   22500    292.74396    54.607942     249932.3   -74550.169    7285.4555   -81835.625    266.84609   0.99941856 
   22600    292.34595    -76.26572    250133.28   -74509.881    7275.5503   -81785.432    268.50255   0.99861553 
   22700    292.12305    140.22335    250101.56   -74579.104     7270.003   -81849.107    270.04656   0.99874219 
   22800     288.1905    134.88996    249874.15   -74768.024    7172.1345   -81940.159    271.29931   0.99965114 
   22900    285.45678    23.462876    250845.84   -74833.092    7104.1009   -81937.193    273.30525   0.99577883 
   23000    293.27684     24.97984    251077.25   -74653.739     7298.717   -81952.456    274.92131   0.99486107 
   23100    290.68546    11.558389     251336.6   -74644.643    7234.2259   -81878.869    276.34487   0.99383451 
   23200    290.76722   -55.791051    251386.61   -74694.248    7236.2608   -81930.509    277.07732   0.99363677 
   23300    287.79149   -188.07237    250972.17   -74744.747    7162.2044   -81906.951    277.86494   0.99527762 
   23400     288.0885    10.461504    250763.71   -74715.912     7169.596   -81885.508    278.91785   0.99610498 
   23500    288.44652   0.23226893    250717.49   -74673.457    7178.5061   -81851.964    279.90198    0.9962886 
   23600    290.06038   -2.1934769    250577.41   -74692.927    7218.6697   -81911.597    280.90575   0.99684557 
   23700     287.5272    -52.19347    250594.31   -74694.645    7155.6272   -81850.272    281.95171   0.99677836 
   23800    288.67975    36.283881    250239.02   -74662.285    7184.3103   -81846.596    283.05457   0.99819359 
   23900    288.12163     94.40857     250232.7   -74560.338    7170.4206   -81730.759    283.75456   0.99821877 
   24000    289.90406    -158.8905    249984.84   -74473.892    7214.7795   -81688.672    284.72865   0.99920854 
   24100    293.24299    66.779215    250694.64   -74496.324    7297.8746   -81794.198    286.29169   0.99637942 
   24200    289.35081    76.139725    250561.52   -74404.085    7201.0109   -81605.096    287.00435   0.99690877 
   24300    289.47389    35.910623    250718.73   -74469.652    7204.0739   -81673.726    287.86645   0.99628371 
   24400    292.65037   -58.043145    250611.57   -74402.334    7283.1262    -81685.46    289.18003   0.99670969 
   24500    290.02023   -90.020739    250132.33   -74486.043    7217.6704   -81703.713    290.39671   0.99861936 
   24600    291.38731    62.936625    249788.58    -74451.58    7251.6929   -81703.273    291.15995   0.99999362 
   24700    287.15781    159.78225     249905.4     -74412.8    7146.4341   -81559.234    292.63207   0.99952617 
   24800    289.01288   -48.256108    250248.83   -74382.734    7192.6009   -81575.335    294.15395   0.99815445 
   24900    289.46207    181.94943    249954.01   -74596.243    7203.7798   -81800.023    295.11525   0.99933178 
   25000    284.13545   -118.88054    250322.93   -74618.587    7071.2172   -81689.804    295.98747   0.99785899 
   25100    288.65176    33.654401    250626.76   -74539.688    7183.6138   -81723.302    296.82297    0.9966493 
   25200    285.99068    32.532085    250625.54   -74618.833    7117.3881   -81736.221      297.503   0.99665415 
   25300    288.66172    -31.69206    249726.39   -74728.895    7183.8615   -81912.757    298.02497    1.0002426 
   25400    287.29982    20.131466    249888.18   -74687.405    7149.9683   -81837.374     299.0805   0.99959501 
   25500    289.17723    164.29245    249946.42   -74665.338    7196.6911   -81862.029    300.53753   0.99936211 
   25600    282.42389    189.58865     250667.6   -74745.747    7028.6221   -81774.369    302.39044    0.9964869 
   25700     287.8496    -73.60572    250801.79   -74758.028    7163.6505   -81921.679     303.3246   0.99595376 
   25800    288.03158   -44.486224    250391.14   -74839.639    7168.1796   -82007.819    304.02544   0.99758715 
   25900    283.14716   -162.62276    250285.93   -74935.961    7046.6221   -81982.583    305.22285   0.99800649 
   26000    286.01866    30.667331    250315.96   -74735.322    7118.0844   -81853.406    306.56575   0.99788676 
   26100    284.13299    79.033973    250434.93     -74742.9    7071.1561   -81814.056    307.54913   0.99741272 
   26200    289.66965   -192.02419       250183   -74627.305    7208.9457    -81836.25    308.45408    0.9984171 
   26300    289.65037   -55.015996    249833.47   -74532.288     7208.466   -81740.754    309.16931   0.99981391 
   26400    288.07838    67.087846    249787.67   -74625.175    7169.3441   -81794.519    310.24826   0.99999724 
   26500    289.30344    8.2328446    249772.52   -74461.416    7199.8319   -81661.248    311.73844    1.0000579 
   26600    289.52141    3.2302923    249854.64   -74494.178    7205.2565   -81699.435    313.01015   0.99972919 
   26700    286.70536    17.983573    250105.65   -74486.246    7135.1741    -81621.42    314.43057   0.99872586 
   26800    284.97138    -2.724348    249912.85   -74475.012    7092.0209   -81567.032    315.73295   0.99949636 
   26900    291.35803    54.190832     250101.5   -74525.756     7250.964    -81776.72    316.59104   0.99874243 
   27000    288.14186    31.298201    249946.03   -74618.938    7170.9239   -81789.862    317.57064   0.99936368 
   27100    289.58452    149.58546    250204.51   -74541.397    7206.8273   -81748.224    319.16115   0.99833126 
   27200    292.76775     -282.185    250450.73   -74480.843    7286.0475    -81766.89    321.11591   0.99734979 
   27300    289.96631    37.062967    250364.25   -74540.303    7216.3286   -81756.632    322.37263   0.99769429 
   27400    289.91249   -165.01662    250157.32    -74482.46    7214.9893   -81697.449     323.7702   0.99851958 
   27500    292.89069    6.6361312    250109.51   -74571.454    7289.1072   -81860.561    325.51067   0.99871046 
   27600    292.39588    30.993557    250148.39   -74457.512    7276.7928   -81734.304    326.87782   0.99855522 
   27700      290.499   -83.218724    250439.58   -74472.278    7229.5856   -81701.864    328.86944    0.9973942 
   27800     289.5318    10.910267    250686.91   -74515.588     7205.515   -81721.103    331.21443   0.99641017 
   27900    293.14866   -84.209988    250826.31   -74495.435     7295.527   -81790.962    332.38669   0.99585637 
   28000     291.3411    192.94091    250803.15   -74346.908    7250.5427    -81597.45    333.86218   0.99594835 
   28100    289.98063    9.8723033    250624.39   -74412.412    7216.6851   -81629.098    335.09611   0.99665871 
   28200    288.21812     142.4519    250161.34   -74612.063    7172.8219   -81784.885    336.44556   0.99850352 
   28300    286.37236    316.50845    250391.37   -74611.655    7126.8869   -81738.542    338.20967   0.99758621 
   28400    288.51662    219.90427    250609.41   -74426.507    7180.2506   -81606.758    339.72619   0.99671827 
   28500    290.82422    36.546866    250629.22   -74485.338    7237.6792   -81723.017    341.59392   0.99663952 
   28600    291.26947   -51.473232    250583.93   -74567.941    7248.7602   -81816.701    342.98496   0.99681962 
   28700    289.72576    170.51026    250393.55   -74733.447    7210.3422   -81943.789     344.1543   0.99757753 
   28800    288.08123   -31.377982    250715.99   -74633.111     7169.415   -81802.526    345.76335   0.99629458 
   28900    288.55715   -250.33402    250520.44   -74601.813    7181.2593   -81783.072    346.77723   0.99707227 
   29000     288.4212    56.261456    250308.02    -74590.67    7177.8758   -81768.546    347.77261   0.99791843 
   29100     290.7427    169.07843    250467.98   -74607.458    7235.6505   -81843.109    349.07762   0.99728108 
   29200    288.46469    43.446189    250333.78   -74667.674    7178.9583   -81846.632    350.19833   0.99781571 
   29300    289.27041   -111.10024    250111.91   -74658.951    7199.0101   -81857.961    350.83356   0.99870087 
   29400    287.71881   -66.395981    249716.62   -74681.446    7160.3957   -81841.841    351.46851    1.0002818 
   29500    289.30905     113.9959    249975.94   -74690.391    7199.9716   -81890.362    352.40445   0.99924409 
   29600    284.62694    261.50797    249859.72   -74672.133    7083.4489   -81755.582    353.23699   0.99970888 
   29700    291.88573    -62.97716    250140.63    -74595.42    7264.0969   -81859.517    354.77924   0.99858622 
   29800    292.93915    127.75155    250139.74   -74531.516    7290.3132   -81821.829    356.29497   0.99858977 
   29900    291.24847    35.361165    250384.83   -74487.797    7248.2376   -81736.034    357.67775   0.99761228 
   30000    290.56761    127.56113    250889.65   -74515.993    7231.2931   -81747.286    359.49665   0.99560498 
   30100    291.15746    90.548228    251096.52   -74465.649    7245.9726   -81711.622    361.44062   0.99478471 
   30200    292.76881    13.724595    251185.48   -74599.095     7286.074   -81885.169    363.20823    0.9944324 
   30300    293.29134   -53.304443    251142.42    -74495.45    7299.0781   -81794.528    364.05007   0.99460293 
   30400    291.28577   -108.65717    250484.88   -74612.543    7249.1659   -81861.709     364.3052   0.99721383 
   30500    288.57952   -142.91488    250492.22   -74705.129    7181.8159   -81886.945    365.81232    0.9971846 
   30600    284.85209    82.245379    250049.07   -74735.461    7089.0521   -81824.513     366.3469   0.99895187 
   30700    286.75352   -70.468709    250185.57    -74728.75    7136.3727   -81865.122    367.81098   0.99840684 
   30800    293.79022   -14.847774    249941.83   -74670.254    7311.4934   -81981.747      369.043   0.99938047 
   30900    284.81932    139.57214    250208.19   -74676.925    7088.2366   -81765.162    370.58376   0.99831658 
   31000    290.80606    104.23091    250607.02   -74603.659    7237.2273   -81840.887    372.16459   0.99672781 
   31100    283.45123   -258.08214    250503.55   -74824.547    7054.1894   -81878.737    373.95878    0.9971395 
   31200    288.32515   -117.81665    249687.09   -74819.452    7175.4855   -81994.937    374.29033    1.0004001 
   31300    285.90934    75.380699    249808.98   -74699.997    7115.3637   -81815.361    376.07862   0.99991194 
   31400    288.73988     30.98731    249783.22   -74776.649    7185.8067   -81962.456     377.2799    1.0000151 
   31500    289.28269    20.033954    250412.04   -74637.777    7199.3156   -81837.093    379.68488   0.99750389 
   31600     290.6148   -41.075189    250371.34    -74633.13    7232.4675   -81865.598    380.58994   0.99766604 
   31700     288.5649   -39.257263    250431.62   -74618.808     7181.452    -81800.26    382.07609    0.9974259 
   31800    291.13994   -37.866611    250401.55   -74566.328    7245.5366   -81811.865    383.63938   0.99754569 
   31900    287.96541   -201.18604    250472.18   -74531.424    7166.5327   -81697.957    384.61415   0.99726438 
   32000    287.06444   -75.878789    250134.53   -74455.191    7144.1106   -81599.301    385.47395   0.99861054 
   32100    290.17622    80.194104    249925.99   -74561.786    7221.5525   -81783.339    386.43904   0.99944382 
   32200    290.31985     22.10867    249902.77    -74559.96    7225.1272   -81785.087    387.55099   0.99953666 
   32300    290.49171    -15.75897    250248.93   -74619.435    7229.4042   -81848.839    389.31321   0.99815406 
   32400     294.2426   -169.46264    249925.64   -74487.067    7322.7518   -81809.818    390.36958   0.99944519 
   32500     290.0004    83.747139    249854.25   -74675.272     7217.177   -81892.449     391.5669   0.99973079 
   32600    288.91842   -58.130815    249603.27   -74679.545    7190.2501   -81869.795    392.31106     1.000736 
   32700    288.16295    21.844643    249697.14   -74594.089    7171.4487   -81765.538    393.94864    1.0003598 
   32800    287.61595   -58.000663    249924.26   -74659.273    7157.8357   -81817.109    395.32967   0.99945073 
   32900    285.67629    77.771651    250252.79   -74811.013    7109.5639   -81920.577    397.46562   0.99813866 
   33000    283.82539    228.68561    250425.85   -74721.489    7063.5008    -81784.99    399.63799   0.99744886 
   33100    287.06565   -58.535304    250531.08   -74700.685    7144.1405   -81844.826    401.79247   0.99702993 
   33200    290.16332   -73.405464    250482.27   -74616.481    7221.2317   -81837.713    403.12557   0.99722419 
   33300    290.49371   -30.554057    250875.91   -74559.549     7229.454   -81789.003    405.06068   0.99565951 
   33400    288.14091   -164.43621    250573.22   -74606.746    7170.9002   -81777.647    405.50633   0.99686223 
   33500    292.70507    2.8862216    250572.58   -74502.901    7284.4876   -81787.389    406.72217    0.9968648 
   33600    288.33967    11.959119    250635.16   -74576.194    7175.8469   -81752.041    407.91932   0.99661588 
   33700    290.85719    -274.5168       250685   -74630.789    7238.4999   -81869.289    408.77579   0.99641776 
   33800    291.24012   -76.196523    250505.23   -74562.057    7248.0298   -81810.087    409.66227   0.99713281 
   33900    286.43439    23.217545    250468.12   -74625.746    7128.4307   -81754.176    410.51768   0.99728055 
   34000     285.5534   -142.41076    250500.46   -74624.794    7106.5056   -81731.299    411.78774   0.99715177 
   34100    287.51241    83.139781    249966.74   -74710.751    7155.2589    -81866.01    412.62614   0.99928087 
   34200    288.04687   -54.501977    250482.31   -74681.044    7168.5601   -81849.604    414.15447   0.99722406 
   34300    292.04163    39.724012    250852.93   -74623.215    7267.9768   -81891.191    416.01098    0.9957507 
   34400     295.2168    35.767098     250579.1    -74502.46    7346.9966   -81849.456    416.78684   0.99683887 
   34500    296.39962   -39.813828    250357.84   -74464.431    7376.4331   -81840.864    418.52509   0.99771983 
   34600    288.24398   -10.297281    249956.01   -74517.882    7173.4654   -81691.348    419.57108   0.99932375 
   34700    285.72695   -17.657024    249798.77   -74622.519    7110.8246   -81733.344    420.43625    0.9999528 
   34800    283.45303   -54.161819    249383.96   -74632.006    7054.2341    -81686.24    421.02526    1.0016161 
   34900    288.29446    49.651856    249472.39    -74535.05    7174.7218   -81709.772    422.24878     1.001261 
   35000    288.59401    205.92662    249393.29   -74599.779    7182.1766   -81781.955    423.49099    1.0015786 
   35100    289.35453    59.399228    249720.75   -74571.733    7201.1034   -81772.836     425.1305    1.0002652 
   35200    295.53772    218.15053    250097.16   -74378.071    7354.9831   -81733.054    427.56135   0.99875978 
   35300    289.92115   -24.024083    250171.29   -74453.762    7215.2049   -81668.967    429.13846   0.99846383 
   35400    289.66131   -51.065204    250215.17   -74564.798    7208.7381   -81773.536     430.5507   0.99828873 
   35500    289.72683    17.179412    249819.37   -74565.095    7210.3688   -81775.464    431.49882   0.99987035 
   35600    288.05914    54.825576    250062.57   -74542.204    7168.8653    -81711.07    433.21939   0.99889793 
   35700    291.66997   -63.743368    249882.94   -74474.994    7258.7273   -81733.721    434.13257   0.99961598 
   35800    291.14949    135.63138    250544.23    -74536.49    7245.7742   -81782.264    436.44455    0.9969776 
   35900    290.28235   -60.062726    251035.34    -74480.18     7224.194   -81704.374     438.2034   0.99502714 
   36000    288.10705    21.184684    251008.23   -74512.508    7170.0578   -81682.566    439.56406   0.99513465 
   36100    288.33317   -96.149116    250279.89   -74579.026     7175.685   -81754.711    440.28818   0.99803058 
   36200    292.53546   -49.644784    250085.71   -74545.274    7280.2665    -81825.54    440.71979   0.99880552 
   36300    288.74623   -25.003524    250305.34   -74599.058    7185.9648   -81785.023    442.45083   0.99792912 
   36400    288.47583     -81.0499    250154.21    -74546.26    7179.2354   -81725.495    443.21154     0.998532 
   36500    293.14959    17.668949    249975.94   -74453.143    7295.5503   -81748.693    443.99775   0.99924408 
   36600    293.78265   -61.369287    249881.66   -74600.784    7311.3051   -81912.089    444.48715   0.99962112 
   36700    287.34575   -8.3261601    249967.22   -74613.824    7151.1113   -81764.935    446.21189   0.99927894 
   36800    285.42657    -163.7803    249694.92   -74723.836    7103.3492   -81827.185    446.98132    1.0003687 
   36900    289.80494     28.74257    249615.96   -74751.964    7212.3127   -81964.277    447.71161    1.0006852 
   37000    291.64337   -50.576103    249443.97   -74653.051    7258.0654   -81911.116    448.19111    1.0013751 
   37100    289.41983   -20.809838    249412.84   -74708.566    7202.7284   -81911.294     448.9299    1.0015001 
   37200    286.30704    39.304702    249165.79    -74703.13    7125.2611   -81828.391    449.62792    1.0024931 
   37300    290.00252    86.638629    249264.22    -74657.93    7217.2299   -81875.159    450.87652    1.0020972 
   37400    284.44887    208.09848    249812.21   -74748.442    7079.0173   -81827.459    453.10237     0.999899 
   37500    289.36165    158.57435    250329.57   -74766.224    7201.2807   -81967.505    454.26635   0.99783251 
   37600    289.46867   -61.815026    250355.54   -74697.107     7203.944   -81901.051     455.6523   0.99772901 
   37700    286.18735    23.536878    250164.18   -74635.758    7122.2826    -81758.04    456.00378   0.99849218 
   37800     288.0805     126.9901    250371.21   -74676.151    7169.3968   -81845.548    457.03446   0.99766654 
   37900    288.09213   -90.762483    250850.76   -74761.992    7169.6864   -81931.678    458.66479   0.99575933 
   38000    290.11518    13.424455    250502.93   -74798.369    7220.0335   -82018.402    458.91558   0.99714197 
   38100    286.54126    -10.51517    250347.09   -74813.581    7131.0903   -81944.671     460.0342   0.99776267 
   38200    288.59678    19.574049    250485.83   -74854.109    7182.2454   -82036.355    461.09665   0.99721001 
   38300    284.10709    7.7547028    250383.92   -74904.544    7070.5116   -81975.056    461.50485   0.99761591 
   38400    281.26606    239.57359    250528.94   -74941.006    6999.8075   -81940.813    462.34642   0.99703843 
   38500    283.33567   -38.635144    250659.87   -74974.108    7051.3134   -82025.421    463.30836   0.99651765 
   38600    285.41924    16.760907    250574.49   -74810.642    7103.1668   -81913.809    464.07672   0.99685717 
   38700    285.96872    80.096559    250795.63   -74768.226    7116.8416   -81885.067     464.7456   0.99597823 
   38800    289.82987    64.916329    250929.87   -74638.866    7212.9331   -81851.799    466.24235   0.99544537 
   38900    292.85422    145.64933    250997.37   -74553.772    7288.1994   -81841.971    467.26942   0.99517769 
   39000    289.03173   -107.15661    250377.79   -74621.256      7193.07   -81814.326    467.24835   0.99764035 
   39100    288.44262   -238.94305     250330.5   -74620.454     7178.409   -81798.863    468.28196    0.9978288 
   39200    291.25168   -125.17774     250349.3   -74628.794    7248.3174   -81877.111    469.23594   0.99775387 
   39300    291.42808   -126.27685    250388.51   -74577.637    7252.7075   -81830.344    470.28012   0.99759763 
   39400    288.96357    6.7264315    249842.96   -74645.429    7191.3736   -81836.803    470.33233   0.99977593 
   39500    289.11688    128.66226    249942.59   -74523.568     7195.189   -81718.757    470.68264   0.99937742 
   39600    291.42219     174.6315    250615.92   -74474.933    7252.5609   -81727.494    473.18261   0.99669241 
   39700    286.68817   -60.647478    250446.43   -74594.198    7134.7463   -81728.945    474.08314   0.99736691 
   39800    288.81928   -58.131377    250715.67    -74583.09    7187.7829   -81770.873    475.75375   0.99629587 
   39900    285.65183    14.987917    250216.69   -74820.682    7108.9551   -81929.637    475.80225   0.99828265 
   40000     288.5924   -48.086269    250210.84   -74678.004    7182.1364   -81860.141    476.72154   0.99830598 
   40100    292.12667   -154.38139     250730.3   -74702.641    7270.0931   -81972.734     478.5155   0.99623774 
   40200    290.74979   -298.27977    250023.44    -74638.21    7235.8269   -81874.037    478.36986   0.99905426 
   40300    291.18955    113.66036    249804.14    -74589.13    7246.7712   -81835.901    479.41182   0.99993131 
   40400    288.46305   -158.35613    249657.61   -74628.032    7178.9175   -81806.949    480.01597    1.0005182 
   40500     288.3253    196.55821    249785.66   -74664.784    7175.4893   -81840.273    481.48449    1.0000053 
   40600    286.70341    38.209849    250100.06   -74627.571    7135.1255   -81762.697     482.8932   0.99874818 
   40700    286.73485   -57.788066    249836.21   -74662.642    7135.9081    -81798.55     483.6413   0.99980298 
   40800    287.08941   -262.29294    249646.27   -74673.137    7144.7318   -81817.869    484.72865    1.0005636 
   40900    286.33038   -102.92517    249697.06   -74695.566    7125.8421   -81821.408    486.49747    1.0003601 
   41000    288.75932   -38.056928    250196.86    -74693.78    7186.2905    -81880.07    488.60823   0.99836176 
   41100    289.72737   -1.1531787    249983.92   -74720.503    7210.3822   -81930.885      489.937   0.99921219 
   41200    294.74783   -86.897971    250046.28   -74513.529    7335.3254   -81848.854    491.46631     0.998963 
   41300    289.52179    78.468963    250130.55   -74681.715    7205.2661   -81886.981    492.99921   0.99862646 
   41400    285.23653   -14.121328    250051.89   -74664.959    7098.6196   -81763.578     493.7729    0.9989406 
   41500    285.48996   -48.394951    250223.82   -74694.709    7104.9268   -81799.636    495.27941   0.99825423 
   41600    294.09944    -49.84762    250606.26   -74595.627    7319.1891   -81914.816    497.60234   0.99673082 
   41700    286.58565   -32.885365    250433.23   -74799.205    7132.1949     -81931.4    498.52067   0.99741947 
   41800    292.65529   -1.8018538    250617.19   -74626.875    7283.2488   -81910.123    499.34638   0.99668735 
   41900    290.30971   -129.08631    250232.76   -74550.977    7224.8749   -81775.852    499.15147   0.99821853 
   42000    290.46802    163.77794    250320.58    -74602.74    7228.8146   -81831.554    499.69181   0.99786833 
   42100    288.41181    10.060006    250519.62   -74657.421    7177.6422   -81835.063    501.35237   0.99707554 
   42200    288.21606    37.780012    250389.08   -74537.465    7172.7705   -81710.235    502.12364   0.99759534 
   42300    287.56371    4.4619025    250377.53   -74616.471    7156.5357   -81773.006    503.27829   0.99764138 
   42400    287.34534   -41.263342    250020.27   -74704.276    7151.1011   -81855.377    503.88336   0.99906692 
   42500     286.4187   -96.793787    249826.93   -74702.455    7128.0401   -81830.496    504.61269   0.99984009 
   42600    290.78143    119.52618    249335.61   -74704.191    7236.6145   -81940.805    505.30428    1.0018103 
   42700    284.74816    89.002731    249655.72    -74733.06    7086.4657   -81819.526    506.52498    1.0005258 
   42800    286.83795   -131.04453     249957.3   -74803.624     7138.474   -81942.098    508.09749   0.99931862 
   42900    285.25421   -11.326764     250094.4   -74757.046    7099.0596   -81856.105     509.7639   0.99877078 
   43000    285.55296    115.57221    250363.45   -74663.659    7106.4947   -81770.154     511.4734   0.99769749 
   43100    290.01133   -41.898057    250351.45   -74680.983    7217.4492   -81898.432    513.24479    0.9977453 
   43200    286.05244  -0.48897612     250571.9   -74679.932    7118.9249   -81798.857    514.72098   0.99686748 
   43300    289.69598   -44.540428    250315.31   -74677.285    7209.6009   -81886.886    514.91363   0.99788937 
   43400    289.37889   -128.51245    250270.42   -74801.464    7201.7096   -82003.174    516.02447   0.99806832 
   43500    291.65137    156.89595    250475.54   -74707.881    7258.2644   -81966.145    517.05887   0.99725099 
   43600     290.3294   -5.8312066    250263.29   -74772.528    7225.3649   -81997.893    517.28817   0.99809676 
   43700    287.97767   -218.35694    250002.58   -74724.562    7166.8378   -81891.399    518.01465   0.99913761 
   43800    287.09049    116.76518    250056.85   -74645.145    7144.7588   -81789.904    519.51346   0.99892079 
   43900    287.68861    -12.89938    250418.17   -74708.655     7159.644   -81868.299    521.87447   0.99747948 
   44000    289.01921    98.111515    250477.63    -74595.49    7192.7585   -81788.248    522.86441   0.99724266 
   44100    292.33569   -53.148229       250613   -74528.495     7275.295    -81803.79    523.67157   0.99670403 
   44200    287.54752    80.604309    250234.67   -74591.104    7156.1327   -81747.237    524.79322   0.99821094 
   44300    285.91521   -120.45577    250465.69   -74732.758    7115.5098   -81848.268    526.37708    0.9972902 
   44400    288.53504   -150.33036    250275.29   -74708.499    7180.7089   -81889.208    526.85781   0.99804892 
   44500    289.22306    69.799455     250098.7   -74765.004    7197.8316   -81962.836    527.68906   0.99875362 
   44600    285.60688   -101.33755    250409.77   -74798.462    7107.8364   -81906.298    529.57891   0.99751294 
   44700    284.64444   -124.77118    250123.84   -74879.186    7083.8843    -81963.07    529.94112   0.99865322 
   44800    285.97681   -44.080092    250257.56   -74749.462    7117.0428   -81866.504    531.37307   0.99811964 
   44900    286.71081   -194.61521    250518.15   -74718.935    7135.3098   -81854.245    533.00531   0.99708139 
   45000    285.90803    120.88806    250724.97   -74720.264    7115.3311   -81835.595     535.1566    0.9962589 
   45100    289.11753    53.097219    250559.64   -74671.869    7195.2052   -81867.074    536.56196   0.99691625 
   45200    288.03014   -134.65196    250604.78   -74749.662    7168.1435   -81917.805    537.91424    0.9967367 
   45300    286.75871    27.165469    250167.61   -74747.765    7136.5019   -81884.267    538.06064   0.99847851 
   45400    284.49486    27.338548    250271.65   -74786.834     7080.162   -81866.996    539.21525   0.99806343 
   45500    286.20677    62.659448    250403.82   -74665.294    7122.7659    -81788.06    540.95029   0.99753661 
   45600    286.82242   -64.359063    250259.68   -74656.146    7138.0873   -81794.233    542.48433   0.99811115 
   45700    286.71987    80.339651    250137.21   -74645.667    7135.5351   -81781.202    543.84339   0.99859987 
   45800    289.84819    76.868146    250824.31   -74535.854    7213.3892   -81749.243    545.99013   0.99586433 
   45900    289.24214    46.180288    250535.64   -74613.204    7198.3063   -81811.511    547.23124   0.99701178 
   46000    289.20239    57.615531       250085   -74681.169    7197.3171   -81878.487    547.64114   0.99880835 
   46100    290.99477   -16.209026    250110.93   -74714.219    7241.9237   -81956.142    548.70298   0.99870479 
   46200    285.11323    149.20645    250450.25   -74651.826    7095.5511   -81747.377    550.78455   0.99735171 
   46300    287.08646    6.2282259    250471.03   -74636.654    7144.6585   -81781.313    551.70716   0.99726894 
   46400    286.81647    -138.2626    249970.26   -74592.555    7137.9392   -81730.494    552.39144   0.99926679 
   46500    292.93927   -191.11565    249814.31   -74544.286    7290.3162   -81834.602     553.2421    0.9998906 
   46600    289.14727    48.415948    250261.06   -74450.007    7195.9454   -81645.953    554.85069   0.99810567 
   46700    291.49786   -4.0202893    250967.07   -74436.173    7254.4441   -81690.617    557.35519   0.99529784 
   46800    290.74704    18.721598    250859.28   -74371.667    7235.7585   -81607.425    557.90931   0.99572552 
   46900    289.82629   -131.14615    250524.01   -74422.341    7212.8441   -81635.185     558.0792   0.99705806 
   47000    290.76285   -32.080875    250200.16   -74519.644    7236.1519   -81755.795    558.80251   0.99834863 
   47100    295.40777    110.67385    250580.51   -74506.539    7351.7492   -81858.288    560.76007   0.99683324 
   47200    290.07375    102.03467    250712.04   -74541.414    7219.0026   -81760.417    562.10603   0.99631027 
   47300    291.84164     155.1381    251459.51   -74499.234    7262.9996   -81762.233    564.84047    0.9933487 
   47400    291.84875    46.125991    251458.73   -74410.784    7263.1766    -81673.96    566.80993   0.99335181 
   47500    290.81193    131.14096     251102.8   -74523.635    7237.3735   -81761.008    567.68244   0.99475984 
   47600    287.73816   -155.22814     250852.2   -74450.437    7160.8771   -81611.314    568.67777   0.99575361 
   47700    288.32206     72.64678    250596.52   -74524.404    7175.4086   -81699.813    569.74734   0.99676955 
   47800    285.09364   -61.741272    250634.65   -74624.227    7095.0635   -81719.291    570.37247    0.9966179 
   47900    288.75061  -0.82490968    250572.94   -74615.906    7186.0739    -81801.98    571.90521   0.99686338 
   48000    288.25256     42.17923    250574.96   -74762.303    7173.6791   -81935.982     573.5335   0.99685533 
   48100    291.52723   -116.56143    250690.44   -74758.116     7255.175   -82013.291    574.63004   0.99639613 
   48200    288.73166   -6.9980384     251202.4    -74732.66    7185.6022   -81918.262    576.41776   0.99436544 
   48300    290.36108   -117.20047    250796.57   -74704.431    7226.1531   -81930.584    576.95636   0.99597446 
   48400     286.0315    62.837934    250671.02   -74652.953    7118.4039   -81771.357    577.66093    0.9964733 
   48500    283.86092    -53.45098    250494.45   -74726.142    7064.3851   -81790.527    579.40638   0.99717571 
   48600    286.15975   -13.528681    250763.25   -74721.368    7121.5957   -81842.964     580.2211   0.99610682 
   48700    282.96087   -84.967863     250486.2   -74752.885    7041.9857   -81794.871    581.00537   0.99720857 
   48800    288.27523   -30.163123    249815.46   -74722.865    7174.2431   -81897.108      581.169   0.99988601 
   48900     285.0406    55.844507    249938.24   -74634.427    7093.7435   -81728.171    582.96587   0.99939484 
   49000    286.12359   -21.425611    249726.17   -74646.179    7120.6956   -81766.875    583.91693    1.0002435 
   49100    288.07714  -0.63140969    250098.52   -74639.836    7169.3134    -81809.15    586.04599   0.99875435 
   49200    286.69843   -88.599397    249981.05   -74769.882    7135.0017   -81904.884    586.73272   0.99922366 
   49300    286.34595   -107.45769    249584.13   -74780.381    7126.2296   -81906.611    587.42588    1.0008128 
   49400     288.1264    29.982248    249982.34   -74675.606    7170.5392   -81846.146    589.16968    0.9992185 
   49500    286.72109   -23.269814    250075.28    -74639.17    7135.5656   -81774.735    590.58002   0.99884717 
   49600    285.26571   -50.413641    249956.18   -74641.628    7099.3458   -81740.974    591.71272    0.9993231 
   49700    290.52474    73.513053    249712.28   -74597.044    7230.2261    -81827.27    592.03598    1.0002992 
   49800    291.90694   -106.88317    249693.71   -74500.444    7264.6246   -81765.069    593.28312    1.0003736 
   49900    291.01312   -94.651483    249524.01   -74624.393    7242.3805   -81866.774    593.94748    1.0010539 
   50000    289.29196      101.965    249633.88   -74707.501    7199.5462   -81907.047    594.86877    1.0006133 
   50100    287.51446    14.525163    249802.13   -74756.674      7155.31   -81911.984    595.55293   0.99993938 
   50200    290.92737    208.02271    249977.99   -74713.833    7240.2463   -81954.079    597.09941   0.99923591 
   50300    289.68885   -75.078096    250450.23   -74696.132    7209.4236   -81905.556    599.04716   0.99735177 
   50400    287.17406   -97.825025    250651.15   -74737.003    7146.8386   -81883.842    600.33096   0.99655232 
   50500    287.22713   -54.514538     250515.7   -74767.274    7148.1593   -81915.434     601.0331   0.99709115 
   50600    288.61685   -173.62234    250669.84    -74765.05    7182.7449   -81947.795      602.225   0.99647802 
   50690    289.25828   -216.66792    250397.44   -74725.327    7198.7081   -81924.035    602.60081   0.99756205 
Loop time of 123.679 on 12 procs for 50000 steps with 8350 atoms

Performance: 174.645 ns/day, 0.137 hours/ns, 404.272 timesteps/s
98.1% CPU use with 12 MPI tasks x no OpenMP threads

MPI task timing breakdown:
Section |  min time  |  avg time  |  max time  |%varavg| %total
---------------------------------------------------------------
Pair    | 93.375     | 95.732     | 99.389     |  19.0 | 77.40
Neigh   | 4.1009     | 4.2451     | 4.395      |   4.1 |  3.43
Comm    | 15.76      | 19.512     | 21.817     |  41.4 | 15.78
Output  | 0.18039    | 0.1866     | 0.2545     |   4.7 |  0.15
Modify  | 3.0453     | 3.3342     | 3.5422     |   9.3 |  2.70
Other   |            | 0.6692     |            |       |  0.54

Nlocal:    695.833 ave 711 max 677 min
Histogram: 1 0 0 1 2 3 2 2 0 1
Nghost:    1373 ave 1389 max 1355 min
Histogram: 1 1 0 1 2 3 1 1 1 1
Neighs:    0 ave 0 max 0 min
Histogram: 12 0 0 0 0 0 0 0 0 0
FullNghs:  20141.2 ave 20717 max 19468 min
Histogram: 1 0 0 2 2 1 3 2 0 1

Total # of neighbors = 241694
Ave neighs/atom = 28.9454
Neighbor list builds = 3632
Dangerous builds = 0

undump              1
unfix               2
unfix               3
unfix               4

# Cut out the Slab
#
region		    top block INF INF INF INF 14 86 side out
delete_atoms	    region top
Deleted 2345 atoms, new total = 6005

# Add the barrier (top indentor only)
#
fix                 5 all indent 10.0 plane z 86.0 hi
# fix                 6 all indent 10.0 plane z 14.0 lo


################################################
#######         Run Simulation         #########
################################################

reset_timestep      0
log                 log.run_${NAME}_hi
log                 log.run_slab_289K_halfindent_hi
