
# Create simulation box of size 50 x 50 x 50 Angstrom
#
lattice	            sc 1
Lattice spacing in x,y,z = 1 1 1
region 	            all block 0 50 0 50 0 100 units box
create_box          1 all
Created orthogonal box = (0 0 0) to (50 50 100)
  2 by 2 by 3 MPI processor grid

# fill box with 4175 randomly distributed atoms
#
create_atoms        1 random 8350 63782 all
Created 8350 atoms
  create_atoms CPU = 0.00502396 secs
mass                1 18.015

# Define potential
#
pair_style          sw
pair_coeff          * * ML_mW.sw mW
Reading potential file ML_mW.sw with DATE: 2019-02-27

# Run minimization
#
minimize            1.0e-8 1.0e-8 10000 1000
WARNING: Using 'neigh_modify every 1 delay 0 check yes' setting during minimization (../min.cpp:168)
Neighbor list info ...
  update every 1 steps, delay 0 steps, check yes
  max neighbors/atom: 2000, page size: 100000
  master list distance cutoff = 6.00329
  ghost atom cutoff = 6.00329
  binsize = 3.00165, bins = 17 17 34
  1 neighbor lists, perpetual/occasional/extra = 1 0 0
  (1) pair sw, perpetual
      attributes: full, newton on
      pair build: full/bin/atomonly
      stencil: full/bin/3d
      bin: standard
Per MPI rank memory allocation (min/avg/max) = 4.227 | 4.23 | 4.232 Mbytes
Step Temp E_pair E_mol TotEng Press 
       0            0     11872759            0     11872759    4534518.1 
     690            0   -90352.201            0   -90352.201   -174.59631 
Loop time of 2.23969 on 12 procs for 690 steps with 8350 atoms

99.6% CPU use with 12 MPI tasks x no OpenMP threads

Minimization stats:
  Stopping criterion = max force evaluations
  Energy initial, next-to-last, final = 
         11872759.1815     -90351.4085221     -90352.2010139
  Force two-norm initial, final = 7.60366e+07 9.33719
  Force max component initial, final = 2.91454e+07 1.56181
  Final line search alpha, max atom move = 0.0389471 0.060828
  Iterations, force evaluations = 690 1001

MPI task timing breakdown:
Section |  min time  |  avg time  |  max time  |%varavg| %total
---------------------------------------------------------------
Pair    | 1.6916     | 1.8736     | 2.1275     |   9.6 | 83.65
Neigh   | 0.029933   | 0.031503   | 0.032867   |   0.5 |  1.41
Comm    | 0.046801   | 0.30304    | 0.4871     |  24.0 | 13.53
Output  | 0          | 0          | 0          |   0.0 |  0.00
Modify  | 0          | 0          | 0          |   0.0 |  0.00
Other   |            | 0.03158    |            |       |  1.41

Nlocal:    695.833 ave 719 max 678 min
Histogram: 2 1 0 2 3 1 1 0 0 2
Nghost:    1375.08 ave 1417 max 1343 min
Histogram: 3 1 3 1 0 0 0 0 1 3
Neighs:    0 ave 0 max 0 min
Histogram: 12 0 0 0 0 0 0 0 0 0
FullNghs:  19933.5 ave 21185 max 19028 min
Histogram: 2 2 1 1 2 0 1 1 0 2

Total # of neighbors = 239202
Ave neighs/atom = 28.6469
Neighbor list builds = 28
Dangerous builds = 0

# Add velocity/set timestep
#
velocity            all create ${TEMP} 120398 rot yes dist gaussian
velocity            all create 289 120398 rot yes dist gaussian
timestep            5.0

# Define output
#
compute	            1 all msd
thermo	            100
thermo_style        custom step temp press vol etotal ke pe c_1[4] density

# Neighbor lists
#
neigh_modify        delay 0 every 1 check yes

# Set fixes
#
fix                 1 all momentum 10 linear 1 1 1 rescale
fix                 2 all nve
fix                 3 all temp/csvr ${TEMP} ${TEMP} 500.0 928347
fix                 3 all temp/csvr 289 ${TEMP} 500.0 928347
fix                 3 all temp/csvr 289 289 500.0 928347
fix                 4 all press/berendsen iso ${PRES} ${PRES} 1000.0 modulus 20000
fix                 4 all press/berendsen iso 1 ${PRES} 1000.0 modulus 20000
fix                 4 all press/berendsen iso 1 1 1000.0 modulus 20000

# Run 0.25 ns equilibration
#
dump                1 all custom 1000 eq.${NAME}.dump id type x y z vx vy vz
dump                1 all custom 1000 eq.slab_289K_longhalfindent1o.dump id type x y z vx vy vz
run                 50000
Per MPI rank memory allocation (min/avg/max) = 3.477 | 3.48 | 3.482 Mbytes
Step Temp Press Volume TotEng KinEng PotEng c_1[4] Density 
     690          289    1140.5057       250000   -83159.921    7192.2803   -90352.201 6.871214e-33   0.99914793 
     700    126.36594    1236.0177    251028.49   -82849.344    3144.8418   -85994.185  0.055139961   0.99505431 
     800    202.92655    79.010911    251346.05    -79975.51     5050.189   -85025.699   0.59178751   0.99379714 
     900    232.16487    24.123656    251491.67   -78266.781    5777.8367   -84044.618    1.1753843   0.99322169 
    1000    250.77481   -64.732404     251468.3   -77207.885    6240.9783   -83448.863    1.8932599   0.99331401 
    1100    261.87015     49.61088    251203.06    -76458.56    6517.1055   -82975.665    2.6778441   0.99436282 
    1200    274.86494   -135.44302    251634.69   -75890.798    6840.5042   -82731.302    3.5968108   0.99265718 
    1300    281.40698    26.284499    251562.94   -75373.337    7003.3145   -82376.651    4.5396574    0.9929403 
    1400    282.59212   -52.350347    251517.81   -75249.237    7032.8089   -82282.045    5.5729315   0.99311848 
    1500     287.1608   -105.69704    251267.84   -75018.594    7146.5084   -82165.103    6.6944639   0.99410645 
    1600    281.18716    -36.61959    251021.96   -74999.949    6997.8439   -81997.792    7.8776905   0.99508019 
    1700    280.71124    32.779217    250966.33   -74944.624    6985.9998   -81930.624    9.0043719   0.99530078 
    1800    290.00722   -197.50674    250507.46   -74788.608    7217.3467   -82005.955    10.101543   0.99712393 
    1900    289.30376   -186.63291    250454.94    -74773.85    7199.8399    -81973.69    11.464171   0.99733301 
    2000    292.50388    14.443542    250239.35   -74641.031    7279.4806   -81920.511     12.75491   0.99819225 
    2100     287.0788    -104.4584    250374.14   -74777.831    7144.4678   -81922.299    13.743031    0.9976549 
    2200    286.69504   -59.903103     250163.5   -74769.772    7134.9172   -81904.689    14.946391   0.99849491 
    2300    288.39392   -82.256139    250477.23   -74700.914     7177.197   -81878.111    16.128475   0.99724429 
    2400    288.81439    -189.8474    250377.58   -74682.521    7187.6612   -81870.183    17.305138   0.99764118 
    2500    287.77103   -152.12058    250467.43   -74666.993    7161.6952   -81828.688    18.290828   0.99728329 
    2600    293.66084   -50.405663    250580.28   -74515.806    7308.2735   -81824.079    19.490308   0.99683414 
    2700    290.04064   -45.150688    250496.01   -74528.423    7218.1786   -81746.601    20.764554   0.99716949 
    2800    289.22032    83.897401    249924.92    -74683.33    7197.7634   -81881.093     22.00976   0.99944808 
    2900    287.36527    143.38685     250170.2   -74594.299    7151.5972   -81745.896    23.216509   0.99846817 
    3000    290.78779   -102.16901    249878.03   -74545.329    7236.7727   -81782.102    24.180431   0.99963563 
    3100    287.37499   -96.267079    249967.89   -74534.593    7151.8391   -81686.432    25.205616   0.99927629 
    3200    290.58753    213.09888     250378.2   -74565.863    7231.7887   -81797.651    26.425958   0.99763871 
    3300    289.02369    -96.23722    250838.24   -74558.813      7192.87   -81751.683    27.633213   0.99580901 
    3400     290.8769   -299.34387    250746.52   -74522.796    7238.9903   -81761.786    28.797222   0.99617326 
    3500    290.01829   -59.459918     250597.3   -74442.134    7217.6222   -81659.757    30.204588   0.99676645 
    3600    287.76312    106.21598    250301.12   -74414.042    7161.4983   -81575.541    31.526451   0.99794593 
    3700    292.31702   -26.526485     250227.1   -74474.301    7274.8302   -81749.131    32.846616   0.99824112 
    3800    290.73078    59.449379    250200.14   -74447.506    7235.3538    -81682.86    34.079932   0.99834867 
    3900     286.2835    -164.1781    250466.62   -74600.293    7124.6753   -81724.968    35.324069    0.9972865 
    4000    293.13139   -58.229363    250574.48   -74644.581    7295.0974   -81939.678    36.512405   0.99685721 
    4100    292.11008    9.9508719    250482.49   -74599.287    7269.6801   -81868.967    37.841632   0.99722334 
    4200    291.71966   -87.057885    250380.86   -74590.562    7259.9638   -81850.526    39.348902   0.99762811 
    4300    292.55717   -35.025151    250398.89   -74496.721    7280.8067   -81777.528    40.550299   0.99755625 
    4400     288.4091   -7.4528059    250958.23   -74488.338    7177.5747   -81665.913    41.994052   0.99533292 
    4500    294.30109   -148.77148    250596.82   -74448.872    7324.2075    -81773.08    43.233077   0.99676838 
    4600    288.81429    48.875404    250593.87   -74538.786    7187.6586   -81726.444    44.318109   0.99678009 
    4700     288.5709   -47.479519    250427.54   -74605.026    7181.6013   -81786.627    45.695201   0.99744215 
    4800    289.91739    32.291967    250551.17   -74608.015    7215.1112   -81823.126    46.869986   0.99694997 
    4900    288.90977    41.106963    250674.76   -74575.833    7190.0349   -81765.868    48.286447   0.99645846 
    5000    287.97593    154.21888    250562.23   -74739.463    7166.7946   -81906.258    49.549236   0.99690598 
    5100    290.29857    51.735999    250322.27   -74610.027    7224.5976   -81834.624    50.748421    0.9978616 
    5200    289.71363   -150.61437    250569.02   -74696.841    7210.0403   -81906.881    51.900989   0.99687894 
    5300    287.25558    116.25451    250683.96   -74691.954    7148.8674   -81840.821    52.865361   0.99642188 
    5400    291.72332    82.594293    250862.15   -74568.575     7260.055    -81828.63    54.135044   0.99571411 
    5500    292.20623    96.792926    250676.02   -74500.536    7272.0731   -81772.609    55.131666   0.99645343 
    5600    291.89552   -55.831552    250513.68   -74373.646    7264.3405   -81637.987    55.994429   0.99709916 
    5700    287.36668   -10.840101    250114.14   -74574.221    7151.6323   -81725.853    57.370948   0.99869196 
    5800     289.1473     127.6324    249893.13   -74543.414    7195.9461    -81739.36    58.852758   0.99957523 
    5900    285.98944    83.055326    249737.05   -74680.252    7117.3571   -81797.609    60.128234    1.0001999 
    6000    282.84983    36.300078    249829.01   -74770.073    7039.2224   -81809.295    61.249329   0.99983176 
    6100    285.56865    165.71699    250140.82   -74801.252    7106.8849   -81908.137    62.791883   0.99858545 
    6200    289.44854   -194.89436    250417.44   -74751.968    7203.4431   -81955.411    64.051354   0.99748238 
    6300    287.34714     102.8956    250265.99   -74777.304    7151.1459    -81928.45    65.250093   0.99808602 
    6400    286.76853    117.31227    250167.07   -74695.758    7136.7463   -81832.504    66.282276   0.99848066 
    6500    287.93392    33.638035    250336.44   -74629.729    7165.7491   -81795.478    67.571374   0.99780513 
    6600    288.47175    93.963026    250471.44   -74711.102    7179.1338   -81890.236    68.578981   0.99726732 
    6700    284.94499     31.98789    250124.99    -74737.64    7091.3642   -81829.005    69.916104   0.99864863 
    6800     285.2254    118.73705    250037.64   -74858.594    7098.3428   -81956.937    71.236358   0.99899754 
    6900    288.85502     113.0219    250242.28   -74779.359    7188.6722   -81968.031    72.442241   0.99818056 
    7000    288.15494   -29.631127    250128.73   -74595.718    7171.2496   -81766.968    73.593902   0.99863369 
    7100    288.59522    4.6776231    250296.87   -74747.684    7182.2067   -81929.891    75.227176   0.99796288 
    7200    285.38393   -167.33872    250176.83   -74737.428    7102.2881   -81839.716    76.582706    0.9984417 
    7300    286.16071    181.00872    249975.96   -74746.607    7121.6196   -81868.227     77.62754   0.99924403 
    7400    287.69006    73.068603     250017.8   -74792.767    7159.6802   -81952.447    78.750104   0.99907678 
    7500    290.60142       19.923    250529.08   -74715.346    7232.1346    -81947.48    79.901494   0.99703786 
    7600    291.85852    110.27399    250637.99   -74673.919    7263.4197   -81937.338      81.2644   0.99660463 
    7700    289.09643    197.17468    250543.53   -74638.058    7194.6802   -81832.738    82.406558   0.99698038 
    7800    285.20189    146.47022    250635.08   -74654.615    7097.7576   -81752.373     83.38697   0.99661621 
    7900    282.60632    92.434042    250475.79    -74753.43    7033.1622   -81786.592    84.797486   0.99725001 
    8000     286.8915   -55.302098    250246.61   -74746.806    7139.8065   -81886.612    85.960696   0.99816329 
    8100    289.68516    -14.42005     250202.3   -74623.263    7209.3318   -81832.595    87.359741   0.99834009 
    8200    287.17498    132.24822    250366.39   -74651.021    7146.8615   -81797.882    88.568261   0.99768577 
    8300    290.68893   -200.99608    250328.72   -74587.233    7234.3125   -81821.546    89.531525   0.99783589 
    8400     285.8334   -17.746506    250102.14   -74670.069    7113.4739   -81783.543    90.322234   0.99873989 
    8500     287.4795    136.48977    250432.82   -74686.049      7154.44   -81840.489    91.561752   0.99742111 
    8600    286.41483   -131.74221    250273.96   -74596.583    7127.9439   -81724.527    92.925915   0.99805421 
    8700    291.55099    117.31464    250138.67   -74543.911    7255.7663   -81799.677     93.94945   0.99859401 
    8800    291.56466    41.748599    250269.13   -74478.057    7256.1064   -81734.164    95.076123   0.99807349 
    8900    286.19341    20.893336    249972.71    -74530.74    7122.4334   -81653.173    95.859145     0.999257 
    9000    295.59388    146.16408    250113.88   -74423.968    7356.3808   -81780.349    97.191114   0.99869301 
    9100      293.439   -97.871967    250311.18   -74473.485    7302.7527   -81776.237    98.542156   0.99790581 
    9200    289.72048   -9.9039831    250690.37   -74513.873    7210.2108   -81724.083    99.871709   0.99639638 
    9300    288.82278    -138.9994    250633.24   -74540.424    7187.8698   -81728.294    101.35853   0.99662354 
    9400    291.36269   -165.14625    250678.52   -74550.724      7251.08   -81801.804    102.55727   0.99644349 
    9500    287.75096    28.958966     250874.3   -74608.003    7161.1956   -81769.199    103.56488    0.9956659 
    9600    287.88488   -56.790023    250691.97    -74696.69    7164.5286   -81861.219    105.07969   0.99639005 
    9700    289.02798    88.515908    250756.69   -74595.694    7192.9768   -81788.671    106.44899   0.99613288 
    9800    290.30253    60.833136    250774.28    -74644.78    7224.6961   -81869.477    107.73425   0.99606301 
    9900    284.97051   -2.4510706    250794.42    -74568.29    7091.9992    -81660.29    109.24983   0.99598302 
   10000    284.79786   -40.242798    250729.35   -74771.702    7087.7026   -81859.404    110.53611    0.9962415 
   10100    289.36742    107.91539    250936.61   -74675.893    7201.4242   -81877.317    111.49173   0.99541863 
   10200    285.47603   -111.32995    250896.66   -74717.481      7104.58   -81822.061    112.37641   0.99557717 
   10300    289.61846    7.5491239    250709.17   -74715.492    7207.6718   -81923.163    113.48507   0.99632168 
   10400    289.12746   -58.389143    250389.57    -74592.96    7195.4523   -81788.412    114.95991   0.99759342 
   10500    290.54986   -44.005602    250322.04   -74612.875    7230.8512   -81843.726    116.47876   0.99786253 
   10600    289.30691     89.56452    250359.11   -74563.822    7199.9183    -81763.74    117.88519   0.99771476 
   10700    285.64514    25.906402     249996.7    -74630.96    7108.7886   -81739.748    119.34049   0.99916112 
   10800    286.59251   -90.467493    250050.44   -74527.237    7132.3655   -81659.603    120.81929   0.99894638 
   10900    291.24473   -319.07372    250211.08   -74376.579    7248.1445   -81624.723    122.66248   0.99830504 
   11000    289.63752   -137.77505    249812.06   -74460.516    7208.1462   -81668.662    124.08427   0.99989961 
   11100    290.44402   -1.8072699    250213.33   -74499.441    7228.2173   -81727.658    125.78329   0.99829604 
   11200    288.77764   -53.864762    250417.08   -74497.606    7186.7464   -81684.353    127.11953    0.9974838 
   11300    288.25905    -13.50424     250344.1   -74557.694    7173.8406   -81731.535    128.42181   0.99777461 
   11400    288.68121   -152.69202    250634.26   -74551.823    7184.3467   -81736.169    129.69427   0.99661949 
   11500    285.56674   -34.421839    250346.25   -74745.459    7106.8374   -81852.297    130.86964   0.99776604 
   11600    288.46699   -49.624427    250490.55   -74796.382    7179.0155   -81975.398    132.01102   0.99719124 
   11700    285.56889   -36.899781    250595.28   -74731.524     7106.891   -81838.415    133.25754   0.99677449 
   11800    291.46327   -106.79007    250702.98   -74683.427    7253.5832    -81937.01    134.52719   0.99634627 
   11900    288.84715    12.280861    250668.77   -74810.722    7188.4764   -81999.199    135.78005   0.99648226 
   12000    286.41417   -116.06427    250003.97   -74756.726    7127.9273   -81884.653    136.49434   0.99913206 
   12100    288.46959    92.760181     250298.1   -74757.048    7179.0802   -81936.128    137.72907   0.99795795 
   12200    290.59712     100.2106    250613.75   -74579.972    7232.0276       -81812    139.31519   0.99670105 
   12300    291.70585   -61.737527    250891.98   -74484.554    7259.6202   -81744.174    140.92563   0.99559573 
   12400    292.16404   -128.77786    250580.82   -74389.892    7271.0231   -81660.915    141.73386   0.99683202 
   12500    290.49178   -12.948613     250396.3    -74393.02     7229.406   -81622.426    142.66785   0.99756658 
   12600    291.89366   -177.78175    250419.03   -74441.854    7264.2942   -81706.148    143.80115   0.99747605 
   12700    290.72607    63.364089    250155.43   -74400.389    7235.2367   -81635.626    145.14417   0.99852713 
   12800    290.92764    128.32841    250088.07   -74480.347     7240.253     -81720.6    146.72437   0.99879606 
   12900    287.79097    118.77587    250151.05   -74524.891    7162.1915   -81687.083    148.12819   0.99854461 
   13000    289.99058   -129.10992    250686.68   -74578.182    7216.9326   -81795.115    149.59566   0.99641107 
   13100    289.05832   -147.89711    250417.48   -74554.251    7193.7318   -81747.983    150.63169   0.99748222 
   13200    288.77564    16.029197    250388.72    -74531.43    7186.6967   -81718.127    151.42119   0.99759678 
   13300    289.77654    1.6829408    250667.52   -74490.859     7211.606   -81702.465    152.57308   0.99648721 
   13400     290.1085    120.71089    250719.42   -74602.194    7219.8673   -81822.061    154.14273   0.99628094 
   13500    286.91526    27.981935    250522.53   -74604.993    7140.3979   -81745.391    155.36837   0.99706395 
   13600    289.19666   -39.059679    249984.38   -74590.303    7197.1744   -81787.477    156.49495   0.99921037 
   13700    291.24029    108.71298    250253.41   -74626.686    7248.0339    -81874.72    157.40322   0.99813618 
   13800    287.68394    -71.43438    250454.75   -74681.809    7159.5278   -81841.337    158.44917    0.9973338 
   13900    288.41154    96.728988    249943.57   -74741.534    7177.6355   -81919.169    159.39425   0.99937349 
   14000    285.03933    68.764719    250000.18    -74866.63     7093.712   -81960.342    160.27684    0.9991472 
   14100    288.66029    178.38287    249658.66   -74838.914     7183.826    -82022.74    161.26568     1.000514 
   14200    286.87847   -92.915545    249806.72   -74788.896    7139.4824   -81928.379    162.62969   0.99992097 
   14300    288.93579    -199.8996     249693.6   -74762.796    7190.6823   -81953.479    163.54667     1.000374 
   14400    287.11588    161.66695    249650.48   -74706.972    7145.3907   -81852.363    165.04719    1.0005468 
   14500    284.27637    82.786861    250047.43    -74721.19    7074.7244   -81795.915    166.53618   0.99895842 
   14600    290.87479   -39.379115    249881.55   -74585.263    7238.9379   -81824.201    167.77953   0.99962155 
   14700    287.78731    151.96149    249948.91   -74553.281    7162.1005   -81715.382    168.74192   0.99935216 
   14800    289.89545    148.48392    250159.88   -74573.904    7214.5651   -81788.469    169.63799   0.99850935 
   14900    287.83438   -33.045809    250246.33   -74573.841    7163.2718   -81737.113     170.9498   0.99816443 
   15000    287.95668    21.858324     250307.5   -74676.129    7166.3154   -81842.445    172.35694    0.9979205 
   15100     289.5819    122.18993    250388.09   -74658.957    7206.7619   -81865.719    173.62169   0.99759929 
   15200    285.85023    237.62232     250490.5   -74767.412    7113.8927   -81881.305    175.21507   0.99719143 
   15300    288.96491   -39.057014    250399.55   -74672.189    7191.4071   -81863.596    176.70598   0.99755363 
   15400    290.66529    88.374149    250882.56   -74504.053    7233.7241   -81737.777    178.22178   0.99563312 
   15500    288.28247   -64.317282    250856.09   -74533.144    7174.4234   -81707.567    179.66251   0.99573815 
   15600    289.73992   -3.1124963    250379.92   -74595.446    7210.6946   -81806.141    181.10136   0.99763186 
   15700    289.09232  -0.31951571     250442.1   -74606.083    7194.5778   -81800.661    182.41473   0.99738417 
   15800    288.70383   -98.249011    250482.28   -74650.332    7184.9096   -81835.242    184.06694   0.99722416 
   15900     288.8117     -63.3075    250301.72   -74586.806    7187.5941     -81774.4    185.22639   0.99794355 
   16000     286.2535    125.98047    250498.64   -74716.153    7123.9288   -81840.082    186.40762   0.99715904 
   16100    289.44372    17.780354    250187.24   -74658.607    7203.3231    -81861.93     187.6842   0.99840018 
   16200    291.63205    133.67716     250612.2   -74484.812    7257.7835   -81742.596      189.016    0.9967072 
   16300    288.82665   -80.338831    250709.95   -74486.244    7187.9662    -81674.21    189.78336   0.99631858 
   16400    294.64704    1.1397002    250660.72    -74426.04     7332.817   -81758.857    190.92938   0.99651426 
   16500    286.24432   -49.823261    250557.97   -74419.194    7123.7004   -81542.894    192.29832   0.99692293 
   16600     288.5927   -48.123345    250250.91   -74470.064     7182.144   -81652.208    193.98123   0.99814615 
   16700    289.05072    34.075222    250075.03   -74601.391    7193.5426   -81794.934    195.58091   0.99884817 
   16800    289.45029    133.82689    250313.68   -74535.955    7203.4866   -81739.442    197.02105   0.99789584 
   16900    291.59783   -226.86449    250454.82   -74440.877    7256.9319   -81697.808    198.57188   0.99733351 
   17000    291.49263    23.914173    250026.35   -74521.333    7254.3139   -81775.646    199.74613   0.99904263 
   17100    288.12893    -23.92078    250177.27   -74556.284    7170.6021   -81726.886    201.10435   0.99843995 
   17200    289.48715   -88.473183    249588.23   -74492.309    7204.4039   -81696.713    202.27828    1.0007963 
   17300    293.93803    144.74108    249985.04   -74402.361     7315.172   -81717.533    203.86874   0.99920773 
   17400    290.49129    249.09318    250208.18    -74529.39    7229.3937   -81758.783     205.3855   0.99831661 
   17500    290.63569    21.705883    250565.57   -74478.016    7232.9875   -81711.003    207.31853   0.99689269 
   17600    288.57546   -39.535815    250284.05   -74654.545    7181.7148   -81836.259    208.34245   0.99801397 
   17700    289.70607    63.223491    250537.31   -74651.587     7209.852   -81861.439    209.80844   0.99700514 
   17800    289.45449   -70.040737    250467.12   -74617.345     7203.591   -81820.936    211.20756   0.99728453 
   17900     288.8625    -155.1691    250171.37    -74715.23    7188.8583   -81904.088    212.10346    0.9984635 
   18000    285.15353    156.81033    250288.07   -74738.603    7096.5541   -81835.157    213.18509   0.99799797 
   18100    287.74494   -204.37653    250167.55   -74770.988    7161.0459   -81932.034    214.22931   0.99847874 
   18200    289.15507    71.412236    250563.77   -74630.141    7196.1395   -81826.281    215.89781   0.99689984 
   18300    287.31245   -11.108872    250525.56   -74672.463    7150.2825   -81822.745      217.119   0.99705187 
   18400     287.5131    56.596953    250602.15    -74803.65    7155.2763   -81958.927    217.65804   0.99674716 
   18500    288.20221    105.92677    250624.44   -74637.039    7172.4259   -81809.465    219.03035   0.99665854 
   18600    289.78862    67.828032    250313.57   -74662.758    7211.9065   -81874.665    220.31393   0.99789629 
   18700    289.38567    109.29952    250789.11   -74510.349    7201.8785   -81712.228    222.09726   0.99600411 
   18800    289.42664   -34.558625    250653.83   -74597.154    7202.8979   -81800.052    223.25103   0.99654165 
   18900     287.0623    16.526045    250437.68   -74629.565    7144.0571   -81773.622    224.51171   0.99740175 
   19000    288.62987   -31.667105    250323.71   -74603.898     7183.069   -81786.967    225.56451   0.99785586 
   19100    291.25332   -53.910429    250187.85   -74666.365    7248.3582   -81914.723    226.89904   0.99839774 
   19200    289.44863   -74.968972    250216.54   -74643.095    7203.4453   -81846.541    228.37186   0.99828327 
   19300    293.57335    68.328716    250291.89   -74630.607    7306.0964   -81936.704    229.89666   0.99798272 
   19400    286.16487   -97.676815    250052.53   -74661.851    7121.7231   -81783.574    230.93546   0.99893803 
   19500    289.13071    25.396653    250132.59    -74594.73    7195.5333   -81790.264    232.35133   0.99861831 
   19600    291.66232    3.2358469    250480.72   -74605.011    7258.5369   -81863.548    233.32112   0.99723039 
   19700    285.65608   -40.271757    250360.25   -74624.823    7109.0609   -81733.884    234.38155   0.99771023 
   19800    288.60409   -174.88014    250082.29   -74517.369    7182.4273   -81699.796    235.50942   0.99881916 
   19900    290.86547    54.534391    250117.27   -74514.051     7238.706   -81752.757    237.01186   0.99867947 
   20000     288.8976   -74.535181     250173.6   -74451.314    7189.7319   -81641.046    238.20639   0.99845461 
   20100    288.47345     133.8002    250295.63   -74539.368    7179.1762   -81718.544    239.37351   0.99796782 
   20200    292.90544    229.59302     250582.3    -74452.67    7289.4741   -81742.144    239.98293   0.99682611 
   20300    292.14743    124.27646    250826.98   -74459.896    7270.6098   -81730.506    241.14345   0.99585374 
   20400    291.94629    49.980855    251076.09   -74502.577    7265.6041   -81768.181     242.4086   0.99486568 
   20500     291.2268   -110.32311    251111.19    -74476.98    7247.6981   -81724.678    243.70722    0.9947266 
   20600    291.50676    66.343744    250858.42   -74563.372    7254.6655   -81818.037    244.79267    0.9957289 
   20700    285.90934    109.35097    250697.87   -74635.299    7115.3637   -81750.663    245.52748    0.9963666 
   20800     291.2863    -29.53118     250525.5   -74647.821     7249.179       -81897    246.30859   0.99705213 
   20900    288.37437   -13.285451     250360.2   -74649.772    7176.7104   -81826.482    247.18985   0.99771042 
   21000     291.9159    20.976764    250509.83   -74537.859    7264.8478   -81802.707    248.53406   0.99711451 
   21100    291.63278   -120.62251    250087.04   -74573.491    7257.8016   -81831.292    249.29126   0.99880021 
   21200    287.78882    -60.49082    250366.57   -74721.038    7162.1378   -81883.176    250.91911   0.99768506 
   21300    285.76987   -67.994691     250487.2   -74767.731    7111.8929   -81879.624    252.64793   0.99720457 
   21400    288.83264   -30.754638    250358.02   -74683.464    7188.1152   -81871.579    253.62281   0.99771912 
   21500    290.74148   -151.56796    250511.69   -74546.628      7235.62   -81782.248    254.87729   0.99710711 
   21600     288.6455    80.804984    250443.51   -74645.674     7183.458   -81829.132    255.25607   0.99737855 
   21700    288.96669    71.856988    250397.07   -74548.089    7191.4513    -81739.54    256.72277   0.99756354 
   21800    293.27169   -56.498303     250362.2    -74509.64     7298.589   -81808.229     257.8117   0.99770246 
   21900    288.45948   -97.845429    250065.51   -74512.152    7178.8284   -81690.981    258.90915   0.99888619 
   22000    289.67252    18.108169    250070.17   -74560.621    7209.0171   -81769.638    259.75816   0.99886758 
   22100    290.81983   -3.2155224    249906.21   -74439.086    7237.5701   -81676.657    260.76723   0.99952289 
   22200    289.34992    153.74319    250001.53   -74390.622    7200.9888   -81591.611    262.32883    0.9991418 
   22300    288.74145    357.06044    249710.36   -74470.331    7185.8459   -81656.177    263.20231    1.0003068 
   22400    288.14743     34.18366    249765.35   -74606.898    7171.0627   -81777.961    264.87785    1.0000866 
   22500    292.74396    54.607942     249932.3   -74550.169    7285.4555   -81835.625    266.84609   0.99941856 
   22600    292.34595    -76.26572    250133.28   -74509.881    7275.5503   -81785.432    268.50255   0.99861553 
   22700    292.12305    140.22335    250101.56   -74579.104     7270.003   -81849.107    270.04656   0.99874219 
   22800     288.1905    134.88996    249874.15   -74768.024    7172.1345   -81940.159    271.29931   0.99965114 
   22900    285.45678    23.462876    250845.84   -74833.092    7104.1009   -81937.193    273.30525   0.99577883 
   23000    293.27684     24.97984    251077.25   -74653.739     7298.717   -81952.456    274.92131   0.99486107 
   23100    290.68546    11.558389     251336.6   -74644.643    7234.2259   -81878.869    276.34487   0.99383451 
   23200    290.76722   -55.791051    251386.61   -74694.248    7236.2608   -81930.509    277.07732   0.99363677 
   23300    287.79149   -188.07237    250972.17   -74744.747    7162.2044   -81906.951    277.86494   0.99527762 
   23400     288.0885    10.461504    250763.71   -74715.912     7169.596   -81885.508    278.91785   0.99610498 
   23500    288.44652   0.23226893    250717.49   -74673.457    7178.5061   -81851.964    279.90198    0.9962886 
   23600    290.06038   -2.1934769    250577.41   -74692.927    7218.6697   -81911.597    280.90575   0.99684557 
   23700     287.5272    -52.19347    250594.31   -74694.645    7155.6272   -81850.272    281.95171   0.99677836 
   23800    288.67975    36.283881    250239.02   -74662.285    7184.3103   -81846.596    283.05457   0.99819359 
   23900    288.12163     94.40857     250232.7   -74560.338    7170.4206   -81730.759    283.75456   0.99821877 
   24000    289.90406    -158.8905    249984.84   -74473.892    7214.7795   -81688.672    284.72865   0.99920854 
   24100    293.24299    66.779215    250694.64   -74496.324    7297.8746   -81794.198    286.29169   0.99637942 
   24200    289.35081    76.139725    250561.52   -74404.085    7201.0109   -81605.096    287.00435   0.99690877 
   24300    289.47389    35.910623    250718.73   -74469.652    7204.0739   -81673.726    287.86645   0.99628371 
   24400    292.65037   -58.043145    250611.57   -74402.334    7283.1262    -81685.46    289.18003   0.99670969 
   24500    290.02023   -90.020739    250132.33   -74486.043    7217.6704   -81703.713    290.39671   0.99861936 
   24600    291.38731    62.936625    249788.58    -74451.58    7251.6929   -81703.273    291.15995   0.99999362 
   24700    287.15781    159.78225     249905.4     -74412.8    7146.4341   -81559.234    292.63207   0.99952617 
   24800    289.01288   -48.256108    250248.83   -74382.734    7192.6009   -81575.335    294.15395   0.99815445 
   24900    289.46207    181.94943    249954.01   -74596.243    7203.7798   -81800.023    295.11525   0.99933178 
   25000    284.13545   -118.88054    250322.93   -74618.587    7071.2172   -81689.804    295.98747   0.99785899 
   25100    288.65176    33.654401    250626.76   -74539.688    7183.6138   -81723.302    296.82297    0.9966493 
   25200    285.99068    32.532085    250625.54   -74618.833    7117.3881   -81736.221      297.503   0.99665415 
   25300    288.66172    -31.69206    249726.39   -74728.895    7183.8615   -81912.757    298.02497    1.0002426 
   25400    287.29982    20.131466    249888.18   -74687.405    7149.9683   -81837.374     299.0805   0.99959501 
   25500    289.17723    164.29245    249946.42   -74665.338    7196.6911   -81862.029    300.53753   0.99936211 
   25600    282.42389    189.58865     250667.6   -74745.747    7028.6221   -81774.369    302.39044    0.9964869 
   25700     287.8496    -73.60572    250801.79   -74758.028    7163.6505   -81921.679     303.3246   0.99595376 
   25800    288.03158   -44.486224    250391.14   -74839.639    7168.1796   -82007.819    304.02544   0.99758715 
   25900    283.14716   -162.62276    250285.93   -74935.961    7046.6221   -81982.583    305.22285   0.99800649 
   26000    286.01866    30.667331    250315.96   -74735.322    7118.0844   -81853.406    306.56575   0.99788676 
   26100    284.13299    79.033973    250434.93     -74742.9    7071.1561   -81814.056    307.54913   0.99741272 
   26200    289.66965   -192.02419       250183   -74627.305    7208.9457    -81836.25    308.45408    0.9984171 
   26300    289.65037   -55.015996    249833.47   -74532.288     7208.466   -81740.754    309.16931   0.99981391 
   26400    288.07838    67.087846    249787.67   -74625.175    7169.3441   -81794.519    310.24826   0.99999724 
   26500    289.30344    8.2328446    249772.52   -74461.416    7199.8319   -81661.248    311.73844    1.0000579 
   26600    289.52141    3.2302923    249854.64   -74494.178    7205.2565   -81699.435    313.01015   0.99972919 
   26700    286.70536    17.983573    250105.65   -74486.246    7135.1741    -81621.42    314.43057   0.99872586 
   26800    284.97138    -2.724348    249912.85   -74475.012    7092.0209   -81567.032    315.73295   0.99949636 
   26900    291.35803    54.190832     250101.5   -74525.756     7250.964    -81776.72    316.59104   0.99874243 
   27000    288.14186    31.298201    249946.03   -74618.938    7170.9239   -81789.862    317.57064   0.99936368 
   27100    289.58452    149.58546    250204.51   -74541.397    7206.8273   -81748.224    319.16115   0.99833126 
   27200    292.76775     -282.185    250450.73   -74480.843    7286.0475    -81766.89    321.11591   0.99734979 
   27300    289.96631    37.062967    250364.25   -74540.303    7216.3286   -81756.632    322.37263   0.99769429 
   27400    289.91249   -165.01662    250157.32    -74482.46    7214.9893   -81697.449     323.7702   0.99851958 
   27500    292.89069    6.6361312    250109.51   -74571.454    7289.1072   -81860.561    325.51067   0.99871046 
   27600    292.39588    30.993557    250148.39   -74457.512    7276.7928   -81734.304    326.87782   0.99855522 
   27700      290.499   -83.218724    250439.58   -74472.278    7229.5856   -81701.864    328.86944    0.9973942 
   27800     289.5318    10.910267    250686.91   -74515.588     7205.515   -81721.103    331.21443   0.99641017 
   27900    293.14866   -84.209988    250826.31   -74495.435     7295.527   -81790.962    332.38669   0.99585637 
   28000     291.3411    192.94091    250803.15   -74346.908    7250.5427    -81597.45    333.86218   0.99594835 
   28100    289.98063    9.8723033    250624.39   -74412.412    7216.6851   -81629.098    335.09611   0.99665871 
   28200    288.21812     142.4519    250161.34   -74612.063    7172.8219   -81784.885    336.44556   0.99850352 
   28300    286.37236    316.50845    250391.37   -74611.655    7126.8869   -81738.542    338.20967   0.99758621 
   28400    288.51662    219.90427    250609.41   -74426.507    7180.2506   -81606.758    339.72619   0.99671827 
   28500    290.82422    36.546866    250629.22   -74485.338    7237.6792   -81723.017    341.59392   0.99663952 
   28600    291.26947   -51.473232    250583.93   -74567.941    7248.7602   -81816.701    342.98496   0.99681962 
   28700    289.72576    170.51026    250393.55   -74733.447    7210.3422   -81943.789     344.1543   0.99757753 
   28800    288.08123   -31.377982    250715.99   -74633.111     7169.415   -81802.526    345.76335   0.99629458 
   28900    288.55715   -250.33402    250520.44   -74601.813    7181.2593   -81783.072    346.77723   0.99707227 
   29000     288.4212    56.261456    250308.02    -74590.67    7177.8758   -81768.546    347.77261   0.99791843 
   29100     290.7427    169.07843    250467.98   -74607.458    7235.6505   -81843.109    349.07762   0.99728108 
   29200    288.46469    43.446189    250333.78   -74667.674    7178.9583   -81846.632    350.19833   0.99781571 
   29300    289.27041   -111.10024    250111.91   -74658.951    7199.0101   -81857.961    350.83356   0.99870087 
   29400    287.71881   -66.395981    249716.62   -74681.446    7160.3957   -81841.841    351.46851    1.0002818 
   29500    289.30905     113.9959    249975.94   -74690.391    7199.9716   -81890.362    352.40445   0.99924409 
   29600    284.62694    261.50797    249859.72   -74672.133    7083.4489   -81755.582    353.23699   0.99970888 
   29700    291.88573    -62.97716    250140.63    -74595.42    7264.0969   -81859.517    354.77924   0.99858622 
   29800    292.93915    127.75155    250139.74   -74531.516    7290.3132   -81821.829    356.29497   0.99858977 
   29900    291.24847    35.361165    250384.83   -74487.797    7248.2376   -81736.034    357.67775   0.99761228 
   30000    290.56761    127.56113    250889.65   -74515.993    7231.2931   -81747.286    359.49665   0.99560498 
   30100    291.15746    90.548228    251096.52   -74465.649    7245.9726   -81711.622    361.44062   0.99478471 
   30200    292.76881    13.724595    251185.48   -74599.095     7286.074   -81885.169    363.20823    0.9944324 
   30300    293.29134   -53.304443    251142.42    -74495.45    7299.0781   -81794.528    364.05007   0.99460293 
   30400    291.28577   -108.65717    250484.88   -74612.543    7249.1659   -81861.709     364.3052   0.99721383 
   30500    288.57952   -142.91488    250492.22   -74705.129    7181.8159   -81886.945    365.81232    0.9971846 
   30600    284.85209    82.245379    250049.07   -74735.461    7089.0521   -81824.513     366.3469   0.99895187 
   30700    286.75352   -70.468709    250185.57    -74728.75    7136.3727   -81865.122    367.81098   0.99840684 
   30800    293.79022   -14.847774    249941.83   -74670.254    7311.4934   -81981.747      369.043   0.99938047 
   30900    284.81932    139.57214    250208.19   -74676.925    7088.2366   -81765.162    370.58376   0.99831658 
   31000    290.80606    104.23091    250607.02   -74603.659    7237.2273   -81840.887    372.16459   0.99672781 
   31100    283.45123   -258.08214    250503.55   -74824.547    7054.1894   -81878.737    373.95878    0.9971395 
   31200    288.32515   -117.81665    249687.09   -74819.452    7175.4855   -81994.937    374.29033    1.0004001 
   31300    285.90934    75.380699    249808.98   -74699.997    7115.3637   -81815.361    376.07862   0.99991194 
   31400    288.73988     30.98731    249783.22   -74776.649    7185.8067   -81962.456     377.2799    1.0000151 
   31500    289.28269    20.033954    250412.04   -74637.777    7199.3156   -81837.093    379.68488   0.99750389 
   31600     290.6148   -41.075189    250371.34    -74633.13    7232.4675   -81865.598    380.58994   0.99766604 
   31700     288.5649   -39.257263    250431.62   -74618.808     7181.452    -81800.26    382.07609    0.9974259 
   31800    291.13994   -37.866611    250401.55   -74566.328    7245.5366   -81811.865    383.63938   0.99754569 
   31900    287.96541   -201.18604    250472.18   -74531.424    7166.5327   -81697.957    384.61415   0.99726438 
   32000    287.06444   -75.878789    250134.53   -74455.191    7144.1106   -81599.301    385.47395   0.99861054 
   32100    290.17622    80.194104    249925.99   -74561.786    7221.5525   -81783.339    386.43904   0.99944382 
   32200    290.31985     22.10867    249902.77    -74559.96    7225.1272   -81785.087    387.55099   0.99953666 
   32300    290.49171    -15.75897    250248.93   -74619.435    7229.4042   -81848.839    389.31321   0.99815406 
   32400     294.2426   -169.46264    249925.64   -74487.067    7322.7518   -81809.818    390.36958   0.99944519 
   32500     290.0004    83.747139    249854.25   -74675.272     7217.177   -81892.449     391.5669   0.99973079 
   32600    288.91842   -58.130815    249603.27   -74679.545    7190.2501   -81869.795    392.31106     1.000736 
   32700    288.16295    21.844643    249697.14   -74594.089    7171.4487   -81765.538    393.94864    1.0003598 
   32800    287.61595   -58.000663    249924.26   -74659.273    7157.8357   -81817.109    395.32967   0.99945073 
   32900    285.67629    77.771651    250252.79   -74811.013    7109.5639   -81920.577    397.46562   0.99813866 
   33000    283.82539    228.68561    250425.85   -74721.489    7063.5008    -81784.99    399.63799   0.99744886 
   33100    287.06565   -58.535304    250531.08   -74700.685    7144.1405   -81844.826    401.79247   0.99702993 
   33200    290.16332   -73.405464    250482.27   -74616.481    7221.2317   -81837.713    403.12557   0.99722419 
   33300    290.49371   -30.554057    250875.91   -74559.549     7229.454   -81789.003    405.06068   0.99565951 
   33400    288.14091   -164.43621    250573.22   -74606.746    7170.9002   -81777.647    405.50633   0.99686223 
   33500    292.70507    2.8862216    250572.58   -74502.901    7284.4876   -81787.389    406.72217    0.9968648 
   33600    288.33967    11.959119    250635.16   -74576.194    7175.8469   -81752.041    407.91932   0.99661588 
   33700    290.85719    -274.5168       250685   -74630.789    7238.4999   -81869.289    408.77579   0.99641776 
   33800    291.24012   -76.196523    250505.23   -74562.057    7248.0298   -81810.087    409.66227   0.99713281 
   33900    286.43439    23.217545    250468.12   -74625.746    7128.4307   -81754.176    410.51768   0.99728055 
   34000     285.5534   -142.41076    250500.46   -74624.794    7106.5056   -81731.299    411.78774   0.99715177 
   34100    287.51241    83.139781    249966.74   -74710.751    7155.2589    -81866.01    412.62614   0.99928087 
   34200    288.04687   -54.501977    250482.31   -74681.044    7168.5601   -81849.604    414.15447   0.99722406 
   34300    292.04163    39.724012    250852.93   -74623.215    7267.9768   -81891.191    416.01098    0.9957507 
   34400     295.2168    35.767098     250579.1    -74502.46    7346.9966   -81849.456    416.78684   0.99683887 
   34500    296.39962   -39.813828    250357.84   -74464.431    7376.4331   -81840.864    418.52509   0.99771983 
   34600    288.24398   -10.297281    249956.01   -74517.882    7173.4654   -81691.348    419.57108   0.99932375 
   34700    285.72695   -17.657024    249798.77   -74622.519    7110.8246   -81733.344    420.43625    0.9999528 
   34800    283.45303   -54.161819    249383.96   -74632.006    7054.2341    -81686.24    421.02526    1.0016161 
   34900    288.29446    49.651856    249472.39    -74535.05    7174.7218   -81709.772    422.24878     1.001261 
   35000    288.59401    205.92662    249393.29   -74599.779    7182.1766   -81781.955    423.49099    1.0015786 
   35100    289.35453    59.399228    249720.75   -74571.733    7201.1034   -81772.836     425.1305    1.0002652 
   35200    295.53772    218.15053    250097.16   -74378.071    7354.9831   -81733.054    427.56135   0.99875978 
   35300    289.92115   -24.024083    250171.29   -74453.762    7215.2049   -81668.967    429.13846   0.99846383 
   35400    289.66131   -51.065204    250215.17   -74564.798    7208.7381   -81773.536     430.5507   0.99828873 
   35500    289.72683    17.179412    249819.37   -74565.095    7210.3688   -81775.464    431.49882   0.99987035 
   35600    288.05914    54.825576    250062.57   -74542.204    7168.8653    -81711.07    433.21939   0.99889793 
   35700    291.66997   -63.743368    249882.94   -74474.994    7258.7273   -81733.721    434.13257   0.99961598 
   35800    291.14949    135.63138    250544.23    -74536.49    7245.7742   -81782.264    436.44455    0.9969776 
   35900    290.28235   -60.062726    251035.34    -74480.18     7224.194   -81704.374     438.2034   0.99502714 
   36000    288.10705    21.184684    251008.23   -74512.508    7170.0578   -81682.566    439.56406   0.99513465 
   36100    288.33317   -96.149116    250279.89   -74579.026     7175.685   -81754.711    440.28818   0.99803058 
   36200    292.53546   -49.644784    250085.71   -74545.274    7280.2665    -81825.54    440.71979   0.99880552 
   36300    288.74623   -25.003524    250305.34   -74599.058    7185.9648   -81785.023    442.45083   0.99792912 
   36400    288.47583     -81.0499    250154.21    -74546.26    7179.2354   -81725.495    443.21154     0.998532 
   36500    293.14959    17.668949    249975.94   -74453.143    7295.5503   -81748.693    443.99775   0.99924408 
   36600    293.78265   -61.369287    249881.66   -74600.784    7311.3051   -81912.089    444.48715   0.99962112 
   36700    287.34575   -8.3261601    249967.22   -74613.824    7151.1113   -81764.935    446.21189   0.99927894 
   36800    285.42657    -163.7803    249694.92   -74723.836    7103.3492   -81827.185    446.98132    1.0003687 
   36900    289.80494     28.74257    249615.96   -74751.964    7212.3127   -81964.277    447.71161    1.0006852 
   37000    291.64337   -50.576103    249443.97   -74653.051    7258.0654   -81911.116    448.19111    1.0013751 
   37100    289.41983   -20.809838    249412.84   -74708.566    7202.7284   -81911.294     448.9299    1.0015001 
   37200    286.30704    39.304702    249165.79    -74703.13    7125.2611   -81828.391    449.62792    1.0024931 
   37300    290.00252    86.638629    249264.22    -74657.93    7217.2299   -81875.159    450.87652    1.0020972 
   37400    284.44887    208.09848    249812.21   -74748.442    7079.0173   -81827.459    453.10237     0.999899 
   37500    289.36165    158.57435    250329.57   -74766.224    7201.2807   -81967.505    454.26635   0.99783251 
   37600    289.46867   -61.815026    250355.54   -74697.107     7203.944   -81901.051     455.6523   0.99772901 
   37700    286.18735    23.536878    250164.18   -74635.758    7122.2826    -81758.04    456.00378   0.99849218 
   37800     288.0805     126.9901    250371.21   -74676.151    7169.3968   -81845.548    457.03446   0.99766654 
   37900    288.09213   -90.762483    250850.76   -74761.992    7169.6864   -81931.678    458.66479   0.99575933 
   38000    290.11518    13.424455    250502.93   -74798.369    7220.0335   -82018.402    458.91558   0.99714197 
   38100    286.54126    -10.51517    250347.09   -74813.581    7131.0903   -81944.671     460.0342   0.99776267 
   38200    288.59678    19.574049    250485.83   -74854.109    7182.2454   -82036.355    461.09665   0.99721001 
   38300    284.10709    7.7547028    250383.92   -74904.544    7070.5116   -81975.056    461.50485   0.99761591 
   38400    281.26606    239.57359    250528.94   -74941.006    6999.8075   -81940.813    462.34642   0.99703843 
   38500    283.33567   -38.635144    250659.87   -74974.108    7051.3134   -82025.421    463.30836   0.99651765 
   38600    285.41924    16.760907    250574.49   -74810.642    7103.1668   -81913.809    464.07672   0.99685717 
   38700    285.96872    80.096559    250795.63   -74768.226    7116.8416   -81885.067     464.7456   0.99597823 
   38800    289.82987    64.916329    250929.87   -74638.866    7212.9331   -81851.799    466.24235   0.99544537 
   38900    292.85422    145.64933    250997.37   -74553.772    7288.1994   -81841.971    467.26942   0.99517769 
   39000    289.03173   -107.15661    250377.79   -74621.256      7193.07   -81814.326    467.24835   0.99764035 
   39100    288.44262   -238.94305     250330.5   -74620.454     7178.409   -81798.863    468.28196    0.9978288 
   39200    291.25168   -125.17774     250349.3   -74628.794    7248.3174   -81877.111    469.23594   0.99775387 
   39300    291.42808   -126.27685    250388.51   -74577.637    7252.7075   -81830.344    470.28012   0.99759763 
   39400    288.96357    6.7264315    249842.96   -74645.429    7191.3736   -81836.803    470.33233   0.99977593 
   39500    289.11688    128.66226    249942.59   -74523.568     7195.189   -81718.757    470.68264   0.99937742 
   39600    291.42219     174.6315    250615.92   -74474.933    7252.5609   -81727.494    473.18261   0.99669241 
   39700    286.68817   -60.647478    250446.43   -74594.198    7134.7463   -81728.945    474.08314   0.99736691 
   39800    288.81928   -58.131377    250715.67    -74583.09    7187.7829   -81770.873    475.75375   0.99629587 
   39900    285.65183    14.987917    250216.69   -74820.682    7108.9551   -81929.637    475.80225   0.99828265 
   40000     288.5924   -48.086269    250210.84   -74678.004    7182.1364   -81860.141    476.72154   0.99830598 
   40100    292.12667   -154.38139     250730.3   -74702.641    7270.0931   -81972.734     478.5155   0.99623774 
   40200    290.74979   -298.27977    250023.44    -74638.21    7235.8269   -81874.037    478.36986   0.99905426 
   40300    291.18955    113.66036    249804.14    -74589.13    7246.7712   -81835.901    479.41182   0.99993131 
   40400    288.46305   -158.35613    249657.61   -74628.032    7178.9175   -81806.949    480.01597    1.0005182 
   40500     288.3253    196.55821    249785.66   -74664.784    7175.4893   -81840.273    481.48449    1.0000053 
   40600    286.70341    38.209849    250100.06   -74627.571    7135.1255   -81762.697     482.8932   0.99874818 
   40700    286.73485   -57.788066    249836.21   -74662.642    7135.9081    -81798.55     483.6413   0.99980298 
   40800    287.08941   -262.29294    249646.27   -74673.137    7144.7318   -81817.869    484.72865    1.0005636 
   40900    286.33038   -102.92517    249697.06   -74695.566    7125.8421   -81821.408    486.49747    1.0003601 
   41000    288.75932   -38.056928    250196.86    -74693.78    7186.2905    -81880.07    488.60823   0.99836176 
   41100    289.72737   -1.1531787    249983.92   -74720.503    7210.3822   -81930.885      489.937   0.99921219 
   41200    294.74783   -86.897971    250046.28   -74513.529    7335.3254   -81848.854    491.46631     0.998963 
   41300    289.52179    78.468963    250130.55   -74681.715    7205.2661   -81886.981    492.99921   0.99862646 
   41400    285.23653   -14.121328    250051.89   -74664.959    7098.6196   -81763.578     493.7729    0.9989406 
   41500    285.48996   -48.394951    250223.82   -74694.709    7104.9268   -81799.636    495.27941   0.99825423 
   41600    294.09944    -49.84762    250606.26   -74595.627    7319.1891   -81914.816    497.60234   0.99673082 
   41700    286.58565   -32.885365    250433.23   -74799.205    7132.1949     -81931.4    498.52067   0.99741947 
   41800    292.65529   -1.8018538    250617.19   -74626.875    7283.2488   -81910.123    499.34638   0.99668735 
   41900    290.30971   -129.08631    250232.76   -74550.977    7224.8749   -81775.852    499.15147   0.99821853 
   42000    290.46802    163.77794    250320.58    -74602.74    7228.8146   -81831.554    499.69181   0.99786833 
   42100    288.41181    10.060006    250519.62   -74657.421    7177.6422   -81835.063    501.35237   0.99707554 
   42200    288.21606    37.780012    250389.08   -74537.465    7172.7705   -81710.235    502.12364   0.99759534 
   42300    287.56371    4.4619025    250377.53   -74616.471    7156.5357   -81773.006    503.27829   0.99764138 
   42400    287.34534   -41.263342    250020.27   -74704.276    7151.1011   -81855.377    503.88336   0.99906692 
   42500     286.4187   -96.793787    249826.93   -74702.455    7128.0401   -81830.496    504.61269   0.99984009 
   42600    290.78143    119.52618    249335.61   -74704.191    7236.6145   -81940.805    505.30428    1.0018103 
   42700    284.74816    89.002731    249655.72    -74733.06    7086.4657   -81819.526    506.52498    1.0005258 
   42800    286.83795   -131.04453     249957.3   -74803.624     7138.474   -81942.098    508.09749   0.99931862 
   42900    285.25421   -11.326764     250094.4   -74757.046    7099.0596   -81856.105     509.7639   0.99877078 
   43000    285.55296    115.57221    250363.45   -74663.659    7106.4947   -81770.154     511.4734   0.99769749 
   43100    290.01133   -41.898057    250351.45   -74680.983    7217.4492   -81898.432    513.24479    0.9977453 
   43200    286.05244  -0.48897612     250571.9   -74679.932    7118.9249   -81798.857    514.72098   0.99686748 
   43300    289.69598   -44.540428    250315.31   -74677.285    7209.6009   -81886.886    514.91363   0.99788937 
   43400    289.37889   -128.51245    250270.42   -74801.464    7201.7096   -82003.174    516.02447   0.99806832 
   43500    291.65137    156.89595    250475.54   -74707.881    7258.2644   -81966.145    517.05887   0.99725099 
   43600     290.3294   -5.8312066    250263.29   -74772.528    7225.3649   -81997.893    517.28817   0.99809676 
   43700    287.97767   -218.35694    250002.58   -74724.562    7166.8378   -81891.399    518.01465   0.99913761 
   43800    287.09049    116.76518    250056.85   -74645.145    7144.7588   -81789.904    519.51346   0.99892079 
   43900    287.68861    -12.89938    250418.17   -74708.655     7159.644   -81868.299    521.87447   0.99747948 
   44000    289.01921    98.111515    250477.63    -74595.49    7192.7585   -81788.248    522.86441   0.99724266 
   44100    292.33569   -53.148229       250613   -74528.495     7275.295    -81803.79    523.67157   0.99670403 
   44200    287.54752    80.604309    250234.67   -74591.104    7156.1327   -81747.237    524.79322   0.99821094 
   44300    285.91521   -120.45577    250465.69   -74732.758    7115.5098   -81848.268    526.37708    0.9972902 
   44400    288.53504   -150.33036    250275.29   -74708.499    7180.7089   -81889.208    526.85781   0.99804892 
   44500    289.22306    69.799455     250098.7   -74765.004    7197.8316   -81962.836    527.68906   0.99875362 
   44600    285.60688   -101.33755    250409.77   -74798.462    7107.8364   -81906.298    529.57891   0.99751294 
   44700    284.64444   -124.77118    250123.84   -74879.186    7083.8843    -81963.07    529.94112   0.99865322 
   44800    285.97681   -44.080092    250257.56   -74749.462    7117.0428   -81866.504    531.37307   0.99811964 
   44900    286.71081   -194.61521    250518.15   -74718.935    7135.3098   -81854.245    533.00531   0.99708139 
   45000    285.90803    120.88806    250724.97   -74720.264    7115.3311   -81835.595     535.1566    0.9962589 
   45100    289.11753    53.097219    250559.64   -74671.869    7195.2052   -81867.074    536.56196   0.99691625 
   45200    288.03014   -134.65196    250604.78   -74749.662    7168.1435   -81917.805    537.91424    0.9967367 
   45300    286.75871    27.165469    250167.61   -74747.765    7136.5019   -81884.267    538.06064   0.99847851 
   45400    284.49486    27.338548    250271.65   -74786.834     7080.162   -81866.996    539.21525   0.99806343 
   45500    286.20677    62.659448    250403.82   -74665.294    7122.7659    -81788.06    540.95029   0.99753661 
   45600    286.82242   -64.359063    250259.68   -74656.146    7138.0873   -81794.233    542.48433   0.99811115 
   45700    286.71987    80.339651    250137.21   -74645.667    7135.5351   -81781.202    543.84339   0.99859987 
   45800    289.84819    76.868146    250824.31   -74535.854    7213.3892   -81749.243    545.99013   0.99586433 
   45900    289.24214    46.180288    250535.64   -74613.204    7198.3063   -81811.511    547.23124   0.99701178 
   46000    289.20239    57.615531       250085   -74681.169    7197.3171   -81878.487    547.64114   0.99880835 
   46100    290.99477   -16.209026    250110.93   -74714.219    7241.9237   -81956.142    548.70298   0.99870479 
   46200    285.11323    149.20645    250450.25   -74651.826    7095.5511   -81747.377    550.78455   0.99735171 
   46300    287.08646    6.2282259    250471.03   -74636.654    7144.6585   -81781.313    551.70716   0.99726894 
   46400    286.81647    -138.2626    249970.26   -74592.555    7137.9392   -81730.494    552.39144   0.99926679 
   46500    292.93927   -191.11565    249814.31   -74544.286    7290.3162   -81834.602     553.2421    0.9998906 
   46600    289.14727    48.415948    250261.06   -74450.007    7195.9454   -81645.953    554.85069   0.99810567 
   46700    291.49786   -4.0202893    250967.07   -74436.173    7254.4441   -81690.617    557.35519   0.99529784 
   46800    290.74704    18.721598    250859.28   -74371.667    7235.7585   -81607.425    557.90931   0.99572552 
   46900    289.82629   -131.14615    250524.01   -74422.341    7212.8441   -81635.185     558.0792   0.99705806 
   47000    290.76285   -32.080875    250200.16   -74519.644    7236.1519   -81755.795    558.80251   0.99834863 
   47100    295.40777    110.67385    250580.51   -74506.539    7351.7492   -81858.288    560.76007   0.99683324 
   47200    290.07375    102.03467    250712.04   -74541.414    7219.0026   -81760.417    562.10603   0.99631027 
   47300    291.84164     155.1381    251459.51   -74499.234    7262.9996   -81762.233    564.84047    0.9933487 
   47400    291.84875    46.125991    251458.73   -74410.784    7263.1766    -81673.96    566.80993   0.99335181 
   47500    290.81193    131.14096     251102.8   -74523.635    7237.3735   -81761.008    567.68244   0.99475984 
   47600    287.73816   -155.22814     250852.2   -74450.437    7160.8771   -81611.314    568.67777   0.99575361 
   47700    288.32206     72.64678    250596.52   -74524.404    7175.4086   -81699.813    569.74734   0.99676955 
   47800    285.09364   -61.741272    250634.65   -74624.227    7095.0635   -81719.291    570.37247    0.9966179 
   47900    288.75061  -0.82490968    250572.94   -74615.906    7186.0739    -81801.98    571.90521   0.99686338 
   48000    288.25256     42.17923    250574.96   -74762.303    7173.6791   -81935.982     573.5335   0.99685533 
   48100    291.52723   -116.56143    250690.44   -74758.116     7255.175   -82013.291    574.63004   0.99639613 
   48200    288.73166   -6.9980384     251202.4    -74732.66    7185.6022   -81918.262    576.41776   0.99436544 
   48300    290.36108   -117.20047    250796.57   -74704.431    7226.1531   -81930.584    576.95636   0.99597446 
   48400     286.0315    62.837934    250671.02   -74652.953    7118.4039   -81771.357    577.66093    0.9964733 
   48500    283.86092    -53.45098    250494.45   -74726.142    7064.3851   -81790.527    579.40638   0.99717571 
   48600    286.15975   -13.528681    250763.25   -74721.368    7121.5957   -81842.964     580.2211   0.99610682 
   48700    282.96087   -84.967863     250486.2   -74752.885    7041.9857   -81794.871    581.00537   0.99720857 
   48800    288.27523   -30.163123    249815.46   -74722.865    7174.2431   -81897.108      581.169   0.99988601 
   48900     285.0406    55.844507    249938.24   -74634.427    7093.7435   -81728.171    582.96587   0.99939484 
   49000    286.12359   -21.425611    249726.17   -74646.179    7120.6956   -81766.875    583.91693    1.0002435 
   49100    288.07714  -0.63140969    250098.52   -74639.836    7169.3134    -81809.15    586.04599   0.99875435 
   49200    286.69843   -88.599397    249981.05   -74769.882    7135.0017   -81904.884    586.73272   0.99922366 
   49300    286.34595   -107.45769    249584.13   -74780.381    7126.2296   -81906.611    587.42588    1.0008128 
   49400     288.1264    29.982248    249982.34   -74675.606    7170.5392   -81846.146    589.16968    0.9992185 
   49500    286.72109   -23.269814    250075.28    -74639.17    7135.5656   -81774.735    590.58002   0.99884717 
   49600    285.26571   -50.413641    249956.18   -74641.628    7099.3458   -81740.974    591.71272    0.9993231 
   49700    290.52474    73.513053    249712.28   -74597.044    7230.2261    -81827.27    592.03598    1.0002992 
   49800    291.90694   -106.88317    249693.71   -74500.444    7264.6246   -81765.069    593.28312    1.0003736 
   49900    291.01312   -94.651483    249524.01   -74624.393    7242.3805   -81866.774    593.94748    1.0010539 
   50000    289.29196      101.965    249633.88   -74707.501    7199.5462   -81907.047    594.86877    1.0006133 
   50100    287.51446    14.525163    249802.13   -74756.674      7155.31   -81911.984    595.55293   0.99993938 
   50200    290.92737    208.02271    249977.99   -74713.833    7240.2463   -81954.079    597.09941   0.99923591 
   50300    289.68885   -75.078096    250450.23   -74696.132    7209.4236   -81905.556    599.04716   0.99735177 
   50400    287.17406   -97.825025    250651.15   -74737.003    7146.8386   -81883.842    600.33096   0.99655232 
   50500    287.22713   -54.514538     250515.7   -74767.274    7148.1593   -81915.434     601.0331   0.99709115 
   50600    288.61685   -173.62234    250669.84    -74765.05    7182.7449   -81947.795      602.225   0.99647802 
   50690    289.25828   -216.66792    250397.44   -74725.327    7198.7081   -81924.035    602.60081   0.99756205 
Loop time of 107.937 on 12 procs for 50000 steps with 8350 atoms

Performance: 200.117 ns/day, 0.120 hours/ns, 463.233 timesteps/s
99.8% CPU use with 12 MPI tasks x no OpenMP threads

MPI task timing breakdown:
Section |  min time  |  avg time  |  max time  |%varavg| %total
---------------------------------------------------------------
Pair    | 93.644     | 94.728     | 95.473     |   5.4 | 87.76
Neigh   | 4.1076     | 4.1609     | 4.2261     |   1.8 |  3.85
Comm    | 6.3123     | 7.0224     | 8.1232     |  19.9 |  6.51
Output  | 0.13945    | 0.14319    | 0.18194    |   3.1 |  0.13
Modify  | 1.4374     | 1.4696     | 1.5289     |   2.3 |  1.36
Other   |            | 0.4123     |            |       |  0.38

Nlocal:    695.833 ave 711 max 677 min
Histogram: 1 0 0 1 2 3 2 2 0 1
Nghost:    1373 ave 1389 max 1355 min
Histogram: 1 1 0 1 2 3 1 1 1 1
Neighs:    0 ave 0 max 0 min
Histogram: 12 0 0 0 0 0 0 0 0 0
FullNghs:  20141.2 ave 20717 max 19468 min
Histogram: 1 0 0 2 2 1 3 2 0 1

Total # of neighbors = 241694
Ave neighs/atom = 28.9454
Neighbor list builds = 3632
Dangerous builds = 0

undump              1

# Cut out the Slab
#
region		    top block INF INF INF INF 14 86 side out
delete_atoms	    region top
Deleted 2345 atoms, new total = 6005

# Add the barrier (top indentor only)
#
fix                 5 all indent 10.0 plane z 86.0 hi
# fix                 6 all indent 10.0 plane z 14.0 lo


# Run 0.25 ns equilibration
#
dump                1 all custom 1000 eq2.${NAME}.dump id type x y z vx vy vz
dump                1 all custom 1000 eq2.slab_289K_longhalfindent1o.dump id type x y z vx vy vz
run                 50000
Per MPI rank memory allocation (min/avg/max) = 3.477 | 3.481 | 3.484 Mbytes
Step Temp Press Volume TotEng KinEng PotEng c_1[4] Density 
   50690     287.4538   -420.12353    250397.44   -52894.716    5144.4985   -58039.215    606.43235    0.7174084 
   50700    291.54476    56.070853    250267.41   -52875.632    5217.7135   -58093.346    606.47916   0.71778114 
   50800    289.49439   -126.73575    250381.61   -52885.758    5181.0184   -58066.777     607.4572   0.71745374 
   50900    295.63419    7.9676258    249876.16   -52867.362    5290.9011   -58158.264    608.52226   0.71890501 
   51000    293.43867    40.986776     248958.1   -52945.726    5251.6084   -58197.334    608.04103   0.72155606 
   51100    296.60887   -2.0100908    249725.98   -53002.388    5308.3447   -58310.733    610.57422   0.71933736 
   51200     290.8683    59.184825    249809.76    -53092.89    5205.6071   -58298.497    611.73146    0.7190961 
   51300    288.65598   -77.646583    250213.56    -53182.69    5166.0136   -58348.703    613.28281    0.7179356 
   51400    287.36055    64.067412    250481.49   -53202.904    5142.8296   -58345.734    613.98865   0.71716767 
   51500     286.0553   -55.402354    250517.09   -53181.313    5119.4698   -58300.783    615.19954   0.71706576 
   51600    289.34703    103.46124    250481.04   -53143.094    5178.3811   -58321.475    616.77922   0.71716896 
   51700    288.69875    111.29869     250567.4   -53224.089     5166.779   -58390.868    617.48599   0.71692176 
   51800    279.76746    8.6390861    250384.26   -53322.917    5006.9377   -58329.854    618.91886   0.71744615 
   51900    288.61722    9.7413076    250489.69   -53189.081    5165.3199   -58354.401    620.05541   0.71714419 
   52000    285.57602    64.478973    250812.28   -53167.371    5110.8922   -58278.263    621.13938    0.7162218 
   52100    287.49537   -57.068849    251138.39   -53088.161    5145.2423   -58233.404    622.29274   0.71529178 
   52200    287.87922    67.494801    251350.85   -53056.714    5152.1121   -58208.826    623.58718   0.71468716 
   52300    290.10555    -113.1163    251487.26   -52963.396    5191.9563   -58155.352    625.06605   0.71429951 
   52400    292.29812   -9.5902573    251956.89   -52980.428    5231.1961   -58211.624    626.31799    0.7129681 
   52500    285.03178    30.050253    251778.56   -53083.119     5101.152   -58184.271    627.17676   0.71347307 
   52600    286.85184    22.832684    252001.22   -53052.872    5133.7253   -58186.597    628.62872   0.71284267 
   52700    293.60153    62.505844    252013.37   -53040.451    5254.5229   -58294.974    629.92221   0.71280831 
   52800    292.64102   -7.3016946    252422.78   -53083.466    5237.3329   -58320.799    631.65759   0.71165218 
   52900    288.30536   -7.3572545    252899.32   -53055.954    5159.7386   -58215.693    634.43654   0.71031123 
   53000    294.15436    21.371293    252208.82     -52926.4     5264.417   -58190.817    634.94118   0.71225592 
   53100    294.41523   -174.05821    252059.94   -52863.781    5269.0856   -58132.867      636.805    0.7126766 
   53200    293.01437    111.45148    251923.41   -52823.113    5244.0147   -58067.128     637.8734   0.71306286 
   53300    293.79313   -23.510574    251961.91   -52838.327    5257.9521   -58096.279    639.37153   0.71295391 
   53400    299.11476    113.53747    252132.63   -52822.874    5353.1921   -58176.066    642.24779   0.71247115 
   53500    294.25251   -26.261212    252716.23   -52921.753    5266.1735   -58187.926     643.6992   0.71082584 
   53600    293.93926    26.039733    252570.96   -52960.482    5260.5673   -58221.049     643.9755   0.71123468 
   53700    296.84454   -196.39634    252965.13   -52997.149    5312.5624   -58309.712    645.34675   0.71012643 
   53800    290.84493    48.755949    253222.98   -53031.941    5205.1887    -58237.13    646.78943   0.70940332 
   53900    282.33848    -39.82922    253260.03   -53182.728    5052.9507   -58235.678    646.90742   0.70929954 
   54000    290.05024    82.445448    252931.52   -53035.976    5190.9664   -58226.943    648.53636    0.7102208 
   54100    290.69089    -56.65241    252911.56   -53033.573     5202.432   -58236.005    649.70152   0.71027685 
   54200    294.03526    50.054175    253072.18    -52993.74    5262.2854   -58256.025    651.99436   0.70982605 
   54300    292.41774    108.18465    252515.76   -53048.168    5233.3371   -58281.505    653.51877   0.71139015 
   54400    288.14871    40.872597    252755.37   -53047.227     5156.935   -58204.162    655.57936   0.71071576 
   54500    292.40734   -83.165996    253014.89   -53077.879    5233.1508    -58311.03    657.40597   0.70998676 
   54600    292.00204   -18.387199    253523.29    -53010.48    5225.8974   -58236.377    659.18705   0.70856302 
   54700    289.74959    59.162493    253845.43   -52929.484    5185.5857    -58115.07     660.9302   0.70766381 
   54800    292.35557   -78.865266    253257.89   -52913.249    5232.2244   -58145.473    662.05483   0.70930555 
   54900    289.87165    44.673946    252514.63   -53030.664    5187.7702   -58218.434    662.00789   0.71139333 
   55000    291.00672    93.856901    252701.53   -53022.329    5208.0842   -58230.413     664.0147   0.71086718 
   55100    290.76319    79.832962    253119.08   -53142.657    5203.7259   -58346.383    665.41731   0.70969453 
   55200    286.32586   -2.6194736    253416.07   -53111.757     5124.312   -58236.069    667.22491   0.70886281 
   55300    288.22698   -112.69112    253690.83   -53147.437    5158.3358   -58305.773    668.96352   0.70809508 
   55400    294.05122   -56.837942    254023.96   -53074.425     5262.571   -58336.996    670.70376   0.70716645 
   55500     289.2448   -24.472341    253773.24   -53013.694    5176.5516   -58190.246    671.63035   0.70786511 
   55600    291.79576    29.677779    253571.75   -53036.721    5222.2055   -58258.927    673.27926   0.70842759 
   55700    292.25158    19.589945    253658.72   -53098.325    5230.3633   -58328.688    675.70058    0.7081847 
   55800    287.48518   -162.54693    253154.25   -53012.793      5145.06   -58157.853    676.13483   0.70959594 
   55900    295.00519   -184.69723    253037.81     -53024.6     5279.644   -58304.244    678.19634   0.70992246 
   56000    291.28161    26.402204     253021.6   -53073.741    5213.0038   -58286.745    679.41193   0.70996794 
   56100      292.212   -66.819639    253238.57   -53117.593    5229.6549   -58347.248    681.57631   0.70935967 
   56200    284.99503    25.589086    253439.99   -53125.306    5100.4944   -58225.801    683.95128    0.7087959 
   56300    284.68905     100.6371     253912.8   -53128.544    5095.0182   -58223.562    685.88007   0.70747604 
   56400    291.72549      24.5165    253799.64   -53071.727    5220.9479   -58292.675    687.54049   0.70779148 
   56500    291.92439    145.87621    254326.82   -53013.868    5224.5076   -58238.376    690.54969   0.70632436 
   56600    291.57347    69.875296    254850.89   -53058.864    5218.2272   -58277.091    692.80886   0.70487189 
   56700    292.32108    23.372706    254646.17   -53054.235    5231.6071   -58285.842    693.54686   0.70543855 
   56800    286.95174   -71.821122    254591.11   -53093.341    5135.5132   -58228.854    695.20104   0.70559111 
   56900    290.80056    321.82051    254948.32    -53024.56    5204.3946   -58228.955    696.58339   0.70460251 
   57000    289.75968   -222.34136     254188.4   -53066.926    5185.7663   -58252.693     696.8324   0.70670897 
   57100    290.02903     58.34286    254598.92   -52932.746    5190.5867   -58123.333     698.8776   0.70556946 
   57200    286.65024    45.108476     254853.2   -53003.795    5130.1172   -58133.913     700.1112   0.70486549 
   57300    285.13667    6.6141668     255242.4   -53110.927    5103.0292   -58213.956    702.31271   0.70379069 
   57400    290.08361   -82.265634    254596.01   -53111.882    5191.5636   -58303.446     702.0164   0.70557754 
   57500    293.96066    163.54658    254669.74   -52969.612    5260.9502   -58230.563    703.99163   0.70537327 
   57600    284.65704    45.574069    254919.84   -53131.351    5094.4454   -58225.797    705.66948   0.70468122 
   57700    289.76626    81.522092    255089.18   -53102.896     5185.884   -58288.781    707.73578   0.70421343 
   57800     290.6365    8.7909364     255414.1   -53121.154    5201.4585   -58322.613     709.9458   0.70331758 
   57900    286.60721   -91.190246    255439.03   -53135.231    5129.3472   -58264.578    710.72322   0.70324895 
   58000    289.66164   -51.632059     255084.2   -53137.657    5184.0117   -58321.668    710.06479   0.70422718 
   58100    291.66904    39.880692    254951.21   -53126.055    5219.9377   -58345.992    711.39581   0.70459452 
   58200    288.73192   -100.49053    255049.26   -53171.631    5167.3726   -58339.004    713.66028   0.70432364 
   58300    284.25442   0.20489597     254997.5   -53198.287    5087.2399   -58285.527    714.79472   0.70446661 
   58400    287.51568   -2.9943735    255124.13   -53231.334    5145.6059    -58376.94    716.56296   0.70411696 
   58500     280.0154    44.274008    254708.37   -53291.554     5011.375   -58302.929    717.35049   0.70526627 
   58600    286.49666   -107.93841    254859.92   -53221.267    5127.3687   -58348.635    718.14673   0.70484689 
   58700    287.30845    19.613152    254473.75   -53167.814    5141.8972   -58309.711    718.62258   0.70591651 
   58800      290.712   -53.087129    254321.63   -53180.923    5202.8098   -58383.733    718.85135   0.70633875 
   58900    288.87335     19.75846    254118.38   -53165.381    5169.9038   -58335.285    720.10609   0.70690371 
   59000    288.09045    -107.7462    253734.78   -53192.268    5155.8924   -58348.161     720.8646   0.70797241 
   59100    287.60465   -58.861505    253964.59   -53281.407    5147.1981   -58428.605    722.61468   0.70733177 
   59200    286.79348    61.643033    253828.88   -53274.266    5132.6808   -58406.947    724.38249   0.70770995 
   59300    285.70948   -94.749438    253929.88   -53220.069    5113.2807   -58333.349    726.26756   0.70742847 
   59400    286.66669   -100.43436     254143.1   -53215.918    5130.4117   -58346.329    727.95438   0.70683495 
   59500    287.86272   -62.996875    253854.77   -53161.546    5151.8169   -58313.363     729.3406   0.70763777 
   59600    288.41883   -156.69453    253985.66   -53226.633    5161.7693   -58388.402     730.2649    0.7072731 
   59700    287.01116    43.499912    253875.24   -53125.785    5136.5766   -58262.361    731.67158   0.70758071 
   59800    287.41318    25.740292    253506.26   -53157.712    5143.7714   -58301.483     732.1471    0.7086106 
   59900    286.94928   -32.094068    253710.45   -53118.119    5135.4691   -58253.588    733.32751   0.70804031 
   60000    288.03397   -16.852915    253290.18   -53111.909    5154.8816   -58266.791     734.4782   0.70921512 
   60100    291.72062    4.9758354     253964.6   -53143.264    5220.8608   -58364.125    736.57235   0.70733175 
   60200    287.59237    55.346188    253238.27   -53146.302    5146.9785    -58293.28    736.68712   0.70936051 
   60300    290.02249    94.929563    253661.72   -53077.616    5190.4697   -58268.085    738.42845   0.70817633 
   60400    289.86677   -36.266673    253689.19   -53052.525    5187.6828   -58240.208    739.15243   0.70809964 
   60500    288.82995    172.97724    254469.04   -53178.601     5169.127   -58347.728    742.10122   0.70592958 
   60600    287.65265   -200.22224    254824.51   -53266.671    5148.0571   -58414.728    744.42346   0.70494485 
   60700    286.12063   -86.939044    254484.75   -53326.509    5120.6389   -58447.148    746.20792     0.705886 
   60800    282.55061    76.442507     254619.8   -53265.029     5056.747   -58321.776    747.77013   0.70551161 
   60900    283.83146    65.027992    254355.63   -53252.399    5079.6702    -58332.07    748.98029   0.70624435 
   61000    282.84215    69.671912    254757.16   -53208.603    5061.9647   -58270.568    750.90143   0.70513122 
   61100    292.46171    41.006911    254557.32   -53187.994     5234.124   -58422.118    751.59789   0.70568477 
   61200    285.57702    39.798063    254974.62   -53156.551    5110.9101   -58267.461    753.77263   0.70452984 
   61300    288.19404    71.658747    254853.67   -53136.511    5157.7464   -58294.258    753.97904   0.70486418 
   61400    287.52945   -180.16373    254749.22   -53154.605    5145.8523   -58300.457    754.87612   0.70515319 
   61500     286.9587    9.0674318    254197.45    -53174.67    5135.6378   -58310.307    755.87163   0.70668381 
   61600    288.69902    30.823359    254140.29   -53143.954    5166.7838   -58310.738    756.62023   0.70684275 
   61700     292.9533   -88.841523    253694.25   -53056.822    5242.9218   -58299.743    757.06816   0.70808552 
   61800    291.78342    209.96159     254167.9   -52981.918    5221.9846   -58203.903    760.05058   0.70676599 
   61900    286.23599   -69.851121    254396.84   -53072.126    5122.7035   -58194.829    761.79679   0.70612993 
   62000    288.37214   -22.388246    253907.47   -53106.797    5160.9338   -58267.731    762.14382    0.7074909 
   62100    283.82695    179.11234    253489.65    -53182.97    5079.5895   -58262.559    763.28635   0.70865705 
   62200    286.29559   -26.481176    253698.01   -53218.229    5123.7702       -58342    764.91131   0.70807502 
   62300    288.14896    67.675388     253172.9   -53229.773    5156.9395   -58386.712    765.76802   0.70954366 
   62400    289.85987    38.272518    253645.58   -53150.222    5187.5593   -58337.782    766.17266    0.7082214 
   62500    287.83911    10.031977    253855.83    -53132.92    5151.3943   -58284.314    767.53038   0.70763481 
   62600    289.42262   -29.821673    253574.44   -53114.913    5179.7339   -58294.647    768.38309   0.70842008 
   62700    285.63051   -3.2091377    253272.59   -53009.861    5111.8674   -58121.729    769.21363   0.70926439 
   62800    290.97656    236.78805    253399.21   -53099.228    5207.5446   -58306.773    769.91218   0.70890998 
   62900    286.70007   -69.073403    253368.32   -53105.937    5131.0091   -58236.946    770.58268   0.70899641 
   63000    292.44765    64.257782    253222.91   -53036.275    5233.8723   -58270.148    772.12212   0.70940353 
   63100    291.86455    -4.869383    253283.87   -53023.834    5223.4367   -58247.271    773.32096   0.70923279 
   63200    289.49513   -207.36595    253280.87   -53006.211    5181.0317   -58187.243    774.85616    0.7092412 
   63300    289.82858    39.296852    253021.31   -53024.023    5186.9993   -58211.023    775.23333   0.70996875 
   63400     288.3603    262.69002    253229.95   -52933.659    5160.7219   -58094.381    776.59399   0.70938381 
   63500    292.82444    41.285925    253444.27   -52934.799    5240.6156   -58175.415    778.72724   0.70878392 
   63600    288.63068   -205.43405    253745.69   -53040.863    5165.5608   -58206.423    780.05491   0.70794198 
   63700    284.99615   -54.175272    253275.78   -53119.006    5100.5144   -58219.521    780.72135   0.70925543 
   63800    293.79413   -77.683761    252776.25   -53089.531      5257.97   -58347.501    780.58756   0.71065707 
   63900    286.67497    25.793541    252653.91   -53169.363    5130.5599   -58299.923    781.53855   0.71100116 
   64000     285.0902   -5.1768506    252641.23   -53046.378    5102.1976   -58148.575    781.99086   0.71103684 
   64100    288.59114    155.55341    252395.02   -52988.385    5164.8532   -58153.238    782.69032   0.71173047 
   64200    293.21389    155.57177    252553.14   -52998.583    5247.5856   -58246.168    784.07777   0.71128487 
   64300    288.96576    -48.45132    251866.57   -53140.444    5171.5577   -58312.002    784.14529   0.71322376 
   64400     289.0564   -74.328809     251636.4   -53190.275    5173.1798   -58363.455     785.5973   0.71387615 
   64500    283.48369     7.296425     251514.2   -53224.154    5073.4462     -58297.6     786.4406     0.714223 
   64600    287.86769    221.65734     252272.1   -53181.212    5151.9057   -58333.118    788.80424   0.71207726 
   64700    288.26148  -0.66309503    252213.55   -53206.073    5158.9532   -58365.026    790.02169   0.71224255 
   64800     282.3744   -89.731712     252232.7   -53317.741    5053.5936   -58371.335    792.26562   0.71218848 
   64900    282.13062   -5.1494612    252774.87   -53355.626    5049.2307   -58404.856    793.36057   0.71066094 
   65000    287.97243    17.399084    253128.74   -53309.511    5153.7802   -58463.291    795.50659   0.70966743 
   65100    285.57737    201.80798    252844.09   -53289.114    5110.9164    -58400.03    796.13958   0.71046638 
   65200    282.81525   -268.95231    252901.27   -53302.511    5061.4833   -58363.995    797.36718   0.71030573 
[...]
   84600    291.04562    122.27927    255055.82   -53044.667    5208.7805   -58253.447    1039.1913   0.70430553 
   84700    289.15384   -49.508207    254677.89   -53107.847    5174.9237    -58282.77    1038.6803   0.70535069 
   84800    287.36941    21.728835    254615.44   -53219.423    5142.9881   -58362.412    1038.5824   0.70552369 
   84900    285.72361   -25.839989    254624.84   -53183.985    5113.5336   -58297.519    1039.4373   0.70549765 
   85000    287.28877    62.560025    254656.85   -53168.803     5141.545   -58310.348    1041.3998   0.70540897 
   85100    289.30732    87.477832    254948.17   -53209.461    5177.6704   -58387.132    1041.9007   0.70460293 
   85200    289.01405   -120.46657     255365.1   -53166.721    5172.4219   -58339.143    1044.4832   0.70345254 
   85300    291.01542    151.09922    255420.95   -53089.525    5208.2399   -58297.764    1046.2025    0.7032987 
   85400    287.84481   -104.02865    254944.07   -53132.389    5151.4962   -58283.885     1045.927   0.70461425 
   85500    291.74023   -60.926867    254913.79   -53083.463    5221.2118   -58304.675    1046.6716   0.70469794 
   85600    289.58426      34.6811    255004.95   -53106.637    5182.6269   -58289.264    1048.9026   0.70444604 
   85700    285.92482    4.5167336    255212.72   -53105.031    5117.1345   -58222.166    1051.2523   0.70387253 
   85800    285.69121     30.76742    254596.96   -53194.127    5112.9537    -58307.08    1050.5249   0.70557489 
   85900    285.54421   -96.397641    254921.96   -53136.216     5110.323   -58246.539    1053.3838   0.70467535 
   86000    293.31822   -129.11025    255021.14   -52969.751    5249.4526   -58219.204    1054.4221   0.70440132 
   86100    294.91161     47.19749    254760.81   -52947.614    5277.9692   -58225.583    1054.9703   0.70512111 
   86200    291.75958      42.8865    254812.83   -53032.964     5221.558   -58254.523    1056.3269   0.70497715 
   86300    286.78087   -85.356341    254657.43   -53136.218    5132.4551   -58268.673    1057.3879   0.70540737 
   86400     286.4443    176.50637    254858.24   -53175.567    5126.4316   -58301.999    1059.6181   0.70485155 
   86500    289.69215   -128.69981    254669.89   -53163.038    5184.5576   -58347.596    1059.9304   0.70537284 
   86600    290.60035   -64.618678    254521.44   -53166.117    5200.8116   -58366.929    1061.1813   0.70578427 
   86700    288.92519   -109.48301    254144.53   -53190.131    5170.8316   -58360.962    1062.8259   0.70683098 
   86800    290.08325   -85.260448    253830.18   -53180.735    5191.5572   -58372.292      1064.56   0.70770632 
   86900    289.04182   -7.5790022    253817.34   -53162.209    5172.9188   -58335.128    1066.4588   0.70774213 
   87000    292.36222   -49.522602    253811.61   -53154.091    5232.3433   -58386.435    1068.5629   0.70775811 
   87100    288.24225    -26.62753    253853.45   -53202.285    5158.6091   -58360.894    1070.6906   0.70764145 
   87200    286.84669   -147.01818    253558.54   -53260.184    5133.6331   -58393.817    1072.5586    0.7084645 
   87300    280.17129    -153.2283    253719.63   -53325.926    5014.1649   -58340.091    1075.4851   0.70801469 
   87400    283.81285   -31.032978    253328.19   -53194.484    5079.3371   -58273.821    1076.0084    0.7091087 
   87500    288.90197   -35.898694    253361.84   -53190.342    5170.4161   -58360.759    1077.7426   0.70901452 
   87600    289.15663   -115.46437    252557.96    -53184.82    5174.9736   -58359.794    1076.8874   0.71127129 
   87700    283.83764    19.769902     252571.1   -53283.259    5079.7808    -58363.04    1078.8104   0.71123429 
   87800    288.69803   -90.279664     252740.7   -53254.832    5166.7662   -58421.598    1081.0074   0.71075701 
   87900    284.17469   -61.578372    252921.67   -53361.742    5085.8129   -58447.555    1082.4195   0.71024846 
   88000    284.77093   -111.43626    253214.61   -53246.898    5096.4837   -58343.382    1084.4326   0.70942677 
   88100    286.72772    19.680918    253273.76   -53352.604     5131.504   -58484.108    1086.4093    0.7092611 
   88200    289.16912   -98.334024    253544.26    -53295.08    5175.1971   -58470.277    1087.3029   0.70850439 
   88300    283.01318   -24.697028    253476.76   -53204.832    5065.0256   -58269.857    1088.3674   0.70869309 
   88400    286.88608    32.490506    253822.12   -53036.891    5134.3381   -58171.229    1090.4999   0.70772881 
   88500    293.89802   -101.65994    253777.71   -53057.118    5259.8292   -58316.947     1091.788   0.70785265 
   88600     289.2467   -93.569203    253465.47   -53099.635    5176.5856   -58276.221    1092.1435   0.70872465 
   88700    293.23418    101.74933    253603.89   -53071.918    5247.9486   -58319.866    1094.3057   0.70833781 
   88800     291.9987    80.956494    254273.03   -52968.844    5225.8375   -58194.681    1097.7601   0.70647377 
   88900    288.32892   -235.92513    253779.81   -53081.339    5160.1603   -58241.499    1097.6084   0.70784678 
   89000    286.77676    18.513361    253403.55   -53066.561    5132.3815   -58198.943    1098.2162   0.70889783 
   89100    283.62141   -93.081908    253330.04   -53169.857     5075.911   -58245.768     1099.002   0.70910351 
   89200    283.99567    109.67036    253150.57   -53194.292    5082.6091   -58276.901    1099.5035   0.70960625 
   89300    287.89744  -0.52312632    253127.78   -53116.163    5152.4382   -58268.601    1100.2579   0.70967015 
   89400    292.53494    78.032634    252736.68   -53027.831    5235.4345   -58263.266    1100.1749   0.71076833 
   89500    292.70908   -30.420644     252610.2   -53035.583     5238.551   -58274.134     1101.011   0.71112418 
   89600    294.15565   -148.83688    252747.28   -53043.037      5264.44   -58307.477    1102.3177    0.7107385 
   89700    289.86639    13.566232    252848.26   -53017.449     5187.676   -58205.125    1104.5865   0.71045466 
   89800    288.80305    24.652825    253130.97   -52927.939    5168.6458   -58096.585    1105.3101    0.7096612 
   89900    289.23196    73.260672    253478.37   -53113.389    5176.3219   -58289.711    1106.5652   0.70868859 
   90000     288.1483    41.954535    253323.79   -53060.744    5156.9277   -58217.672    1107.5516   0.70912102 
   90100    293.51639   -57.590917    252643.19   -53106.997    5252.9993   -58359.996    1106.4552   0.71103135 
   90200    289.38944   -13.329123    252565.75   -53157.371    5179.1401   -58336.511    1107.5245   0.71124934 
   90300    292.78758   -42.314766    252989.88   -53171.875     5239.956   -58411.831    1109.6125   0.71005697 
   90400    288.82236    82.681443    252851.01   -53151.055    5168.9912   -58320.046    1110.8322   0.71044695 
   90500    291.03292    33.287165     252961.7   -53085.218    5208.5532   -58293.771    1112.1342   0.71013605 
   90600    294.98487    -141.5569     253357.7   -53054.412    5279.2804   -58333.693    1113.6441   0.70902611 
   90700    292.16085   -119.52662     252642.8   -53116.638    5228.7394   -58345.378    1112.0176   0.71103243 
   90800    291.55348    184.75448    252814.17   -53074.873    5217.8695   -58292.743     1113.438   0.71055046 
   90900    286.58091   -29.026757    253118.59   -53161.475    5128.8765   -58290.352    1115.4879   0.70969589 
   91000    285.63181   -84.707166    252941.16    -53089.24    5111.8906   -58201.131    1116.3591   0.71019372 
   91100     289.6892   -137.55516    252802.67    -53054.82     5184.505   -58239.325    1116.3155   0.71058278 
   91200     287.0306   -64.605752    252419.02   -53095.048    5136.9244   -58231.972      1116.67   0.71166281 
   91300    290.18339   -67.804852    252043.25   -53123.752    5193.3494   -58317.101    1116.9174   0.71272382 
   91400    285.87456    62.644861    251952.64   -53107.766    5116.2352   -58224.001    1117.0467   0.71298011 
   91500    289.01092   -65.281308    252117.03   -53146.072    5172.3659   -58318.438    1118.3936   0.71251523 
   91600    287.46633   -56.753839    252405.99   -53206.031    5144.7228   -58350.754    1119.4214   0.71169953 
   91700     284.4903    113.65415    252193.43   -53300.812    5091.4613   -58392.273    1120.7392    0.7122994 
   91800    286.09713   -60.697521    251870.58   -53231.191    5120.2184   -58351.409    1120.8609   0.71321242 
   91900    290.81909    10.252367    251785.01   -53238.136    5204.7263   -58442.862    1121.4098   0.71345479 
   92000    283.43563    124.08312    251981.41   -53269.758     5072.586   -58342.344    1122.7962   0.71289872 
   92100    287.82917   -147.69632    252141.47     -53171.8    5151.2164   -58323.016    1123.6063   0.71244617 
   92200    285.76714     63.16334    251911.26   -53169.782    5114.3126   -58284.095    1123.9095   0.71309723 
   92300    286.62587    92.565048    251731.04   -53167.036    5129.6812   -58296.717    1124.7545   0.71360775 
   92400    289.41684   -120.23481    251298.11   -53101.166    5179.6305   -58280.797    1125.7859   0.71483716 
   92500    288.64214   -135.61352    251124.68   -53132.655    5165.7659   -58298.421    1126.3885   0.71533082 
   92600     288.0883    40.107224    250567.95       -53118     5155.854   -58273.854    1125.8959    0.7169202 
   92700    294.88575    151.67546    251055.53   -53037.179    5277.5065   -58314.685    1127.7655   0.71552786 
   92800    289.62411   -132.42662    251489.26   -53030.686    5183.3399   -58214.026    1129.9207   0.71429383 
   92900    290.94526     8.595196    251240.32   -53124.712    5206.9843   -58331.696    1130.4281   0.71500157 
   93000    291.35492    14.913293    251320.72   -52977.426     5214.316   -58191.742    1131.8132   0.71477284 
   93100    291.90375   -107.96112    251564.53   -53085.891    5224.1382   -58310.029    1134.6227   0.71408009 
   93200    288.58883    145.78387    251815.19   -53049.041    5164.8118   -58213.853    1136.5928    0.7133693 
   93300    290.34898    31.651042    251966.61   -52977.202    5196.3129   -58173.515    1138.9837    0.7129406 
   93400    286.00465    105.19271     252071.2    -53068.74    5118.5634   -58187.303    1140.6487   0.71264477 
   93500    291.01767   -86.845048    252253.29   -53009.326    5208.2802   -58217.606    1142.6885   0.71213036 
   93600     292.6903   -124.08156    251865.56   -53000.734     5238.215   -58238.949    1143.3913   0.71322663 
   93700    291.66887   -19.077768    251985.53   -53024.697    5219.9346   -58244.632    1145.5468   0.71288707 
   93800    289.83064    19.327817    252722.35   -52983.338    5187.0362   -58170.374    1148.8625   0.71080861 
   93900    287.88552  -0.32031516    252615.82   -53012.928    5152.2249   -58165.153    1150.2904   0.71110839 
   94000    291.11527    151.84114    252888.18   -53120.856     5210.027   -58330.883    1153.3756   0.71034251 
   94100    289.77184   -57.987595    253221.43   -53069.247    5185.9838   -58255.231    1155.9097   0.70940766 
   94200    291.53475   -63.151122    252915.86   -53086.456    5217.5344    -58303.99    1155.9121   0.71026476 
   94300    288.66798    90.908798    253268.62   -53094.005    5166.2284   -58260.233    1158.4962   0.70927548 
   94400    290.54156   -114.75385     253195.5   -53141.621    5199.7593    -58341.38    1159.3426   0.70948032 
   94500    288.14606    76.462537    252799.86   -53151.117    5156.8877   -58308.005    1159.1916   0.71059067 
   94600    289.82435    -87.83317    252635.43   -53154.129    5186.9236   -58341.052    1159.4119   0.71105316 
   94700    286.09615    -89.59487    252626.92   -53174.175     5120.201   -58294.376    1161.3042   0.71107712 
   94800    290.39948   -16.285612    252200.61   -53222.275    5197.2166   -58419.492    1161.9462    0.7122791 
   94900    289.71476    23.947038    252283.74   -53116.006    5184.9623   -58300.968    1163.0963   0.71204441 
   95000    286.22503   -55.299529    252509.72     -53163.9    5122.5074   -58286.407    1164.3704   0.71140718 
   95100    285.94388   -86.794273    252438.82    -53185.03    5117.4758   -58302.506    1165.3848   0.71160698 
   95200    286.94727   -61.246757    252625.63   -53088.897    5135.4331   -58224.331    1168.0401   0.71108075 
   95300     289.3386     -66.8624    253008.93   -53036.153    5178.2302   -58214.383    1170.7826   0.71000348 
   95400    289.76965   -234.98548    253047.77   -53026.874    5185.9447   -58212.819    1172.0342   0.70989453 
   95500    289.50585    -166.0446    253036.96   -53174.807    5181.2235    -58356.03    1173.7969   0.70992484 
   95600    283.76006   -33.705117    252816.35   -53180.402    5078.3924   -58258.795    1174.5557   0.71054433 
   95700    290.36724    -83.24627    252814.93   -52983.929    5196.6396   -58180.568    1175.5618   0.71054833 
   95800    291.06291   -132.47933    252715.49   -53010.431      5209.09   -58219.521    1175.5256   0.71082792 
   95900    291.91005    42.788124    253117.91   -52891.678    5224.2509   -58115.929    1177.9828   0.70969779 
   96000    287.43092   -48.815765    252879.97   -52900.398    5144.0889   -58044.487    1178.5478   0.71036558 
   96100     292.8865   -144.05912    252368.75   -52885.775    5241.7263   -58127.501     1178.409   0.71180456 
   96200    286.88368    8.2983248    252154.86     -52945.3    5134.2951   -58079.595    1179.7701   0.71240834 
   96300    290.23916     120.2722    251689.05   -53062.774    5194.3473   -58257.121    1180.2843   0.71372683 
   96400    287.24098    91.405431    252259.04   -53068.964    5140.6897   -58209.654    1182.1056   0.71211414 
   96500     286.3299    44.505389     251923.4   -53157.201    5124.3842   -58281.586    1182.7956   0.71306289 
   96600    286.39058    145.28482    252064.51   -53197.076    5125.4702   -58322.546    1185.3769    0.7126637 
   96700    286.79993    80.103994    251983.96   -53302.333    5132.7963    -58435.13    1186.7169   0.71289151 
   96800    282.85002    12.735225    252221.88   -53318.312    5062.1055   -58380.418    1188.4546   0.71221905 
   96900     284.4046   0.33863027    251971.34   -53279.644    5089.9275   -58369.572    1189.8796   0.71292721 
   97000    285.53189   -109.83008    251968.35   -53312.463    5110.1025   -58422.566    1192.3491   0.71293568 
   97100    285.25235   -51.640658     252343.3   -53305.207    5105.0995   -58410.307    1194.7651   0.71187633 
   97200    289.41428     37.27208    252206.61   -53164.468    5179.5847   -58344.053    1196.1223   0.71226217 
   97300    282.60868   -49.595552    252176.37   -53205.748    5057.7864   -58263.534    1197.6509   0.71234756 
   97400    286.12774   -48.943196    252261.43   -53308.319    5120.7662   -58429.085    1198.5396   0.71210736 
   97500    289.15875    51.234899    252231.71   -53247.938    5175.0116    -58422.95    1199.2532   0.71219129 
   97600    285.43111    45.941813    252398.87   -53220.018    5108.2989   -58328.317    1201.7804   0.71171961 
   97700    285.85647    81.763363     252246.7     -53134.6    5115.9114   -58250.512    1202.2967   0.71214896 
   97800    292.13699   -11.011117     252112.5   -53036.082    5228.3124   -58264.394    1202.5252   0.71252805 
   97900     292.4136   -28.685867    252433.77   -53084.594     5233.263   -58317.857    1204.5146    0.7116212 
   98000    285.37733   -28.331741    252541.75   -53142.941    5107.3363   -58250.277    1205.1777   0.71131695 
   98100    286.35459     49.00518    252917.01   -53261.381    5124.8262   -58386.207    1207.2419   0.71026153 
   98200    283.06799   -188.78153    253341.73   -53235.714    5066.0065    -58301.72    1209.1441   0.70907081 
   98300    290.19661   -220.99738    253390.19   -53145.015    5193.5859   -58338.601    1209.9838    0.7089352 
   98400      287.686    -46.23549    252884.85    -53180.54    5148.6541   -58329.194    1209.3211   0.71035186 
   98500    291.09261   -81.976765     252759.4    -53031.18    5209.6214   -58240.802    1210.2163   0.71070442 
   98600    291.22262   -85.492735    252416.52   -53039.283    5211.9482   -58251.231    1209.4805   0.71166984 
   98700    287.05477   -120.83839    252279.82   -53107.761     5137.357   -58245.118     1210.403   0.71205547 
   98800    289.62295    -50.85013    252211.07   -53108.137    5183.3192   -58291.457    1211.8364   0.71224956 
   98900    287.45433   -82.634325    252078.15   -53156.871     5144.508   -58301.379    1212.0364   0.71262513 
   99000    287.14826   -57.346292    252169.35   -53111.686    5139.0302   -58250.716    1212.6125    0.7123674 
   99100    291.80098    91.971117    252303.62   -53113.343    5222.2989   -58335.642    1214.1188    0.7119883 
   99200    287.32539    72.216197    252171.81   -53178.716    5142.2003   -58320.917    1213.8283   0.71236045 
   99300    284.74134    39.677987    252240.63   -53235.592    5095.9542   -58331.546     1215.239   0.71216609 
   99400    292.63364   -27.203955    252342.96   -53101.404    5237.2008   -58338.605    1216.7563   0.71187729 
   99500    288.74722    34.060284    252372.45   -52956.562    5167.6465   -58124.209    1217.6697   0.71179412 
   99600    288.19252    38.503018    252474.36   -53062.063    5157.7192   -58219.782    1219.5273   0.71150681 
   99700    287.03127   -161.45672    252962.89   -53029.241    5136.9365   -58166.178    1222.9843   0.71013272 
   99800    289.31789     75.54128    253117.87    -53056.34    5177.8596     -58234.2    1225.3659   0.70969791 
   99900    289.60641    174.54485    253487.57   -53091.415    5183.0232   -58274.438    1227.8333   0.70866285 
  100000    290.83918   -167.92657     253348.3   -53074.699    5205.0859   -58279.785    1228.4819   0.70905242 
  100100    287.01253   -42.953829    253101.93   -53068.689    5136.6011    -58205.29    1228.9146   0.70974261 
  100200    291.73108   -27.926781    253185.32    -52977.71     5221.048   -58198.758    1229.7204   0.70950886 
  100300    288.62877   -10.014802    253005.15   -53020.498    5165.5267   -58186.025    1231.0368   0.71001409 
  100400    291.41884   -157.30533    252962.69   -52989.113      5215.46   -58204.573    1233.1156   0.71013328 
  100500    290.66069   -36.687448    252876.15   -53039.086    5201.8915   -58240.977    1233.4733    0.7103763 
  100600     283.8774    103.88569    252958.32   -53139.291    5080.4923   -58219.783    1234.3571   0.71014554 
  100690    289.20233    91.754556     252496.5   -53168.978    5175.7915   -58344.769    1234.1619   0.71144441 
Loop time of 107.882 on 12 procs for 50000 steps with 6005 atoms

Performance: 200.219 ns/day, 0.120 hours/ns, 463.471 timesteps/s
99.1% CPU use with 12 MPI tasks x no OpenMP threads

MPI task timing breakdown:
Section |  min time  |  avg time  |  max time  |%varavg| %total
---------------------------------------------------------------
Pair    | 49.972     | 66.287     | 97.77      | 260.7 | 61.44
Neigh   | 2.1448     | 2.8643     | 4.3022     |  56.2 |  2.66
Comm    | 3.5969     | 36.465     | 53.377     | 366.5 | 33.80
Output  | 0.13642    | 0.14043    | 0.17619    |   2.9 |  0.13
Modify  | 1.4539     | 1.6085     | 1.7268     |   8.4 |  1.49
Other   |            | 0.5165     |            |       |  0.48

Nlocal:    500.417 ave 715 max 387 min
Histogram: 8 0 0 0 0 0 0 0 0 4
Nghost:    960.583 ave 1414 max 737 min
Histogram: 8 0 0 0 0 0 0 0 0 4
Neighs:    0 ave 0 max 0 min
Histogram: 12 0 0 0 0 0 0 0 0 0
FullNghs:  14090.7 ave 21117 max 10519 min
Histogram: 8 0 0 0 0 0 0 0 0 4

Total # of neighbors = 169088
Ave neighs/atom = 28.1579
Neighbor list builds = 3578
Dangerous builds = 0

undump              1
unfix               2
unfix               3
unfix               4


################################################
#######         Run Simulation         #########
################################################

reset_timestep      0
log                 log.run_${NAME}_hi
log                 log.run_slab_289K_longhalfindent1o_hi
