
# Create simulation box of size 50 x 50 x 50 Angstrom
#
lattice	            sc 1
Lattice spacing in x,y,z = 1.0000000 1.0000000 1.0000000
region 	            all block 0 50 0 50 0 50 units box
create_box          1 all
Created orthogonal box = (0.0000000 0.0000000 0.0000000) to (50.000000 50.000000 50.000000)
  1 by 2 by 3 MPI processor grid

# fill box with 4175 randomly distributed atoms
#
create_atoms        1 random 4175 63782 all
Created 4175 atoms
  create_atoms CPU = 0.001 seconds
mass                1 18.015

# Define potential
#
pair_style          sw
pair_coeff          * * ML_mW.sw mW
Reading sw potential file ML_mW.sw with DATE: 2019-02-27

# Run minimization
#
minimize            1.0e-8 1.0e-8 10000 1000
WARNING: Using 'neigh_modify every 1 delay 0 check yes' setting during minimization (../min.cpp:187)
Neighbor list info ...
  update every 1 steps, delay 0 steps, check yes
  max neighbors/atom: 2000, page size: 100000
  master list distance cutoff = 6.0032907
  ghost atom cutoff = 6.0032907
  binsize = 3.0016454, bins = 17 17 17
  1 neighbor lists, perpetual/occasional/extra = 1 0 0
  (1) pair sw, perpetual
      attributes: full, newton on
      pair build: full/bin/atomonly
      stencil: full/bin/3d
      bin: standard
Per MPI rank memory allocation (min/avg/max) = 4.255 | 4.258 | 4.261 Mbytes
Step Temp E_pair E_mol TotEng Press 
       0            0    7792709.3            0    7792709.3    5898794.3 
     630            0   -45180.336            0   -45180.336   -154.07449 
Loop time of 1.16946 on 6 procs for 630 steps with 4175 atoms

98.2% CPU use with 6 MPI tasks x no OpenMP threads

Minimization stats:
  Stopping criterion = max force evaluations
  Energy initial, next-to-last, final = 
      7792709.32924461  -45180.0188663597   -45180.336116598
  Force two-norm initial, final = 2.0191930e+08 4.9721331
  Force max component initial, final = 1.0948746e+08 0.73126211
  Final line search alpha, max atom move = 0.053306038 0.038980685
  Iterations, force evaluations = 630 1000

MPI task timing breakdown:
Section |  min time  |  avg time  |  max time  |%varavg| %total
---------------------------------------------------------------
Pair    | 0.89084    | 1.001      | 1.0656     |   5.8 | 85.60
Neigh   | 0.024097   | 0.025059   | 0.026237   |   0.5 |  2.14
Comm    | 0.058342   | 0.12271    | 0.23392    |  16.6 | 10.49
Output  | 0          | 0          | 0          |   0.0 |  0.00
Modify  | 0          | 0          | 0          |   0.0 |  0.00
Other   |            | 0.02064    |            |       |  1.77

Nlocal:        695.833 ave         704 max         685 min
Histogram: 1 1 0 0 1 0 0 1 0 2
Nghost:        1494.17 ave        1515 max        1468 min
Histogram: 1 1 0 0 0 0 1 1 1 1
Neighs:        0.00000 ave           0 max           0 min
Histogram: 6 0 0 0 0 0 0 0 0 0
FullNghs:      19997.0 ave       20462 max       19320 min
Histogram: 1 1 0 0 0 0 0 2 0 2

Total # of neighbors = 119982
Ave neighs/atom = 28.738204
Neighbor list builds = 26
Dangerous builds = 0

# Add velocity/set timestep
#
velocity            all create ${TEMP} 120598 rot yes dist gaussian
velocity            all create 225 120598 rot yes dist gaussian
timestep            5.0

# Define output
#
compute	            1 all msd
thermo	            100
thermo_style        custom step temp press vol etotal ke pe c_1[4] density

# Neighbor lists
#
neigh_modify        delay 0 every 1 check yes

# Set fixes
#
fix                 1 all momentum 10 linear 1 1 1 rescale
fix                 2 all nve
fix                 3 all temp/csvr ${TEMP} ${TEMP} 500.0 928347
fix                 3 all temp/csvr 225 ${TEMP} 500.0 928347
fix                 3 all temp/csvr 225 225 500.0 928347
fix                 4 all press/berendsen iso ${PRES} ${PRES} 1000.0 modulus 20000
fix                 4 all press/berendsen iso 450 ${PRES} 1000.0 modulus 20000
fix                 4 all press/berendsen iso 450 450 1000.0 modulus 20000

# Run 0.5 ns equilibration
#
dump                1 all custom 1000 eq.${NAME}.dump id type x y z vx vy vz
dump                1 all custom 1000 eq.liquid_density_MLmW.dump id type x y z vx vy vz
run                 100000
Per MPI rank memory allocation (min/avg/max) = 3.506 | 3.508 | 3.511 Mbytes
Step Temp Press Volume TotEng KinEng PotEng c_1[4] Density 
     630          225    869.67124       125000   -42380.908    2799.4278   -45180.336 2.7295415e-33   0.99914793 
     700    143.21446    304.10979    125088.39   -41521.773    1781.8602   -43303.633   0.26690258   0.99844192 
     800    178.16455    144.15794    124809.85   -40744.781    2216.7058   -42961.487   0.64126445    1.0006701 
     900    194.54693    495.17576    124406.07   -40318.447    2420.5337   -42738.981    1.1497437     1.003918 
    1000    208.53395    484.53548    124512.87   -40038.228    2594.5588   -42632.787    1.6066792    1.0030569 
    1100    218.65746    436.77075    124410.72   -39857.092    2720.5146   -42577.607    2.0701676    1.0038805 
    1200    216.53898    645.17748    124448.68    -39893.31    2694.1566   -42587.467     2.447705    1.0035742 
    1300    217.61766    522.49426    124571.76   -39867.715    2707.5774   -42575.292     2.828294    1.0025827 
    1400    217.10555    283.03225    124502.18   -39871.184    2701.2058    -42572.39     3.273313     1.003143 
    1500    219.57994    399.21001    124167.71    -39812.13    2731.9919   -42544.121    3.6260256    1.0058452 
    1600    225.23631    236.94776    124007.43   -39684.244    2802.3679   -42486.612    4.0631645    1.0071452 
    1700    220.56929     312.4482    123829.87   -39698.382    2744.3013   -42442.683    4.4250283    1.0085894 
    1800    223.70128    501.80358    123960.91   -39780.319    2783.2693   -42563.588    4.8524696    1.0075232 
    1900    222.24265     506.9643    123954.73   -39752.709     2765.121    -42517.83    5.3782051    1.0075734 
    2000     223.4077    347.66522     124058.3   -39690.999    2779.6165   -42470.616    5.8279189    1.0067322 
    2100    225.64439    383.60324    124262.84   -39643.324    2807.4452   -42450.769    6.2535736    1.0050752 
    2200    220.72726    435.94111     124195.9   -39659.929    2746.2668   -42406.195    6.8347695    1.0056169 
    2300    227.65677    484.10994    124368.54   -39636.303     2832.483   -42468.786    7.2418194    1.0042209 
    2400    229.18251    436.97688    124457.87   -39664.861    2851.4661   -42516.327    7.7407776    1.0035002 
    2500    228.68009    461.38154    124276.68   -39627.878    2845.2151   -42473.093    8.0573485    1.0049632 
    2600    227.24209    557.20509    124487.15   -39574.099    2827.3236   -42401.422    8.4568942    1.0032641 
    2700    228.38333    499.14764    124584.89   -39606.271    2841.5228   -42447.794    8.9331255    1.0024771 
    2800    230.57499     256.1153    124525.08   -39601.961    2868.7912   -42470.753     9.487089    1.0029585 
    2900    228.43421    539.55918    124363.85   -39692.986    2842.1558   -42535.142    9.7919156    1.0042588 
    3000    224.53447    504.71819     124365.2   -39721.033    2793.6357   -42514.669    10.060525    1.0042479 
    3100    224.54644    604.04221    124397.53   -39688.678    2793.7846   -42482.463    10.502622    1.0039869 
    3200    225.65336    464.94591    124554.61   -39730.487    2807.5567   -42538.043    10.903157    1.0027208 
    3300    230.58573    436.62536    124522.04   -39723.387    2868.9248   -42592.312    11.187319     1.002983 
    3400    231.01374    508.52899    124604.19   -39764.092    2874.2501   -42638.342    11.619973    1.0023217 
    3500    219.30596    405.44373     124582.2     -39804.7    2728.5831   -42533.283    11.981674    1.0024987 
    3600      226.092    378.44261    124644.01   -39851.774    2813.0143   -42664.789    12.376471    1.0020016 
    3700    225.10873     559.1092    124882.56   -39916.194    2800.7806   -42716.975    12.703327    1.0000875 
    3800    225.29387    430.45914    124775.02   -39852.568     2803.084   -42655.652    13.096476    1.0009495 
    3900    221.42938    625.81682    124789.19    -39881.37    2755.0025   -42636.373    13.451396    1.0008358 
    4000    219.70386    333.47509    124773.11    -39881.95    2733.5337   -42615.484    13.749297    1.0009648 
    4100    221.39321     412.8473    124628.66   -39859.961    2754.5524   -42614.513    14.208914     1.002125 
    4200    220.03309    578.60493    124465.54   -39862.719      2737.63   -42600.349     14.57775    1.0034383 
    4300    225.38377    667.05517    124586.92   -39853.658    2804.2025   -42657.861    14.894557    1.0024607 
    4400     221.7088    576.71509     124732.3   -39828.702     2758.479   -42587.181    15.199502    1.0012923 
    4500    221.43061    582.23387    124700.36   -39813.784    2755.0177   -42568.802    15.468676    1.0015487 
    4600    223.30284    520.45648    124472.23   -39853.981    2778.3119   -42632.293    15.787228    1.0033844 
    4700    224.15687    628.92754    124452.74   -39765.002    2788.9377    -42553.94    16.043859    1.0035415 
    4800    219.70175    531.63487    124422.62   -39824.945    2733.5074   -42558.452    16.409553    1.0037845 
    4900    222.73672    494.87839    124612.73    -39683.15    2771.2682   -42454.418    16.936636    1.0022531 
    5000    228.84055    637.05585    124707.72   -39635.082    2847.2115   -42482.294    17.424917    1.0014897 
    5100    227.03015    438.05458    124792.34   -39709.509    2824.6867   -42534.196     17.66328    1.0008106 
    5200    224.82095    197.51305    124379.62   -39758.472    2797.2001   -42555.672    18.102502    1.0041315 
    5300    223.12534    356.68258    124280.05   -39735.065    2776.1034   -42511.168    18.543025     1.004936 
    5400    222.93313    379.63187    124231.29   -39768.602    2773.7119   -42542.314    18.873575    1.0053304 
    5500    225.69636    426.18816    124417.43   -39770.829    2808.0918   -42578.921    19.277722    1.0038263 
    5600    228.86165    364.28023    124406.63   -39770.885     2847.474   -42618.359    19.349798    1.0039134 
    5700    223.52557    428.34986    124436.44   -39790.974    2781.0831   -42572.057    19.793864     1.003673 
    5800    223.84728     451.4307    124484.93   -39832.984    2785.0857    -42618.07    20.166714     1.003282 
    5900    225.17332    355.98814    124550.19   -39869.222    2801.5841   -42670.806    20.443386    1.0027563 
    6000    225.33644    282.60872    124521.04   -39871.819    2803.6137   -42675.432     20.75823    1.0029911 
    6100    228.94515    312.68108    124655.33   -39823.692    2848.5129   -42672.205    20.930721    1.0019105 
    6200    227.33998    512.22091    124984.36   -39911.786    2828.5416   -42740.328    21.187184   0.99927293 
    6300    223.07945    563.40052    124978.78   -39893.375    2775.5324   -42668.907    21.611602   0.99931757 
    6400    221.39396     757.1519    125227.51   -39875.742    2754.5618   -42630.304    21.815784   0.99733269 
    6500     227.0174    308.83327    125227.09   -39817.931    2824.5281   -42642.459    22.118141   0.99733603 
    6600     225.1145    192.58033    125016.46   -39879.016    2800.8523   -42679.869      22.4004   0.99901636 
    6700    220.84777    473.23747    125010.06   -39938.754    2747.7661    -42686.52    22.967402   0.99906752 
    6800    225.09413    431.27183    125017.21   -39871.969    2800.5989   -42672.568    23.155823   0.99901038 
    6900    226.64571    466.61689     125083.2   -39807.648    2819.9035   -42627.552    23.340673   0.99848331 
    7000    228.15903    409.15519    124934.28   -39807.166    2838.7321   -42645.898    23.612669   0.99967352 
    7100    229.24536    433.32155    124980.97   -39815.991    2852.2482   -42668.239    23.901379   0.99930003 
    7200    224.44805     514.5232    124845.22   -39869.006    2792.5604   -42661.566    24.316735    1.0003866 
    7300    224.61954    284.08445    124781.67   -39928.592    2794.6941   -42723.286    24.762919    1.0008961 
    7400    223.27818    307.05934    124925.45   -39963.212     2778.005   -42741.217    25.089735   0.99974414 
    7500    221.53664    242.10992    124817.68   -39928.216    2756.3369   -42684.553    25.254066    1.0006073 
    7600    218.55985    345.53698    124515.39    -39992.99       2719.3    -42712.29    25.481118    1.0030366 
    7700     221.8891    425.34199    124634.18   -39881.922    2760.7222   -42642.644    25.960139    1.0020805 
    7800    223.64318    428.08384    124875.84   -39872.304    2782.5463    -42654.85    26.277198    1.0001413 
    7900    222.22886    390.83559    124907.21   -39941.375    2764.9495   -42706.325    26.676577   0.99989018 
    8000    224.68778    564.57675    124999.12   -39921.552    2795.5432   -42717.095    27.063742     0.999155 
    8100    224.70612    584.16156    125306.64   -40009.978    2795.7713   -42805.749    27.265447   0.99670288 
    8200    216.26468    290.09275     125147.1    -40033.86    2690.7438   -42724.604    27.620681    0.9979735 
    8300    221.94518    426.98514    124987.28   -40037.278      2761.42   -42798.698    27.858407   0.99924963 
    8400    223.84486    455.15719    125044.63     -39991.2    2785.0557   -42776.256    28.027513   0.99879135 
    8500    223.03584    520.25631    125044.91   -39905.636    2774.9899   -42680.626    28.488917   0.99878908 
    8600    224.70743    407.93986    125006.15   -39934.162    2795.7876    -42729.95    28.861355   0.99909877 
    8700    224.22973    534.30548    124958.26   -39915.364    2789.8441   -42705.208    29.068719   0.99948171 
    8800    223.48974    397.99329    124948.91   -39952.785    2780.6373   -42733.422    29.248423   0.99955648 
    8900    216.33474    360.65524     124945.8   -40034.129    2691.6155   -42725.744    29.616476   0.99958132 
    9000    223.59461    580.80046    124944.17   -39961.323     2781.942   -42743.265    29.689039   0.99959437 
    9100    220.38118    384.81602    125002.97   -40006.627    2741.9608   -42748.587    29.977683   0.99912419 
    9200    228.17322    473.65905    124959.62   -39896.113    2838.9086   -42735.022    30.212029   0.99947077 
    9300    220.46485    489.36838    125042.88   -39952.202    2743.0019   -42695.203    30.749642   0.99880529 
    9400    226.53478    458.87642    125052.21   -39903.117    2818.5233    -42721.64    31.146637    0.9987308 
    9500    222.49619    640.66037    125104.78   -39916.107    2768.2756   -42684.383    31.333561   0.99831108 
    9600    228.50139    465.95704    125153.74   -39895.284    2842.9917   -42738.275    31.630503   0.99792054 
    9700    227.52868    435.53353     125206.1   -39831.104    2830.8894   -42661.994     32.12503   0.99750326 
    9800    223.40351    500.01892    124971.83   -39917.316    2779.5644    -42696.88    32.592628   0.99937318 
    9900    218.64149    336.33499    125079.91    -39987.82    2720.3158   -42708.135    32.865585   0.99850959 
   10000    220.50487    381.80314    124978.77   -39987.055    2743.4998   -42730.554    33.245567   0.99931762 
   10100    221.84855    521.41599     125188.6   -39955.769    2760.2178   -42715.987    33.709063    0.9976427 
   10200    220.01263       481.91    125306.08   -39990.608    2737.3754   -42727.984      34.0007   0.99670733 
   10300    221.33253    388.05154    125127.11   -39967.452    2753.7974    -42721.25    34.138384   0.99813292 
   10400    221.09718    461.37251    125293.54   -39900.427    2750.8692   -42651.297    34.222676   0.99680713 
   10500    225.69357    563.54569    125458.74   -39876.905    2808.0571   -42684.963    34.765982   0.99549458 
   10600    229.11693    303.67151    125577.29   -39834.253    2850.6502   -42684.903    35.038066   0.99455477 
   10700    227.61191    544.17402    125644.82   -39848.689    2831.9249   -42680.614    35.514548   0.99402023 
   10800    226.20937    463.61547    125849.15   -39823.637    2814.4746   -42638.111    35.925361   0.99240628 
   10900    225.72901    439.03507    125687.66   -39852.816     2808.498   -42661.314     36.16711    0.9936814 
   11000    226.18574    257.34441    125521.17   -39863.255    2814.1806   -42677.435    36.455533   0.99499946 
   11100     222.3266    342.88708    125704.54   -39911.296    2766.1655   -42677.462     36.53468   0.99354794 
   11200     222.5322    653.19246    125669.87   -39897.387    2768.7237   -42666.111    36.681417   0.99382209 
   11300    221.02257    506.86308    125795.63   -39877.022     2749.941   -42626.963     36.80461   0.99282855 
   11400    225.29512    358.89923    125596.83   -39873.261    2803.0997   -42676.361    37.242247   0.99440006 
   11500    224.30277    365.70118    125555.87   -39905.414    2790.7529   -42696.167    37.733016   0.99472443 
   11600    218.28796    318.75721    125528.33   -39899.011    2715.9172   -42614.929    38.115532   0.99494269 
   11700    227.59545    578.99176    125767.63   -39786.507    2831.7201   -42618.227    38.462307   0.99304957 
   11800    225.78331    352.84714    125835.82   -39868.048    2809.1736   -42677.222     38.68966   0.99251141 
   11900    224.93636     398.7377    125735.71   -39878.055     2798.636   -42676.691    39.082799   0.99330171 
   12000    223.87511    291.04728     125636.8   -39885.398     2785.432    -42670.83    39.548908   0.99408371 
   12100    227.64968    501.35429    125717.65   -39838.612    2832.3948   -42671.007    39.907486   0.99344436 
   12200    229.59346    150.51421    125661.04    -39862.83    2856.5792   -42719.409    39.934118   0.99389188 
   12300    227.64142    563.25666    125584.06   -39897.344     2832.292   -42729.636     40.11363   0.99450114 
   12400    226.46729    383.86288    125858.28    -39864.51    2817.6836   -42682.194    40.361085   0.99233435 
   12500    221.37297     291.3813    125964.75   -39946.351    2754.3006   -42700.651    40.684736    0.9914956 
   12600    229.58555    180.83181    126045.99   -39868.051    2856.4807   -42724.532    41.200926    0.9908565 
   12700    229.11527    383.77293    126020.22   -39848.546    2850.6295   -42699.175    41.534199   0.99105913 
   12800    225.96046    729.48487    126189.84   -39828.423    2811.3777   -42639.801    41.869454   0.98972702 
   12900    227.02339    594.94661    126223.26   -39900.323    2824.6026   -42724.925    42.360116   0.98946495 
   13000     228.2711    432.27457    126092.86   -39854.776    2840.1265   -42694.902    42.605022   0.99048823 
   13100    227.62948    406.44545    126211.56   -39852.031    2832.1435   -42684.175    42.921936   0.98955664 
   13200    229.52442    359.87828    126145.61   -39777.374    2855.7202   -42633.094    43.014134   0.99007403 
   13300    223.95765    383.27974    125949.56   -39812.783    2786.4589   -42599.242    43.141225   0.99161517 
   13400    224.44321    330.78263    125906.48   -39901.572    2792.5002   -42694.072    43.467874   0.99195446 
   13500    227.31407    417.65514    125734.14   -39943.365    2828.2192   -42771.584    43.780651   0.99331405 
   13600    224.18703    378.42516    125534.53   -39969.011    2789.3129   -42758.324    44.183637   0.99489349 
   13700    221.42016    439.91886    125668.77   -39958.075    2754.8877   -42712.963    44.549285    0.9938308 
   13800    227.64615    553.61508    125841.24   -39879.826    2832.3509   -42712.177     44.92646   0.99246871 
   13900    227.33118    556.58024     126061.1   -39916.173    2828.4321   -42744.605    45.362439   0.99073772 
   14000    226.91992    453.00486    125790.31   -39908.251    2823.3152   -42731.566    45.648415   0.99287052 
   14100    221.49376    539.41774    125672.39   -39908.748    2755.8034   -42664.551     46.03149   0.99380211 
   14200    224.88274    393.81413    125424.39   -39948.048    2797.9689   -42746.017    46.211434   0.99576722 
   14300    223.79105    187.63429    125328.44   -40016.407    2784.3862   -42800.793    46.462688   0.99652953 
   14400    220.54451    405.10291    125173.77   -39969.119     2743.993   -42713.112    46.675975   0.99776091 
   14500    226.43277    573.16771    125480.63   -39886.884    2817.2541   -42704.138    46.935035   0.99532085 
   14600    222.65063    323.26027    125484.98   -39891.509    2770.1971   -42661.706    47.479648   0.99528636 
   14700    225.02534    499.81752    125459.55   -39944.645    2799.7431   -42744.388    47.754558   0.99548811 
   14800    221.34596    490.56031    125466.89   -39975.957    2753.9646   -42729.922    48.143515   0.99542991 
   14900    218.21877    532.98975    125312.73   -40042.735    2715.0563   -42757.792    48.766118   0.99665448 
   15000    220.23021    626.40852    125555.87   -40043.987    2740.0825   -42784.069    49.078798   0.99472446 
   15100    221.72743    281.80528    125468.25   -40075.825    2758.7107   -42834.535    49.209884   0.99541908 
   15200    220.29866    459.72731    125416.19   -39992.644    2740.9342   -42733.578      49.4458   0.99583229 
   15300     224.9458    278.55178    125255.24   -40006.365    2798.7533   -42805.118    49.573607   0.99711189 
   15400    218.32005    315.53953    125202.86   -39970.462    2716.3164   -42686.779    49.872587    0.9975291 
   15500    226.55758     331.0584     125255.9   -39970.301    2818.8071   -42789.108    50.399773   0.99710663 
   15600    222.42755    459.82306     125281.2   -39890.016    2767.4215   -42657.438    50.873339   0.99690533 
   15700    223.57506    506.99136    125205.69   -39963.721    2781.6988    -42745.42    51.332483    0.9975065 
   15800    223.03005    418.74475    125247.28   -39945.958    2774.9178   -42720.876    51.754171    0.9971753 
   15900    222.04635    397.31741    125236.99   -39991.664    2762.6788   -42754.342    52.272304   0.99725722 
   16000    224.42627     647.6856    125381.72   -39930.695    2792.2895   -42722.984     52.67215   0.99610606 
   16100    225.76985    602.36094    125430.82   -39885.062    2809.0062   -42694.068    52.937882   0.99571614 
   16200    224.16103    306.26772    125161.22   -39949.776    2788.9894   -42738.766    52.904289   0.99786095 
   16300    221.80695    381.91554     125170.3   -39961.554    2759.7001   -42721.254    52.998556   0.99778853 
   16400    228.51559    452.37488    125317.02   -39858.607    2843.1684   -42701.775    53.317877   0.99662033 
   16500     228.6508    511.68085    125190.07   -39839.223    2844.8507   -42684.073     53.44602   0.99763094 
   16600    227.14898    421.98095    125197.81   -39836.094    2826.1651    -42662.26     53.97374   0.99756927 
   16700    224.15883    603.23657    125401.25   -39879.762     2788.962   -42668.724    54.499147   0.99595092 
   16800    228.73388    398.80153    125685.51   -39880.435    2845.8843   -42726.319    54.871668   0.99369842 
   16900    229.11225    430.98323    125607.88   -39868.261     2850.592   -42718.853    54.979655   0.99431255 
   17000    226.73582    320.47482    125484.67   -39895.408    2821.0246   -42716.433    55.440658   0.99528885 
   17100    225.99962    548.59359    125553.06    -39829.81    2811.8649   -42641.674    55.977384   0.99474669 
   17200    226.47854    329.28118    125604.47   -39827.558    2817.8236   -42645.382    56.008184   0.99433953 
   17300    227.15965    421.13087    125656.46   -39862.759    2826.2979   -42689.057    56.350105   0.99392816 
   17400     225.7214    430.07242    125477.65   -39871.122    2808.4033   -42679.526    56.659157   0.99534454 
   17500    226.68175    225.22489    125265.44    -39860.57     2820.352   -42680.922    57.202701    0.9970307 
   17600    228.19063     497.8485    125582.94     -39837.1    2839.1252   -42676.226    57.422446   0.99451002 
   17700    225.68132    355.07503    125398.94   -39865.064    2807.9047   -42672.968    57.778173    0.9959693 
   17800    223.51116    550.08767    125499.57   -39862.523    2780.9038   -42643.426    58.114032   0.99517068 
   17900    225.96885    360.63186    125425.98   -39822.683    2811.4821   -42634.166     58.20776   0.99575457 
   18000    230.48068     270.0638    125198.97   -39767.836    2867.6178   -42635.454    58.509521   0.99756006 
   18100    222.59437    399.54562    124907.96   -39872.283    2769.4971    -42641.78    58.564476   0.99988412 
   18200    227.92978    194.50529    125036.22   -39871.969    2835.8798   -42707.848    58.949053   0.99885852 
   18300    225.54536    339.28676    125082.75   -39784.237     2806.213    -42590.45    59.376931   0.99848693 
   18400    224.76743     427.5094       124761   -39842.483    2796.5341   -42639.017    59.484739     1.001062 
   18500    224.07086    402.90214    124958.41   -39781.936    2787.8674   -42569.804    60.241229   0.99948045 
   18600     222.3765     403.7769    125099.06   -39814.429    2766.7865   -42581.216    60.870902   0.99835674 
   18700    225.94046    274.53355    125159.29   -39767.221    2811.1288    -42578.35    61.098387   0.99787633 
   18800    227.80571     446.8888     125183.6   -39734.227    2834.3361   -42568.563    61.300744   0.99768251 
   18900    226.64591    213.14739     125118.6   -39788.947     2819.906   -42608.853    61.730585   0.99820085 
   19000    223.44833    325.10689    125216.65   -39762.891    2780.1221   -42543.013    62.264111   0.99741918 
   19100    222.31845    432.53151    125309.27   -39825.555    2766.0642   -42591.619    62.635898   0.99668199 
   19200    228.37967    684.90833    125215.91   -39810.021    2841.4773   -42651.498    63.266072   0.99742507 
   19300    224.50235    507.90898    125326.91   -39768.272     2793.236   -42561.508    63.838027   0.99654167 
   19400    231.12412    663.78031    125148.53   -39783.747    2875.6234   -42659.371    64.036759   0.99796209 
   19500    225.90822    602.24487    125235.14   -39768.462    2810.7278   -42579.189    64.362475   0.99727193 
   19600    224.65552    376.13544    124830.21   -39822.052    2795.1418   -42617.194    64.784626    1.0005069 
   19700     227.5963    459.90918     125097.7   -39803.732    2831.7307   -42635.463    65.178812   0.99836761 
   19800    223.03115    485.69636    125203.53   -39843.276    2774.9315   -42618.208    65.391703   0.99752372 
   19900    225.82668    437.74181    125174.53   -39837.366    2809.7132   -42647.079    65.488938   0.99775479 
   20000    223.93953    233.49059    125057.41    -39873.33    2786.2335   -42659.564    65.998451   0.99868922 
   20100    226.04008    653.55214    124913.67   -39834.954    2812.3683   -42647.323    66.430085   0.99983845 
   20200    221.12923    409.68206    124994.38   -39891.564     2751.268   -42642.831    66.711093   0.99919289 
   20300    225.74805    545.49934    124977.71   -39924.015    2808.7349    -42732.75    67.162453   0.99932611 
   20400    222.99252    426.76691    124961.58   -39919.882    2774.4509   -42694.333    67.491233   0.99945512 
   20500    226.43811    414.13807    125041.28   -39895.224    2817.3206   -42712.544    67.460702   0.99881808 
   20600    224.11995    454.24268    125170.46   -39915.218    2788.4783   -42703.697    67.619004   0.99778728 
   20700    224.28076    582.91016    125130.23   -39854.757    2790.4791   -42645.236    68.072146   0.99810803 
   20800    220.79753    576.36484    125028.39   -39856.584     2747.141   -42603.725     68.68344   0.99892105 
   20900    222.55981    318.69264    125071.99   -39873.131    2769.0672   -42642.199    69.143569   0.99857286 
   21000    222.30946     439.6148    124833.08   -39964.547    2765.9523   -42730.499    69.445825     1.000484 
   21100     222.6909    357.70668    124789.02   -39981.489    2770.6982   -42752.187    69.764347    1.0008372 
   21200    221.71055    597.76825    124988.44   -39962.753    2758.5008   -42721.253     70.29608   0.99924038 
   21300     224.9442    405.27831    124968.12   -39969.619    2798.7334   -42768.352    70.721541   0.99940283 
   21400    227.91621    476.53067    124989.66   -39945.059    2835.7109    -42780.77    71.197602   0.99923057 
   21500    223.09936    560.65671    125013.73   -39946.974    2775.7801   -42722.754    71.720708   0.99903823 
   21600    226.00618    473.59282    125266.14   -39913.255    2811.9465   -42725.201     71.80373   0.99702517 
   21700    228.84267    612.70507    125212.98   -39899.605    2847.2379   -42746.843    72.198095   0.99744847 
   21800    224.21817    294.41787    125164.78   -39880.595    2789.7002   -42670.295    72.516211   0.99783255 
   21900    227.02489    567.07699    125205.69   -39895.627    2824.6213   -42720.248    72.742954    0.9975065 
   22000    227.12835    284.29731    125231.56   -39951.639    2825.9085   -42777.548    73.374816   0.99730044 
   22100     226.6704    493.83048    125347.86   -39895.476    2820.2107   -42715.686    73.675941   0.99637513 
   22200    221.98132    345.50771    125373.15   -39931.483    2761.8697   -42693.352    73.625335   0.99617412 
   22300    223.47004    640.87179    125371.72   -39916.335    2780.3922   -42696.727    73.776894   0.99618548 
   22400    220.13745    428.73628    125416.37   -39868.549    2738.9284   -42607.477    73.975488   0.99583082 
   22500    226.05543     394.4289    125343.61   -39864.514    2812.5593   -42677.073    74.140533   0.99640894 
   22600    226.79344    384.32643    125219.96   -39824.677    2821.7415   -42646.418    74.185629   0.99739284 
   22700    223.86745    573.58744    125333.98   -39827.015    2785.3367   -42612.351    74.593676    0.9964855 
   22800    229.20088     468.6159    125491.86   -39821.941    2851.6947   -42673.636    75.078423   0.99523185 
   22900     225.7375    411.54012    125840.25   -39871.307    2808.6036   -42679.911    75.296325   0.99247651 
   23000    225.33079    274.07284    125723.22   -39846.998    2803.5434   -42650.541    75.459053   0.99340036 
   23100    221.85179    460.32245    125659.78   -39960.888     2760.258   -42721.146    75.929752    0.9939019 
   23200    227.03276     372.1073    125729.58   -39906.415    2824.7191   -42731.134    76.103403   0.99335007 
   23300    219.68411    344.25316    125454.19   -39938.837    2733.2879   -42672.125    76.345134   0.99553065 
   23400    224.97251    455.50293    125397.05   -39855.121    2799.0858   -42654.207     76.63486    0.9959843 
   23500    224.64819    287.56318    125378.41   -39899.582    2795.0506   -42694.632    77.362487   0.99613238 
   23600      226.313    491.16631    125387.66   -39895.144     2815.764   -42710.908    77.584066   0.99605889 
   23700    225.78317    525.47081    125341.75   -39934.321    2809.1719   -42743.493     77.66371    0.9964237 
   23800    223.18732    443.10189    125202.37   -39992.322    2776.8746   -42769.197    77.907094   0.99753296 
   23900    217.39143    442.27248    125089.16   -40000.009    2704.7627   -42704.771    77.828534   0.99843574 
   24000    223.45371    418.94865    125097.48    -39931.17     2780.189   -42711.359    78.126623   0.99836934 
   24100    224.85066    187.74262    125055.33    -39925.01    2797.5697    -42722.58    78.284824   0.99870583 
   24200    220.79197    582.99239    125064.07   -39973.385    2747.0719   -42720.456    79.042631   0.99863606 
   24300    224.28791    584.28675    125210.37   -39946.082    2790.5681    -42736.65    79.403175   0.99746926 
   24400    220.62247    724.66378    125321.41   -39971.186     2744.963   -42716.149    79.540845   0.99658539 
   24500    223.68529    349.37462    125394.58   -39912.688    2783.0703   -42695.758    80.142207   0.99600388 
   24600    224.14107     424.9321    125145.94   -39891.973    2788.7411   -42680.714    80.414757   0.99798273 
   24700    223.23676    580.78702    125249.57   -39909.753    2777.4897   -42687.242    80.773185   0.99715704 
   24800    224.00616    485.87831    125142.21   -39892.648    2787.0625   -42679.711    80.973378   0.99801251 
   24900    226.99092    465.11452    125068.37   -39826.757    2824.1986   -42650.955    81.139861   0.99860175 
   25000    224.69436    280.45926    125218.94   -39793.213     2795.625   -42588.838     81.53686     0.997401 
   25100    224.51399    641.53595    125084.86   -39791.004    2793.3809   -42584.385    82.132854   0.99847011 
   25200    225.75151    483.17669    125357.54   -39815.709     2808.778   -42624.487    82.492472    0.9962982 
   25300    218.07336    295.47064    125206.62   -39827.945    2713.2472   -42541.193    82.645966   0.99749907 
   25400    226.21921    462.73536    125218.46   -39808.994    2814.5971   -42623.591    83.014039   0.99740482 
   25500    225.65611    414.15188    125347.07   -39768.086     2807.591   -42575.677    83.731597   0.99638145 
   25600    226.83733    493.36542    125527.11   -39866.783    2822.2876    -42689.07    84.035556   0.99495235 
   25700    220.35984    677.70766    125495.66   -39878.819    2741.6954   -42620.515    84.273606   0.99520165 
   25800    224.41689    299.07042    125435.38   -39856.927    2792.1728     -42649.1    84.445054   0.99567996 
   25900    228.23498    393.32103    125556.51   -39832.277    2839.6771   -42671.954    84.563142   0.99471936 
   26000    228.45103    534.28026    125534.46   -39786.297    2842.3652   -42628.662    84.907596   0.99489405 
   26100    221.95991    504.47852    125272.77   -39868.264    2761.6033   -42629.867    85.102091   0.99697237 
   26200    229.70484    246.37079    125135.61   -39864.441    2857.9649   -42722.405    85.512403   0.99806517 
   26300     226.1244    196.19458    125150.06   -39841.581    2813.4174   -42654.999    85.688144    0.9979499 
   26400    223.21557    191.33141    125164.18    -39816.23    2777.2261   -42593.456    85.676886   0.99783732 
   26500    229.24157    462.18122    125151.11   -39882.314    2852.2009   -42734.515    85.900541   0.99794151 
   26600    225.95016    274.78843    125230.93   -39940.669    2811.2495   -42751.919    86.183222   0.99730544 
   26700    221.22245    435.70528    125335.87   -39973.588    2752.4278   -42726.016    86.438022   0.99647042 
   26800    227.90917    504.06003    125269.38   -39915.714    2835.6234   -42751.337    86.912625   0.99699932 
   26900    226.40686    336.57107    125190.53   -39912.785    2816.9318   -42729.716    87.321863   0.99762727 
   27000    227.41103    404.91456    125142.24   -39959.416    2829.4255   -42788.841    87.656277   0.99801227 
   27100    224.68958    399.31083    125130.38   -39966.302    2795.5656   -42761.867     88.18632    0.9981069 
   27200    221.61812     413.2386    125060.04   -39972.691    2757.3508   -42730.042    88.142824   0.99866822 
   27300    220.49871    412.33187    125010.73   -39993.033    2743.4232   -42736.456    88.502259   0.99906219 
   27400     221.4671    310.29143    124989.04   -39917.612    2755.4717   -42673.084    88.709004   0.99923553 
   27500    223.89419    358.30234    124835.72   -39845.269    2785.6693   -42630.938    88.801772    1.0004628 
   27600     226.3818    287.85004    124944.84   -39869.887      2816.62   -42686.507    89.121283   0.99958903 
   27700    223.03702    507.06635    125007.95   -39865.743    2775.0045   -42640.747     89.41464   0.99908437 
   27800    226.15579    504.48203    125124.52    -39791.12     2813.808   -42604.928      89.9435   0.99815358 
   27900    224.85223    487.92741    125370.87   -39794.025    2797.5892   -42591.615    90.692065   0.99619228 
   28000    222.45061    193.76987    125356.61   -39838.583    2767.7084   -42606.292    91.391259   0.99630556 
   28100    227.10796    372.89975    125166.04   -39815.976    2825.6548   -42641.631    91.401802   0.99782253 
   28200    227.85874    366.50065    125241.15   -39842.175     2834.996   -42677.171    92.113937    0.9972241 
   28300    225.96607    340.52108    125189.23   -39837.624    2811.4475   -42649.072    92.522545   0.99763768 
   28400    223.08915    418.12787    125257.34   -39883.005    2775.6532   -42658.659    93.157097   0.99709516 
   28500    223.99322    438.31646    125183.13   -39919.562    2786.9015   -42706.464     93.74682   0.99768629 
   28600    226.10285    524.35695    125190.74   -39878.599    2813.1493   -42691.749    94.104728   0.99762561 
   28700    221.53269    303.37109    125184.03   -39902.919    2756.2879   -42659.207    94.079963    0.9976791 
   28800    225.86271    422.39193     124961.1   -39857.315    2810.1616   -42667.477    94.004415   0.99945895 
   28900    225.58607    522.35453    124952.86   -39828.039    2806.7196   -42634.759    94.358558    0.9995249 
   29000    220.53941     464.2584    124890.23    -39902.42    2743.9295   -42646.349    94.627219    1.0000261 
   29100    225.48236    576.50289     124958.7   -39836.808    2805.4292   -42642.237    95.101032   0.99947818 
   29200    228.24788    383.04649    125106.95   -39795.387    2839.8375   -42635.225    95.640726   0.99829377 
   29300    225.37513    516.85053     125177.7    -39865.41    2804.0951   -42669.505    96.336728   0.99772958 
   29400    226.11927    497.87633    125013.03   -39924.478    2813.3536   -42737.832    96.575703   0.99904378 
   29500    219.18413    589.18412    125041.48   -39953.954    2727.0673   -42681.021    97.108516   0.99881644 
   29600    226.21245    507.75981    125185.13   -39872.069    2814.5129   -42686.582    97.081565    0.9976703 
   29700    221.19509     244.7086    124882.33   -39933.202    2752.0874   -42685.289    97.659554    1.0000893 
   29800     223.3469    447.47737    124813.09   -39901.084    2778.8601   -42679.944    97.798897    1.0006441 
   29900    224.46261    312.93078    124861.17   -39938.361    2792.7416   -42731.102    98.113032    1.0002588 
   30000    221.92333    432.36105    124841.49   -39923.124    2761.1481   -42684.272    98.272709    1.0004166 
   30100     226.8555    557.22126    125185.54   -39930.172    2822.5137   -42752.686    99.136998   0.99766709 
   30200    224.56148    545.27581    125212.74   -39943.886    2793.9718   -42737.857    99.641638   0.99745038 
   30300    227.15817    539.48937     125514.3   -39909.493    2826.2795   -42735.773    100.33146    0.9950539 
   30400    226.52466    275.83939    125602.16   -39894.257    2818.3974   -42712.654    100.62406   0.99435785 
   30500    224.57194    365.62595    125629.52   -39896.965    2794.1019   -42691.067    100.67291   0.99414127 
   30600    227.37562    483.97924    125735.41   -39870.303     2828.985   -42699.288    100.69288   0.99330402 
   30700    224.61033    248.66658    125807.36    -39883.09    2794.5795   -42677.669    101.20356   0.99273599 
   30800    228.76867     340.9572    125662.43   -39833.082    2846.3171   -42679.399    101.86681   0.99388089 
   30900    224.82726    278.74472    125614.62   -39952.705    2797.2785   -42749.984    102.18868   0.99425918 
   31000    223.63832    369.01562    125475.96   -40005.994    2782.4859    -42788.48    102.25694   0.99535789 
   31100    224.45102    586.62044    125822.49   -40009.429    2792.5974   -42802.026     102.4999   0.99261657 
   31200    221.98282    519.85027     125751.9   -40045.718    2761.8883   -42807.606    102.88689   0.99317381 
   31300    226.34234    349.55255    125750.88   -40003.721     2816.129    -42819.85    103.40692   0.99318184 
   31400    224.55385    438.23443    125770.97    -39959.04    2793.8769   -42752.916    103.62864   0.99302319 
   31500    220.94821     390.1349    125736.53   -39990.733    2749.0157   -42739.748    103.69106   0.99329523 
   31600    224.69581    342.77931    125662.64   -39898.628    2795.6431   -42694.271    104.06058   0.99387924 
   31700    220.58249    369.73289    125674.81   -39930.432    2744.4655   -42674.897    104.54615   0.99378298 
   31800    227.12546    485.46257    125596.64   -39860.359    2825.8725   -42686.232    104.66499    0.9944015 
   31900    228.05608    451.97613    125694.49   -39839.774    2837.4512   -42677.225    104.91733   0.99362744 
   32000    227.40738    532.11334    125643.36   -39833.975    2829.3801   -42663.355    105.40658   0.99403177 
   32100    224.70573    522.50557    125900.64   -39850.009    2795.7665   -42645.775    105.77253   0.99200048 
   32200    228.25375    432.06664    125845.24   -39853.126    2839.9106   -42693.037    105.88369   0.99243713 
   32300    229.17011    437.37995    125700.84   -39856.161    2851.3119   -42707.472    105.78597    0.9935772 
   32400    218.70587    445.54743    125617.69   -39926.828    2721.1168   -42647.944    106.14953   0.99423488 
   32500    222.62935    384.93482    125681.63    -39923.68    2769.9324   -42693.612    106.53802   0.99372909 
   32600     221.3688     360.0697    125714.94   -39863.087    2754.2488   -42617.336     106.6232   0.99346581 
   32700    222.06387    461.87613    125530.09   -39915.217    2762.8967   -42678.114    106.94766   0.99492874 
   32800    221.30274    665.94205    125618.68   -39955.089    2753.4269   -42708.516    107.22943   0.99422708 
   32900    224.06157    270.28314     125588.7   -39949.784    2787.7519   -42737.536    107.53335   0.99446438 
   33000    225.49743    587.79436    125928.44   -40014.629    2805.6168   -42820.246    108.18694   0.99178145 
   33100    222.01595    455.07528    125798.43   -39951.558    2762.3005   -42713.858    108.23004   0.99280645 
   33200    228.04286    387.98503    125492.85   -39987.382    2837.2867   -42824.669    108.52891   0.99522396 
   33300    225.07549    624.36484    125661.13   -39912.167    2800.3669   -42712.533    108.88933   0.99389123 
   33400    219.95121    554.92391    125609.49   -39992.073    2736.6113   -42728.684    109.25939   0.99429984 
   33500    224.89147    611.85838    125666.05   -39947.059    2798.0774   -42745.136      109.593   0.99385232 
   33600    223.21242    391.19601    125673.24   -39913.094    2777.1869   -42690.281    109.50584   0.99379546 
   33700    226.20328    617.11358    125393.21   -39906.345    2814.3988   -42720.744    109.50582    0.9960148 
   33800    223.64831      324.596    125410.29   -39899.664    2782.6102   -42682.274    109.81724   0.99587916 
   33900    223.40848    292.99386    125329.81   -39899.051    2779.6263   -42678.677    110.21436    0.9965186 
   34000    219.90267    395.29114    125553.47   -39847.101    2736.0073   -42583.108     110.6817   0.99474341 
   34100    222.11239    379.24322    125426.93   -39876.975    2763.5004   -42640.475    110.77886   0.99574698 
   34200    223.58685    528.56689    125813.35   -39883.023    2781.8454   -42664.868    111.63764   0.99268872 
   34300    225.80341     543.8773    125710.82   -39932.601    2809.4238   -42742.025    111.50966   0.99349837 
   34400    222.93096     466.5097     125538.3   -39876.811    2773.6849   -42650.496    111.65505   0.99486366 
   34500    226.30248    418.84274    125550.93   -39909.492    2815.6331   -42725.125    112.01593   0.99476357 
   34600    227.28541    347.00106    125497.62   -39905.042    2827.8626   -42732.904    112.43688    0.9951861 
   34700    221.81976    389.93578    125597.09   -39980.695    2759.8596   -42740.554    113.03895   0.99439797 
   34800    222.56621    458.07741     125441.6   -39942.394    2769.1468    -42711.54    112.92507   0.99563056 
   34900    221.56816    288.19104    125682.22   -39965.468    2756.7292   -42722.197    113.26186   0.99372446 
   35000    221.32871    384.72157    125728.56   -40052.551      2753.75   -42806.301    113.35435   0.99335817 
   35100    222.36381     392.5684    125702.67   -39997.402    2766.6286    -42764.03    113.88016   0.99356274 
   35200    224.02057    405.86407    125872.88   -39991.868    2787.2418    -42779.11    114.46236   0.99221924 
   35300    225.48805    322.77386    125997.02   -39974.343       2805.5   -42779.843    114.63122   0.99124164 
   35400    221.42964     334.5194    125929.71   -40008.577    2755.0056   -42763.583    114.57141   0.99177142 
   35500    225.48852     537.6416    125745.73   -39909.476    2805.5058   -42714.982    115.00384   0.99322255 
   35600    224.32791     384.8779       125705   -39954.677    2791.0657   -42745.743    115.45921   0.99354431 
   35700    224.52378    421.89231    125649.62   -39912.463    2793.5027   -42705.966    115.79884   0.99398226 
   35800    224.36309    588.80244     125704.6     -39947.4    2791.5034   -42738.904    116.02752   0.99354747 
   35900    227.15032    357.97359     125638.5   -39895.811    2826.1819   -42721.993    115.90594   0.99407025 
   36000    225.31278    464.39936    125689.32   -39851.124    2803.3194   -42654.444    116.50628   0.99366825 
   36100    228.52183    403.22617     125769.8   -39866.269     2843.246   -42709.515     116.7894   0.99303244 
   36200    224.72505    533.45192    125439.88   -39898.843    2796.0069   -42694.849    116.96494   0.99564425 
   36300    221.67409    483.07209    125488.11   -39939.952    2758.0472   -42697.999    117.46283   0.99526153 
   36400    227.96572    420.91826    125779.59   -39880.317     2836.327   -42716.644    118.49212   0.99295516 
   36500    224.32215    446.92091    125668.25   -39855.328     2790.994   -42646.322    119.03942   0.99383487 
   36600    218.07114    215.21709    125718.11   -39974.939    2713.2196   -42688.159    119.41594   0.99344075 
   36700    218.87228     537.6417    125208.78   -39926.391    2723.1873   -42649.578    119.21774   0.99748188 
   36800    225.03206    453.10193    125293.32   -39912.072    2799.8267   -42711.899    119.22489   0.99680888 
   36900    227.16108    423.21594    125489.76   -39945.055    2826.3157   -42771.371    119.64672   0.99524849 
   37000    227.48544    354.53547    125750.79   -39891.764    2830.3514   -42722.115    120.69445   0.99318253 
   37100    228.39979    534.70586    125574.52   -39878.999    2841.7276   -42720.727    121.18687   0.99457669 
   37200    226.34478    666.36338    125596.05   -39936.471    2816.1594    -42752.63     121.4833   0.99440618 
   37300    220.87506    595.63141    125652.43   -39944.476    2748.1057   -42692.581    121.71486   0.99395998 
   37400    219.82447    549.67069    125679.15   -39977.938    2735.0344   -42712.973    122.17298   0.99374867 
   37500    225.49229    435.12648    125642.41   -39976.538    2805.5527   -42782.091    122.62003   0.99403932 
   37600    224.40277    278.47787     125445.8   -39923.392    2791.9971   -42715.389    122.47199   0.99559726 
   37700    221.83777    612.00401    125363.02   -39926.734    2760.0836   -42686.818     123.0999   0.99625462 
   37800    218.19398    453.36831    125334.01   -40015.618    2714.7479   -42730.365    123.36021   0.99648526 
   37900    223.41193    675.04858    125373.88   -39966.824    2779.6691   -42746.493    123.80656   0.99616835 
   38000    224.39798     416.5704    125322.38   -39951.593    2791.9375   -42743.531    124.09874   0.99657768 
   38100    222.61876    507.28516       125508   -39901.422    2769.8006   -42671.222    124.77333   0.99510381 
   38200    222.91464    561.09533    125533.24   -39904.899    2773.4819   -42678.381    125.25385   0.99490378 
   38300    229.25697    500.17084    125599.56   -39845.863    2852.3926   -42698.256    125.49548   0.99437839 
   38400     222.0733    397.76928    125679.69   -39919.501    2763.0141   -42682.515    126.12648   0.99374442 
   38500    224.51839    450.71111    125630.32   -39935.017    2793.4356   -42728.453    126.43148   0.99413492 
   38600    224.52707    430.99103    125797.44   -39897.847    2793.5436   -42691.391    126.72872   0.99281427 
   38700    222.97429    298.81753    125661.96    -39914.44    2774.2241   -42688.664    126.60921    0.9938846 
   38800    224.09185    337.00313    125476.64   -39946.959    2788.1286   -42735.088    126.54579    0.9953525 
   38900    223.55611    602.92687    125258.95   -39895.573     2781.463   -42677.036    126.24376   0.99708235 
   39000    225.28995    324.77238     125203.6   -39931.365    2803.0352     -42734.4     126.5578   0.99752316 
   39100     225.2039    584.76495    125254.84   -39886.051    2801.9647   -42688.016    127.09422   0.99711508 
   39200    222.35636    540.23187    125449.31   -39891.477    2766.5358   -42658.013    127.37883   0.99556935 
   39300    226.58641    380.03642    125383.89   -39879.019    2819.1657   -42698.185    127.79838   0.99608886 
   39400    226.03674    496.82594    125326.64    -39833.86    2812.3268   -42646.186    128.20191   0.99654386 
   39500    227.81853    730.34644    125140.83   -39807.561    2834.4957   -42642.057    128.41985    0.9980235 
   39600    223.75326    513.53714    125368.04   -39850.131     2783.916   -42634.046    129.30417   0.99621479 
   39700    223.94915    486.80249    125170.05   -39796.016    2786.3532   -42582.369    129.15697    0.9977905 
   39800    223.54054    354.26568    125028.29   -39866.707    2781.2693   -42647.976    129.65158   0.99892183 
   39900    224.17149    451.74983    124881.98   -39905.134    2789.1195   -42694.253    129.66889    1.0000922 
   40000    225.29864     716.2939    124959.01   -39936.416    2803.1434    -42739.56    129.77155   0.99947571 
   40100    227.84594    517.36598    125188.81   -39851.653    2834.8367   -42686.489    130.39271   0.99764105 
   40200    226.91901    302.06839    125080.53   -39877.894    2823.3039   -42701.197    130.59766   0.99850468 
   40300    228.55878    595.67664    125022.45   -39855.972    2843.7058   -42699.678    130.81686   0.99896848 
   40400    229.26561    475.21098    125114.62   -39762.898    2852.5001   -42615.399    131.47787   0.99823259 
   40500    228.37948    538.33786     125256.9   -39765.016    2841.4749   -42606.491    131.96138   0.99709872 
   40600    228.91654    444.40026    125341.48   -39816.482    2848.1569   -42664.639    132.66583   0.99642586 
   40700    224.85163    316.93677    125196.78   -39872.023    2797.5817   -42669.605    133.14296   0.99757747 
   40800    222.48853    381.51519    125081.05   -39930.518    2768.1803   -42698.698    133.12192    0.9985005 
   40900     220.2344     312.8496    125019.55   -39959.705    2740.1347   -42699.839    133.78941   0.99899171 
   41000    219.41964    331.28106    124889.36   -39877.135    2729.9975   -42607.133    134.27701    1.0000331 
   41100    230.49211    526.28614    124994.04   -39862.106    2867.7601   -42729.866    134.43855   0.99919555 
   41200    226.59757    313.79136     125048.5   -39877.702    2819.3045   -42697.006    134.38763   0.99876042 
   41300    223.30611    417.19476    125078.06   -40031.814    2778.3526   -42810.166     134.5003   0.99852438 
   41400    217.92018    536.76602    125157.92   -39969.574    2711.3414   -42680.915    134.71217   0.99788722 
   41500    220.41075    283.60876    125189.43   -39968.551    2742.3287    -42710.88    134.81573   0.99763605 
   41600    221.68368    457.06908    125313.65   -39956.535    2758.1665   -42714.701    135.04582   0.99664714 
   41700    225.12328     219.8907    125412.26   -39944.758    2800.9616   -42745.719    135.45532   0.99586349 
   41800    221.22808      532.048    125407.87   -39953.553    2752.4979   -42706.051    135.81512   0.99589839 
   41900    223.94671    362.75062     125639.4   -39936.786    2786.3229   -42723.109    136.42181   0.99406313 
   42000    226.63347     528.8954    125280.58   -39943.213    2819.7513   -42762.964    136.36641   0.99691021 
   42100    221.16831     632.7747    125256.82   -39906.929    2751.7543   -42658.683    136.58042   0.99709935 
   42200    228.66423    284.01972    125406.95   -39854.654    2845.0177   -42699.672     137.0497   0.99590568 
   42300    225.17174    358.44072    125134.53   -39824.708    2801.5645   -42626.272    136.96037   0.99807377 
   42400     223.9095     465.9131    125173.11   -39861.801    2785.8599   -42647.661     137.0745   0.99776617 
   42500    225.83189    327.08634    125386.44   -39851.549     2809.778   -42661.327     137.4287    0.9960686 
   42600    226.74085    582.49964    125324.41   -39858.453    2821.0873    -42679.54    137.83775   0.99656159 
   42700      222.631    613.99346    125349.75   -39870.201     2769.953   -42640.154    138.50359   0.99636012 
   42800    228.66964    305.76645    125510.24       -39824    2845.0851   -42669.085    139.40346   0.99508609 
   42900    224.89478     347.2713    125321.88   -39886.976    2798.1186   -42685.094    139.87928   0.99658168 
   43000    227.63627     153.4677    125193.06   -39911.018    2832.2279   -42743.246    140.04491   0.99760718 
   43100    224.49506    389.72098    125197.54   -39899.175    2793.1453   -42692.321    140.49513   0.99757142 
   43200    223.58868    674.89897    125513.76   -39855.675    2781.8683   -42637.543    140.72082   0.99505816 
   43300    226.08571    451.49541    125522.11   -39859.839     2812.936   -42672.775    141.23509   0.99499195 
   43400    228.90064    328.83563     125335.6   -39811.927    2847.9591   -42659.886    141.58312   0.99647258 
   43500      227.665    333.48286    125371.14    -39819.77    2832.5855   -42652.355    142.47798   0.99619015 
   43600    229.77192    419.52038    125208.47   -39704.809    2858.7996   -42563.609    143.09711   0.99748435 
   43700    226.93288    428.62401    124984.73   -39737.039    2823.4764   -42560.516    143.45266   0.99926996 
   43800     228.9176    603.81145    125337.66   -39744.034    2848.1701   -42592.204    144.07583   0.99645618 
   43900    229.80042    570.84378    125628.39   -39792.725    2859.1541   -42651.879    144.44554   0.99415021 
   44000    229.75197    364.30574    125554.77   -39830.266    2858.5513   -42688.818    144.86339   0.99473312 
   44100    225.93563    546.61084    125227.34   -39867.845    2811.0688   -42678.914    145.06825   0.99733403 
   44200    222.24042    379.42782    125165.95   -39912.076    2765.0934   -42677.169    145.65719   0.99782318 
   44300    222.76336    434.95669    125096.74   -39916.587    2771.5998   -42688.187    146.73009   0.99837526 
   44400    229.09709    539.93087     125012.6   -39879.912    2850.4033   -42730.315    147.01316   0.99904724 
   44500    223.99317    516.34641    124829.33    -39913.95    2786.9009   -42700.851    147.11844     1.000514 
   44600    223.58892    454.45603    124892.94   -39986.636    2781.8712   -42768.508    147.34603    1.0000044 
   44700    220.50982    395.29741    124870.06   -39959.355    2743.5614   -42702.916    147.46141    1.0001877 
   44800    223.16501    337.23197    124770.18   -39915.575     2776.597   -42692.172    147.57818    1.0009883 
   44900    227.33015    413.64256    124629.63   -39856.969    2828.4193   -42685.388     147.7695    1.0021171 
   45000    223.50788    603.34012    124905.62   -39851.601     2780.863   -42632.464    148.60351   0.99990291 
   45100    224.85944    484.62684    124768.54    -39791.23    2797.6789   -42588.909    148.84402    1.0010014 
   45200    222.44422      454.961    124547.23   -39844.436    2767.6289   -42612.065    149.06568    1.0027801 
   45300     221.3133    372.80428    124606.08   -39855.987    2753.5583   -42609.546    149.37938    1.0023066 
   45400    224.77264    428.68641    124641.01   -39820.353     2796.599   -42616.952    149.72166    1.0020257 
   45500    225.27815    245.97771    124697.19   -39833.906    2802.8885   -42636.794     149.9137    1.0015743 
   45600    231.16173     631.7133    124877.54   -39832.095    2876.0914   -42708.187    150.25122    1.0001277 
   45700    227.88768     493.9321    125004.56   -39844.693     2835.356   -42680.049     150.7422   0.99911146 
   45800    225.63699    741.80407    124908.42   -39798.113    2807.3532   -42605.466    150.99258   0.99988051 
   45900    228.01846    350.54547    124962.34   -39737.013    2836.9832   -42573.996    151.34893   0.99944904 
   46000      229.761    772.05118    125047.81   -39701.576    2858.6637    -42560.24    151.84982    0.9987659 
   46100    229.61886    457.22381    125250.49   -39645.247    2856.8951   -42502.142    152.35035   0.99714975 
   46200     231.1061    528.14143    125134.83   -39634.392    2875.3992   -42509.791    152.39225   0.99807134 
   46300    224.49514    397.12727    125057.07   -39643.437    2793.1464   -42436.584    152.80571   0.99869194 
   46400    228.24195    398.35883    125148.63   -39675.645    2839.7638   -42515.408    152.70011   0.99796132 
   46500    225.97265    491.85158    125074.87   -39669.421    2811.5294    -42480.95     153.2126    0.9985498 
   46600    230.36082    666.62589    124947.91   -39666.182    2866.1266   -42532.308     153.6228   0.99956446 
   46700    225.58698    449.44988    125055.83   -39761.093    2806.7309   -42567.824     154.5395   0.99870186 
   46800    222.99061    620.70712    125030.46   -39815.839    2774.4272   -42590.266    155.27331   0.99890454 
   46900     227.3054    259.72886    125259.57   -39753.489    2828.1114   -42581.601    155.85762   0.99707741 
   47000    226.89806    332.03601    125215.23   -39746.935    2823.0433   -42569.978    156.17684   0.99743052 
   47100    223.82746     574.7994    125042.63   -39733.247    2784.8392   -42518.086    156.30058   0.99880729 
   47200    226.22417    332.75166    125143.41   -39794.747    2814.6587   -42609.406    156.53897   0.99800291 
   47300    223.29871    455.63439    125008.72   -39839.413    2778.2605   -42617.674    156.34555    0.9990782 
   47400    225.18098    516.36194    125001.96   -39810.092    2801.6795   -42611.771    156.66245   0.99913225 
   47500     228.5812    351.09453    124967.79   -39743.745    2843.9847    -42587.73    157.06837   0.99940545 
   47600    228.74633    267.33033    124934.63    -39710.79    2846.0392   -42556.829    157.79019   0.99967072 
   47700    221.72249    390.92767     124681.9   -39749.128    2758.6493   -42507.777    157.88115     1.001697 
   47800    226.33571    612.86864    124739.47    -39762.48    2816.0465   -42578.526    158.13395    1.0012347 
   47900     225.6963    594.55535    124909.08   -39851.552     2808.091   -42659.643    158.62738   0.99987523 
   48000    221.81394    464.33686    125015.01   -39850.069    2759.7871   -42609.856    159.03839   0.99902795 
   48100    225.58308    393.08891    125035.88   -39818.294    2806.6824   -42624.976    159.38697   0.99886125 
   48200    220.94432    306.30099     124892.8   -39845.155    2748.9674   -42594.122     158.9279    1.0000055 
   48300     224.6611    549.75877    124917.89   -39830.925    2795.2113   -42626.136    159.30766   0.99980468 
   48400    228.54901     462.4395    125021.68   -39747.127    2843.5842   -42590.711    159.61651   0.99897467 
   48500    227.79714    159.66796    125013.07    -39791.42    2834.2296   -42625.649    159.78168   0.99904351 
   48600    223.07131    314.81203     124868.3   -39818.606    2775.4312   -42594.037    160.20548    1.0002017 
   48700    223.39768    308.60752    125008.53   -39796.925    2779.4919   -42576.417    160.36462   0.99907974 
   48800    222.72792    480.96317    125138.35   -39833.798    2771.1587   -42604.956    161.00759   0.99804328 
   48900       224.05    584.53974    125216.26   -39812.304    2787.6079   -42599.912    161.54466   0.99742227 
   49000    220.87392    562.43699    125162.36   -39835.501    2748.0915   -42583.592    161.78153   0.99785184 
   49100    224.12959    585.09552     125048.5   -39839.012    2788.5982    -42627.61    161.72876   0.99876041 
   49200     226.1528    538.80998    125159.52   -39866.322    2813.7708   -42680.093    162.02955    0.9978745 
   49300    226.43716    459.41843    125351.26   -39823.091    2817.3088     -42640.4    162.21328   0.99634807 
   49400    229.86784    477.23199    125230.37   -39830.877    2859.9929    -42690.87    162.12659   0.99730992 
   49500     226.3247    536.44612    125342.86   -39869.238    2815.9095   -42685.147    162.30193   0.99641488 
   49600    224.63514    600.17513    125201.23   -39865.549    2794.8882   -42660.437    162.88088   0.99754203 
   49700    227.28986    322.89934    125417.44   -39893.914     2827.918   -42721.832    163.41049    0.9958224 
   49800    224.81786    537.81638    125640.95   -39946.954    2797.1616   -42744.115    164.05088   0.99405087 
   49900    227.56603    382.96798    125698.71   -39824.268    2831.3541   -42655.622    164.93257   0.99359403 
   50000    225.90205    490.39672    125824.45    -39862.29     2810.651   -42672.941    165.63757    0.9926011 
   50100    234.14496    407.90596    125752.14   -39879.709    2913.2084   -42792.918    165.71187   0.99317191 
   50200     225.7712    261.92202    125643.08   -39920.443    2809.0229   -42729.466    165.67324   0.99403397 
   50300    226.14522    460.80112    125411.92   -39896.558    2813.6765   -42710.235    165.73957   0.99586617 
   50400    225.53625    505.95907    125623.95   -39906.488    2806.0997   -42712.587    166.17305   0.99418532 
   50500    222.90843    465.37689    125484.07   -39950.238    2773.4047   -42723.642      167.086   0.99529359 
   50600    223.65961    455.97386    125620.36   -39977.077    2782.7507   -42759.828    167.60409   0.99421376 
   50700    219.87157    411.53736    125810.03    -39984.12    2735.6203   -42719.741    168.21642   0.99271492 
   50800    222.76902    422.92451    125890.72   -39994.724    2771.6702   -42766.394    168.40755   0.99207865 
   50900    229.80348     564.0892     125705.3   -39918.031    2859.1922   -42777.223    168.02927   0.99354195 
   51000    228.36145    317.03767    125801.98   -39971.763    2841.2506   -42813.013    168.68133   0.99277839 
   51100     226.8987    447.69161     125937.2    -40017.14    2823.0512   -42840.192    169.36677   0.99171249 
   51200    224.14795    418.88284    125862.53   -39995.309    2788.8266   -42784.135    169.91013   0.99230082 
   51300    226.25564    582.96427    126176.21    -40058.58    2815.0503   -42873.631    170.52496   0.98983394 
   51400    220.53656    565.66781    126089.13   -40057.987     2743.894   -42801.881    170.50453    0.9905175 
   51500    220.14733    530.00894    126078.13    -40056.37    2739.0513   -42795.421    170.88887   0.99060393 
   51600     225.2895    474.47911    126222.02   -40007.183    2803.0297   -42810.213    171.19433   0.98947469 
   51700    218.71583    598.78635    126231.19   -39996.462    2721.2407   -42717.703    171.88273    0.9894028 
   51800    226.03347    526.00853    126041.17   -40038.291    2812.2861   -42850.577    172.03421   0.99089439 
   51900    222.77352    495.32567     125977.5   -40087.025    2771.7261   -42858.751    172.54207   0.99139519 
   52000    218.82241     379.5296     125992.5   -40104.231    2722.5668   -42826.798    172.96801   0.99127716 
   52100    219.58516    235.57503    125836.45   -40049.605    2732.0569   -42781.661    172.97451   0.99250645 
   52200    217.82146    499.04965    125667.28   -40055.387    2710.1131     -42765.5    173.03213   0.99384256 
   52300    225.54697    369.26029    125922.85   -40014.455    2806.2331   -42820.688       173.68   0.99182549 
   52400     225.3867    384.45378    126233.92   -39961.067     2804.239   -42765.306    174.73482   0.98938142 
   52500    222.08269    289.82598    125932.93   -39954.141    2763.1309   -42717.272    174.95287   0.99174611 
   52600      221.552    137.06668    125931.52    -39973.06    2756.5281   -42729.588    174.71851   0.99175719 
   52700    223.90601    375.03463    125767.01    -39995.22    2785.8164   -42781.037     174.5472   0.99305446 
   52800    224.73155    549.13672    125657.25   -39931.629    2796.0878   -42727.717    173.95976   0.99392188 
   52900    225.32978    294.72789     125717.2   -39918.715    2803.5308   -42722.246     174.4473   0.99344789 
   53000    227.01296     333.6411    125722.58   -39884.339    2824.4728   -42708.811    174.67085   0.99340542 
   53100    224.12611    471.42322     125858.9   -39927.334    2788.5549   -42715.889    174.83659   0.99232946 
   53200     225.4288    359.13072    125862.33   -39914.036    2804.7629   -42718.799    175.54691    0.9923024 
   53300    225.75639    442.37022    125600.06    -39899.61    2808.8387   -42708.449    175.58248   0.99437449 
   53400    218.52013    472.34928    125477.98   -39962.024    2718.8059    -42680.83    176.09985   0.99534187 
   53500    222.83755    352.35772    125522.85   -39965.632    2772.5228   -42738.155    177.19062   0.99498612 
   53600    223.25499    494.53467    125364.82   -39978.249    2777.7165   -42755.966    177.54405   0.99624031 
   53700    219.23743    583.26686    125452.53   -40012.584    2727.7305   -42740.314    177.90854   0.99554386 
   53800    224.90652    539.04621    125601.13   -39909.225    2798.2647    -42707.49    178.07154   0.99436598 
   53900     223.9009    379.54715    125532.97   -39967.903    2785.7529   -42753.656    178.27149   0.99490591 
   54000    226.21526    459.09537    125365.67   -39943.869    2814.5479   -42758.417    178.11484   0.99623362 
   54100    224.36673    325.28809    125434.41   -39961.059    2791.5487   -42752.607    178.89329   0.99568761 
   54200    223.92955    453.26632    125289.78   -39935.892    2786.1093   -42722.001    178.95545     0.996837 
   54300     227.2625    503.62388    125609.94   -39896.116    2827.5775   -42723.694    178.96572   0.99429625 
   54400    223.07532    712.23837    125583.69   -39924.164    2775.4811   -42699.645    179.22631    0.9945041 
   54500     225.3396    266.74728     125443.3   -39918.266    2803.6531   -42721.919    179.48022   0.99561708 
   54600    225.57378    319.92813    125370.32   -39820.874    2806.5666    -42627.44    179.84098   0.99619662 
   54700    228.55904    498.32733    125296.86   -39838.166     2843.709   -42681.875    180.21361   0.99678071 
   54800    227.94948    491.32468     125303.9   -39920.757    2836.1249   -42756.882     180.4278   0.99672471 
   54900    228.31016    331.46934    125484.48   -39964.266    2840.6125   -42804.879      180.765   0.99529032 
   55000     224.1532    710.71971    125525.05   -40040.221    2788.8919   -42829.113    181.17794   0.99496865 
   55100    225.39951    513.46639    125535.01   -40027.749    2804.3985   -42832.148    181.96347   0.99488975 
   55200    219.48081    473.96691    125822.31   -40038.142    2730.7585   -42768.901    182.62075   0.99261805 
   55300     225.0909    568.75503    125895.56   -39989.276    2800.5587   -42789.834    182.99466   0.99204044 
   55400    224.52212    411.12485    125731.37   -39966.586     2793.482   -42760.068    182.82602   0.99333596 
   55500    222.12585     510.2759     125974.4   -39899.532    2763.6678     -42663.2    183.36773   0.99141964 
   55600    224.80677    410.77287    126242.84   -39942.988    2797.0236   -42740.012    184.06726   0.98931147 
   55700    224.58019    319.39456    126072.12   -39927.007    2794.2045   -42721.211    184.27331   0.99065116 
   55800     224.5883    609.89632    125959.88   -39910.194    2794.3054   -42704.499    184.39417   0.99153394 
   55900    225.48565    516.16656    126098.99   -39869.714    2805.4702   -42675.185    185.04794   0.99044003 
   56000    229.95545    315.84484    125811.88   -39859.675     2861.083   -42720.758    185.13282    0.9927003 
   56100    232.39563    362.43636    125777.39     -39829.8    2891.4435   -42721.243    185.30469   0.99297254 
   56200    227.82139    684.63943    125551.88   -39836.617    2834.5313   -42671.148    184.91289   0.99475608 
   56300    228.40723    394.20713    125614.93   -39882.791    2841.8202   -42724.611    185.18189   0.99425677 
   56400    229.82677    575.54466    125736.58   -39874.423     2859.482   -42733.905    185.81776   0.99329481 
   56500    226.43234    452.58236    125861.16    -39976.97    2817.2488   -42794.219    186.16921   0.99231164 
   56600    226.75549    574.79333    125899.35   -40002.074    2821.2694   -42823.343    186.89643   0.99201062 
   56700    221.51864    168.91083    125767.25   -40032.135    2756.1131   -42788.248    186.97726   0.99305258 
   56800    227.19984    552.23655    125884.54    -39970.97     2826.798   -42797.768    187.67316   0.99212733 
   56900    223.44623    397.48904    126049.52   -39941.048    2780.0959   -42721.144    188.08623    0.9908288 
   57000    228.34694    418.89781     126041.2   -39891.519      2841.07    -42732.59    188.59825   0.99089418 
   57100    223.86117    354.32448    125859.69   -39932.109    2785.2586   -42717.368    189.17688    0.9923232 
   57200    226.13714    431.04994    125660.14   -39971.557    2813.5759   -42785.133    189.30261   0.99389907 
   57300    220.39116    426.75622    125686.99   -40025.404     2742.085   -42767.489    189.71107   0.99368674 
   57400    222.36131    361.06075    125905.67   -40039.927    2766.5975   -42806.524    189.98908    0.9919608 
   57500    221.11889    138.21726    125870.71    -40094.62    2751.1394    -42845.76    190.39542   0.99223632 
   57600     223.1066    397.78583    125923.31   -40041.408    2775.8702   -42817.279    190.84274   0.99182184 
   57700     218.5013    668.79748    125971.91   -40095.632    2718.5715   -42814.203    191.22988    0.9914392 
   57800    219.46307    210.14421    125697.91   -40113.743    2730.5378   -42844.281    191.10219   0.99360038 
   57900    223.59065    604.21103    125777.15   -40087.801    2781.8928   -42869.694    191.69428   0.99297437 
   58000    218.67404    233.96034    125808.24   -40096.316    2720.7208   -42817.037    191.80543   0.99272899 
   58100    220.39494    255.47969    125847.88   -40024.943     2742.132   -42767.075    192.75625   0.99241636 
   58200    225.20119    360.46627    125705.11    -39975.52     2801.931   -42777.451    193.06354   0.99354348 
   58300    228.20496    437.40982    125452.09   -39910.445    2839.3036   -42749.748     193.3853   0.99554734 
   58400    222.19524     450.2972    125366.88   -39920.413    2764.5312   -42684.945    193.68118     0.996224 
   58500    229.66714     402.0126    125419.39    -39928.16    2857.4958   -42785.656    194.45481   0.99580686 
   58600    227.92944    553.89312    125542.21   -39869.801    2835.8756   -42705.677    195.06747   0.99483263 
   58700    229.30105    583.40381    125642.24   -39868.567     2852.941   -42721.508    195.51946   0.99404062 
   58800    232.49169    417.00111    125653.11   -39934.373    2892.6386   -42827.012    195.70435   0.99395464 
   58900    226.57895    446.00406     125616.4   -39992.763    2819.0729   -42811.836    195.86182   0.99424513 
   59000    221.34925    503.07311    125650.01   -39972.352    2754.0054   -42726.358    196.03707   0.99397915 
   59100    223.51935    265.56331    125630.52   -39968.357    2781.0057   -42749.363    196.52658   0.99413339 
   59200    225.90569    508.74015    125532.49   -39982.769    2810.6962   -42793.466    196.64516   0.99490972 
   59300    225.25201     158.1532    125599.09   -39968.716    2802.5632   -42771.279    196.63455   0.99438214 
   59400     220.5435    367.79808    125495.11    -40023.16    2743.9804   -42767.141    196.23936   0.99520602 
   59500    225.65424    589.03122     125712.4   -39984.705    2807.5678   -42792.272    196.65787   0.99348583 
   59600    221.80669    440.66105    125551.76   -39974.561    2759.6969   -42734.258    196.97827   0.99475697 
   59700    224.94119    422.84914     125553.7   -40007.419     2798.696   -42806.115    197.54709   0.99474159 
   59800    223.37065    575.06682    125718.05   -39998.782    2779.1555   -42777.937    198.21852   0.99344122 
   59900    226.97818    343.31411    125646.24   -39993.839    2824.0401   -42817.879    198.02778   0.99400898 
   60000    224.91847    636.39282    125970.84    -40039.76    2798.4134   -42838.173    198.73746   0.99144767 
   60100    225.98034    319.29936    125991.41   -40015.795     2811.625    -42827.42    198.89234   0.99128573 
   60200    221.67673    360.19123    125921.62    -40006.56      2758.08    -42764.64    198.80376   0.99183514 
   60300    222.73705    292.73068    125946.34     -39964.7    2771.2724   -42735.973    199.01888   0.99164053 
   60400    226.73518    478.17667    125931.22   -39906.573    2821.0167   -42727.589    198.96856   0.99175956 
   60500    226.36952    498.19211    126099.34   -39950.548    2816.4672   -42767.016    199.48703   0.99043734 
   60600    225.06048    397.50923    126058.92    -40000.22    2800.1803     -42800.4    200.04085   0.99075487 
   60700    225.24441    568.45722    126005.98   -40016.316    2802.4687   -42818.784    200.10023   0.99117117 
   60800    225.68854    506.35352    125935.42   -39963.659    2807.9945   -42771.654    200.21431   0.99172651 
   60900    226.66685    273.32723    125831.77   -39952.579    2820.1665   -42772.745    199.80295   0.99254336 
   61000    226.37409    394.73038    125727.88    -39986.79    2816.5241   -42803.314    200.04893   0.99336353 
   61100    227.67823     489.0908    125596.67    -40026.58      2832.75    -42859.33    200.27242   0.99440128 
   61200     224.5025    563.20393    125689.67   -40006.174    2793.2379   -42799.412    200.55367   0.99366555 
   61300    223.26857    453.94884    125925.95   -39979.087    2777.8855   -42756.973    200.76933   0.99180105 
   61400    221.40891    455.93882    125860.67   -40011.374    2754.7478   -42766.122    201.24839   0.99231547 
   61500    224.36627    473.86766    125959.65    -40009.91    2791.5429   -42801.453    201.73738   0.99153569 
   61600    223.46366    459.80706     125905.9   -39980.561    2780.3127   -42760.874    201.72056   0.99195901 
   61700    225.55801    663.96673    125740.89   -40052.803    2806.3705   -42859.174    201.51985   0.99326076 
   61800    216.31433    288.15226    125837.24   -40110.921    2691.3615   -42802.283    201.85286   0.99250026 
   61900     222.6245    553.78655    125821.33   -40049.098     2769.872    -42818.97    201.71655   0.99262572 
   62000     221.8606    304.55357    125873.43   -39993.615    2760.3677   -42753.982    202.09767   0.99221487 
   62100    219.69317    648.89203    125783.85    -39989.56    2733.4007    -42722.96    202.57302   0.99292148 
   62200    225.39417    255.66188    125902.66   -39940.249     2804.332   -42744.581    202.75534   0.99198456 
   62300    222.02991    481.07676    125726.71   -39976.921    2762.4741   -42739.395    203.19065   0.99337276 
   62400    224.85224    567.70783    125912.51   -39923.027    2797.5893   -42720.616    203.90775   0.99190693 
   62500    226.03017    392.33602     125956.5   -39942.318    2812.2451   -42754.563    204.88726   0.99156052 
   62600    224.38954    264.82292    126014.51   -39947.672    2791.8325   -42739.504    205.41269   0.99110403 
   62700    226.12497    447.42415    125900.79    -39983.63    2813.4245   -42797.054    205.93708   0.99199925 
   62800    225.83558    509.11674    125950.72    -39968.98     2809.824   -42778.804    206.63928   0.99160599 
   62900    225.09262    378.23406    125963.97   -39919.869    2800.5801   -42720.449    206.83303   0.99150169 
   63000    223.70894    364.14327     125786.7   -39878.862    2783.3645   -42662.227    206.68567     0.992899 
   63100    228.60968    472.53007    125680.42   -39863.699     2844.339   -42708.038    206.86273   0.99373864 
   63200    223.34578    500.03051     125709.6   -39892.633    2778.8461   -42671.479    206.70636   0.99350797 
   63300    222.02688     271.5738    125642.39   -39928.183    2762.4365    -42690.62    206.83018   0.99403945 
   63400    227.86651    531.33863    125765.02   -39845.704    2835.0925   -42680.796    207.86801   0.99307018 
   63500    229.62476    372.14029    125683.74   -39950.915    2856.9686   -42807.883    208.13286   0.99371239 
   63600      224.731    522.07309    125735.71   -39959.458    2796.0809   -42755.539    208.06846   0.99330169 
   63700    227.01976    345.98624    125891.01   -39972.163    2824.5575   -42796.721    208.04532    0.9920763 
   63800    220.19003    417.64206    125897.02   -40099.883    2739.5825   -42839.466    208.34163   0.99202898 
   63900    219.74223    430.52925    125994.72   -40086.797    2734.0111   -42820.808    208.62564   0.99125972 
   64000    218.92012    393.19823    125949.14   -40076.409    2723.7825   -42800.191    209.21886   0.99161843 
   64100    229.43169    367.75278    125999.36   -40000.354    2854.5664   -42854.921    209.64219   0.99122325 
   64200    228.01542    473.56903    126120.34    -40000.78    2836.9453   -42837.725    209.74481   0.99027239 
   64300    233.17839    596.12255    126253.42   -39918.743    2901.1825   -42819.926    210.19036    0.9892286 
   64400    227.96914    332.31568    126047.47   -39938.216    2836.3695   -42774.585    210.46068   0.99084491 
   64500    228.08069    399.02263     126115.6   -39912.522    2837.7574    -42750.28      210.509    0.9903096 
   64600    223.68961    381.75788    125999.31    -39965.09     2783.124   -42748.214    210.78579   0.99122363 
   64700    226.54724    459.17484    125800.95   -39977.937    2818.6784   -42796.615    210.94758   0.99278652 
   64800    223.96784    344.92818    125733.02   -40008.199    2786.5858   -42794.785    211.30415   0.99332295 
   64900    223.44286    605.44523     126060.7   -39975.945    2780.0539   -42755.999    212.01426   0.99074093 
   65000    228.14975    452.75032    126139.21   -39932.293    2838.6166   -42770.909    212.28369   0.99012423 
   65100    224.29045    518.01669    126074.64   -39957.482    2790.5996   -42748.082    212.44621   0.99063136 
   65200    224.72965    551.63624    125997.84   -39945.396    2796.0641    -42741.46    212.56527   0.99123517 
   65300     229.6443      569.257    126008.32   -39946.003    2857.2117   -42803.215    213.32113   0.99115273 
   65400    228.22009    628.05292    126067.27   -39892.174    2839.4918   -42731.665    213.65718   0.99068927 
   65500    227.11312    611.79166    126192.24   -39980.729     2825.719   -42806.448    214.69767   0.98970821 
   65600    222.78784    370.63942    126154.38   -40024.996    2771.9043     -42796.9    215.27982   0.99000516 
   65700    223.68384    431.95251    126073.22    -40071.77    2783.0522   -42854.822    215.56031   0.99064251 
   65800    222.42491    414.65564    125937.07   -40067.949    2767.3888   -42835.337    215.65969   0.99171352 
   65900    227.30685    560.38718     125861.2   -40032.131    2828.1294    -42860.26    216.02828   0.99231129 
   66000    227.80923    543.70288    125788.07   -39941.467    2834.3799   -42775.847     215.7532   0.99288818 
   66100    229.44524    507.22799    125944.46   -39881.347     2854.735   -42736.082    215.88982   0.99165527 
   66200    226.83281    530.43246    126073.36   -39869.516    2822.2313   -42691.747    216.76466   0.99064144 
   66300    229.92462    604.00096    126200.02   -39917.608    2860.6993   -42778.307    217.05656   0.98964714 
   66400    226.20678     491.3074    126023.33   -39982.596    2814.4423   -42797.039    217.30231   0.99103466 
   66500    226.20193    433.86626    125946.35   -39991.054     2814.382   -42805.436    217.77059    0.9916404 
   66600    224.47889     578.0593    125940.21   -39998.346    2792.9442    -42791.29    218.36513    0.9916888 
   66700    223.35051    383.44269    126032.92   -40035.993    2778.9049   -42814.898    218.95994   0.99095927 
   66800    220.82349     495.1348    125884.01   -39966.036    2747.4641     -42713.5    218.38701   0.99213149 
[...]
   84600     221.3005     239.4295    125727.11   -40033.518    2753.3989   -42786.917      264.496   0.99336959 
   84700    225.03598     447.5633    125554.49   -40043.119    2799.8754   -42842.994    264.21457    0.9947354 
   84800    225.78225    538.56519    125664.07   -40016.613    2809.1604   -42825.774    264.75348   0.99386791 
   84900    224.05339    411.47207       125727   -40001.775    2787.6502   -42789.425    264.55464   0.99337046 
   85000    222.85188     264.3913    125664.94   -39959.437     2772.701   -42732.138    264.91038   0.99386106 
   85100    223.13859    407.58515    125649.33   -39963.772    2776.2683    -42740.04    265.21935   0.99398451 
   85200    223.40109     607.7741    125750.59   -39970.283    2779.5343   -42749.817    265.83926    0.9931841 
   85300    222.09768     491.4504    125820.37   -39983.237    2763.3174   -42746.554    266.42501   0.99263329 
   85400    221.94968    460.51927    125812.59   -39949.747    2761.4759   -42711.223    266.90796   0.99269471 
   85500    222.48324    495.42776    125916.73   -39914.957    2768.1144   -42683.072    267.54413   0.99187365 
   85600    225.94834    538.98403    125777.15   -39883.456    2811.2269   -42694.683    267.51702   0.99297439 
   85700    223.80975     393.1789     125765.5    -39932.75    2784.6188   -42717.369    267.41409   0.99306642 
   85800    218.53062    539.50064    125818.16   -39927.319    2718.9364   -42646.255    267.62276   0.99265077 
   85900    225.78665    605.87426    125916.53   -39810.641    2809.2151   -42619.856    267.68645   0.99187526 
   86000    226.97019    347.35268    125879.08   -39843.886    2823.9407   -42667.827    268.14751   0.99217032 
   86100    225.31113    488.43031    125723.06   -39839.791    2803.2988    -42643.09    268.60628    0.9934016 
   86200    222.30418    525.50775    125715.38   -39807.674    2765.8867   -42573.561    268.83878   0.99346234 
   86300    225.64114    432.32432    125671.29   -39843.846    2807.4047   -42651.251    269.37361   0.99381086 
   86400    227.68256    316.34538    125537.62   -39879.014    2832.8039   -42711.818    269.14881   0.99486905 
   86500    227.96058    534.71645    125750.06   -39874.221     2836.263   -42710.484    269.42844   0.99318834 
   86600    226.05519    504.73329    125687.11   -39811.383    2812.5563   -42623.939    269.76898   0.99368572 
   86700    229.55893    459.66027     125535.7   -39807.093    2856.1495   -42663.242     269.4899   0.99488423 
   86800    224.04425    206.53625    125528.22   -39896.438    2787.5364   -42683.975    270.23848   0.99494353 
   86900    229.15072        494.2    125394.51   -39865.215    2851.0706   -42716.286    270.45536   0.99600448 
   87000    228.87232    107.94407    125157.04   -39862.365    2847.6068   -42709.972    270.82018   0.99789422 
   87100    226.09901    433.43307    125143.17   -39906.098    2813.1015     -42719.2    270.47143   0.99800486 
   87200    224.73399    512.57912    125323.12   -39901.393    2796.1181   -42697.511    270.97259    0.9965718 
   87300    223.20085    322.16616    125384.63   -39909.719     2777.043   -42686.762    271.07827   0.99608296 
   87400    227.64711    466.40171    125255.84   -39896.912    2832.3628   -42729.275    271.62299   0.99710714 
   87500    222.95287    410.61292    125407.09   -39881.933    2773.9575    -42655.89    272.35273   0.99590458 
   87600    222.10976    548.61342    125406.62   -39873.948    2763.4677   -42637.416    272.35925   0.99590832 
   87700    223.78411    442.56507    125256.45   -39863.118    2784.2998   -42647.418     272.4569   0.99710224 
   87800     223.0435    465.14002    125485.72   -39835.638    2775.0851   -42610.723    272.91839   0.99528054 
   87900    226.30941    538.24037    125548.11   -39873.445    2815.7194   -42689.165    273.18615   0.99478588 
   88000    223.84475    271.39164    125596.94   -39910.321    2785.0542   -42695.375     273.7009   0.99439917 
   88100    227.70585    475.00235    125451.32   -39844.794    2833.0936   -42677.887    274.11979    0.9955534 
   88200    228.96416    491.15291    125315.29   -39839.928    2848.7494   -42688.677    274.65854   0.99663408 
   88300    223.46274    720.85864    125540.74   -39889.657    2780.3013   -42669.959    275.21582   0.99484434 
   88400    217.03854    434.68857    125166.25   -40015.555    2700.3721   -42715.927    275.25999   0.99782081 
   88500     224.5204    473.58261    125019.62   -39907.404    2793.4606   -42700.865    274.82721   0.99899114 
   88600    223.21183    543.22723    125218.87   -39858.665    2777.1796   -42635.844    274.98069   0.99740154 
   88700    226.48716    344.65269    124969.82   -39826.148    2817.9308   -42644.079    274.62743   0.99938924 
   88800    227.02599    565.72343    124968.95   -39763.542     2824.635   -42588.177    274.85932   0.99939616 
   88900    222.30487    381.63321    125092.84   -39794.496    2765.8952   -42560.391    275.07472    0.9984064 
   89000    227.67618    598.09939    125355.31   -39762.485    2832.7245   -42595.209    275.78531    0.9963159 
   89100    225.13037    403.96457    125216.65   -39865.236    2801.0498   -42666.286     276.3813   0.99741919 
   89200    224.16389    261.39578     125178.5   -39906.165     2789.025    -42695.19    277.14155   0.99772322 
   89300    225.55122    574.28521    125202.95   -39927.329     2806.286   -42733.615    277.74556   0.99752831 
   89400    224.14363    436.66163    125151.44   -39973.227    2788.7729       -42762    277.82308   0.99793893 
   89500    217.31017    378.42652    125082.51   -40030.325    2703.7516   -42734.077     277.7897   0.99848883 
   89600    220.58187    565.22307    125104.14   -40052.777    2744.4579   -42797.235    278.30083   0.99831625 
   89700    217.97311    287.02489    125165.42   -40014.431    2711.9999   -42726.431    279.10403   0.99782747 
   89800    219.97534    343.35658    125020.43   -39973.876    2736.9115   -42710.787    279.48697   0.99898462 
   89900     220.7685    617.16757    125011.22   -40026.594    2746.7798   -42773.374    279.47336   0.99905829 
   90000    225.48449    590.64374    125066.66   -39929.635    2805.4557   -42735.091    279.40676   0.99861538 
   90100     221.4648     422.3687    125070.53   -39921.225    2755.4432   -42676.669    279.52353   0.99858453 
   90200    219.77878    449.29974    125175.61   -39952.697    2734.4659   -42687.163    279.98561   0.99774625 
   90300    222.79405    281.03637    125133.79   -39955.403    2771.9816   -42727.385    279.90981   0.99807965 
   90400    222.87908     525.1253    125424.12   -39948.797    2773.0395   -42721.837    280.84952   0.99576934 
   90500    223.39066    439.38636    125302.01   -39926.011    2779.4045   -42705.415    280.82541    0.9967397 
   90600    229.43889    505.93338    125126.89   -39843.565     2854.656   -42698.221    280.56668    0.9981347 
   90700    228.68048    380.34366    125450.71   -39863.039    2845.2199   -42708.259    280.90163   0.99555826 
   90800    226.78815    562.97399    125380.82   -39896.178    2821.6757   -42717.853    281.90373   0.99611325 
   90900    222.54519    519.86326    125180.73   -39996.197    2768.8853   -42765.082    281.47692   0.99770539 
   91000     220.3372    411.72561    125257.72   -40000.279    2741.4137   -42741.693    281.17702   0.99709216 
   91100    222.00558    463.79442    125165.11   -39974.571    2762.1715   -42736.743    281.57061   0.99782994 
   91200    222.00911    592.10789    125217.92   -39930.615    2762.2154   -42692.831    281.71254   0.99740912 
   91300    227.39819    603.18711     125257.5   -39815.189    2829.2658   -42644.455    281.92516   0.99709393 
   91400    227.14696    479.81679    125586.76   -39809.784      2826.14   -42635.924    282.77768   0.99447973 
   91500    227.69735    316.87079    125812.31   -39830.825     2832.988   -42663.813    283.13449   0.99269689 
   91600    225.93791    435.35065    125885.91   -39881.183    2811.0972    -42692.28    283.48458   0.99211656 
   91700    223.53009    432.22237    125562.42   -39974.763    2781.1393   -42755.902    283.94713   0.99467253 
   91800    222.19924    501.26637    125560.71   -39933.782    2764.5809   -42698.363    283.71358   0.99468611 
   91900    223.99426    408.43972     125931.3   -39930.796    2786.9144   -42717.711    284.72507   0.99175892 
   92000    224.40376    363.15196    125820.59   -39947.735    2792.0094   -42739.744    284.35956   0.99263156 
   92100    223.95689    462.01849    125681.63   -40001.759    2786.4495   -42788.209     284.3473   0.99372908 
   92200    227.78808    367.43413    125510.94   -39941.505    2834.1167   -42775.622    284.11087    0.9950805 
   92300    223.72644    337.91823    125283.63   -39846.477    2783.5822   -42630.059     283.7414   0.99688597 
   92400    226.51233    359.66982    124980.77   -39833.639     2818.244   -42651.883    284.01504   0.99930167 
   92500    227.27454     285.5192    125003.81    -39862.62    2827.7274   -42690.347    284.97296    0.9991175 
   92600    225.56369    242.45435    125060.01   -39830.258    2806.4411     -42636.7    285.03284   0.99866852 
   92700    223.91527     526.5948     124881.5    -39816.87    2785.9317   -42602.802    284.92936     1.000096 
   92800    222.36924    474.32818     124948.9   -39847.971    2766.6961   -42614.667    285.35499   0.99955654 
   92900    230.81513     510.6353     124989.1   -39823.567    2871.7791   -42695.346    285.78653   0.99923505 
   93000    224.99767    519.95177    125119.76    -39856.39    2799.3988   -42655.789    286.48723    0.9981916 
   93100    229.11633    507.16723    125172.28   -39811.829    2850.6428   -42662.472    286.93415   0.99777272 
   93200    226.97837    595.80764       125331   -39836.866    2824.0425   -42660.909    287.54737   0.99650914 
   93300    223.57893    642.34594    125325.09    -39863.45     2781.747   -42645.197    288.15115   0.99655615 
   93400    223.33351    413.39295     125090.8   -39888.692    2778.6935   -42667.386     288.0244   0.99842268 
   93500    222.38096    519.93891     124918.9   -39925.636    2766.8419   -42692.478    288.07531   0.99979658 
   93600    221.68729     386.6151    125062.98   -39985.084    2758.2114   -42743.295    288.69024   0.99864481 
   93700    223.02266    587.49044    125050.72   -39958.801    2774.8259   -42733.627    288.71823   0.99874267 
   93800    223.55939    452.00893    125214.75   -39928.646    2781.5039    -42710.15    289.01766   0.99743432 
   93900    224.93418    370.34549    125159.06   -39904.921    2798.6089    -42703.53    289.69007   0.99787819 
   94000    225.22417    624.43595    125101.11   -39917.115    2802.2169   -42719.332    290.54458   0.99834041 
   94100    223.06375    404.49752    125170.86   -39916.244    2775.3372   -42691.581    291.25822   0.99778412 
   94200     220.3921     483.4915    124982.76   -39905.873    2742.0967    -42647.97    290.87348   0.99928578 
   94300    226.04711    531.45924    125018.41   -39861.626    2812.4558   -42674.082    291.53515    0.9990008 
   94400    227.38706     402.1353    125031.35   -39857.125    2829.1274   -42686.252    291.73174   0.99889742 
   94500    226.19756    378.02069    125054.01   -39787.805    2814.3276   -42602.133    292.42422    0.9987164 
   94600    227.94889    415.76138    125093.92   -39836.925    2836.1176   -42673.042    292.81019   0.99839774 
   94700    222.83705    555.97986    125007.78   -39878.362    2772.5165   -42650.879    292.80428   0.99908572 
   94800    227.16926    388.05985    125054.93   -39893.245    2826.4175   -42719.663    293.63009   0.99870903 
   94900    223.40354    445.01558    124850.72   -39866.754    2779.5647   -42646.319    293.85442    1.0003426 
   95000    225.58219    622.63507    124942.55   -39829.254    2806.6714   -42635.925    293.85135   0.99960732 
   95100    225.79878    300.68885    124907.62   -39801.603    2809.3661   -42610.969    294.43754   0.99988688 
   95200    225.31912    212.89469    124728.74   -39795.371    2803.3983    -42598.77    294.56548    1.0013208 
   95300    229.13899    482.37053    124794.59    -39673.65    2850.9247   -42524.574    295.21782    1.0007925 
   95400    227.44192    339.60668    124722.75   -39719.739    2829.8099   -42549.549    295.00713    1.0013689 
   95500    228.30841    329.95756    124713.74   -39716.759    2840.5906   -42557.349     295.6124    1.0014413 
   95600    223.85936    510.43584    124765.73   -39699.507    2785.2361   -42484.743    295.57665     1.001024 
   95700    227.38458     327.7563    124864.79   -39764.568    2829.0965   -42593.665     295.4703    1.0002299 
   95800    223.82843    401.14293    124764.27   -39817.652    2784.8512   -42602.503    295.79963    1.0010357 
   95900    223.12131    469.52798    124636.55   -39765.857    2776.0533   -42541.911    295.71586    1.0020615 
   96000    222.49162    339.81488    124510.52   -39857.665    2768.2188   -42625.883    296.22556    1.0030758 
   96100    223.56213    562.80752    124730.33   -39809.385    2781.5379   -42590.923    296.88572    1.0013081 
   96200    222.03412    492.71402     124705.8   -39861.954    2762.5265   -42624.481    297.26698     1.001505 
   96300    226.31381    444.54558     124772.1   -39816.201     2815.774   -42631.975    297.45508    1.0009729 
   96400    227.53072    308.07196    124837.89   -39795.015    2830.9147    -42625.93    298.02126    1.0004454 
   96500    227.31534    432.55917    124944.63    -39848.55     2828.235   -42676.785    298.20894   0.99959073 
   96600     224.0282    426.93456    124921.14   -39842.938    2787.3367   -42630.275    298.91356   0.99977871 
   96700    225.25912    318.84579    124952.95   -39922.798    2802.6517   -42725.449    299.24737   0.99952416 
   96800    216.82805    242.86535    124752.68   -39970.905    2697.7532   -42668.658    299.11927    1.0011287 
   96900    222.14419    511.32467    124715.24   -39910.883     2763.896   -42674.779    298.87999    1.0014292 
   97000    222.46072    611.24591     124823.6   -39913.727    2767.8343   -42681.561    299.88966    1.0005599 
   97100    223.98289    442.52806    124814.67    -39909.81     2786.773   -42696.583    300.29181    1.0006315 
   97200    224.85036    592.57725    124757.35   -39919.311    2797.5659   -42716.877    300.71063    1.0010913 
   97300    220.61366    483.30838    124662.71   -39906.692    2744.8534   -42651.546    301.11303    1.0018513 
   97400     224.6336    501.17556     124732.5   -39913.708     2794.869   -42708.577    301.16724    1.0012907 
   97500     229.9955    633.71842    124892.04   -39817.675    2861.5813   -42679.257    302.37072    1.0000116 
   97600    223.64668    391.74062     124822.1   -39896.054    2782.5898   -42678.644     303.0197     1.000572 
   97700    227.78379    599.17111    124975.17    -39826.21    2834.0634   -42660.273    303.24313   0.99934642 
   97800    228.82206    569.74238    124986.52    -39802.49    2846.9814   -42649.471    303.67278   0.99925567 
   97900    227.05539    184.15289    124875.88   -39765.241    2825.0007   -42590.242    303.56002    1.0001411 
   98000    224.22499    493.26947    124782.18   -39776.096    2789.7852   -42565.881    303.34506     1.000892 
   98100    222.39128    399.89391     124712.2   -39836.434    2766.9703   -42603.405    303.64523    1.0014537 
   98200    225.14768    436.64629    124766.99   -39815.671    2801.2651   -42616.936    304.21531    1.0010139 
   98300    225.10489    199.21248     124731.2   -39829.927    2800.7328   -42630.659    304.15214    1.0013012 
   98400    218.65751    472.21559    124537.97   -39835.336    2720.5151   -42555.851    305.07336    1.0028548 
   98500      220.493    386.65966     124520.4   -39833.233    2743.3522   -42576.585    304.85567    1.0029962 
   98600     224.8849    516.53188    124430.97   -39859.579    2797.9957   -42657.574    305.34166    1.0037171 
   98700    221.77592     539.7295    124251.61   -39922.845     2759.314   -42682.159     305.9572     1.005166 
   98800    223.29974    559.37392    124211.18   -39899.736    2778.2733   -42678.009    305.82975    1.0054932 
   98900    221.11761    669.79892    124478.22   -39899.985    2751.1235   -42651.109     306.9201    1.0033361 
   99000    219.91122    302.52471    124445.99   -39940.175    2736.1136   -42676.289    307.10109    1.0035959 
   99100    226.67019    739.13576    124427.54   -39859.988    2820.2081   -42680.197    307.31398    1.0037448 
   99200    224.35798     449.9666    124656.23   -39869.391    2791.4397   -42660.831    307.65909    1.0019033 
   99300    224.74012    624.76686    124898.53   -39824.301    2796.1944   -42620.495    308.56975   0.99995966 
   99400    228.62823    460.49786    124826.49   -39789.413    2844.5698   -42633.982    308.64417    1.0005368 
   99500    231.98197     450.3928    124943.47   -39685.036    2886.2967   -42571.333    309.16722   0.99960002 
   99600    230.14213    391.08127    125053.51   -39705.926    2863.4056   -42569.332    310.28924   0.99872041 
   99700    227.08839    676.67794     124970.6   -39720.847    2825.4113   -42546.258    310.95592   0.99938302 
   99800    230.48121    519.47774    125267.31   -39737.384    2867.6245   -42605.009    311.62998   0.99701581 
   99900    222.08981    518.29828    125201.99   -39796.209    2763.2194   -42559.428    311.51953   0.99753602 
  100000    226.71275    264.57304    125208.87    -39803.73    2820.7376   -42624.467    311.99385   0.99748117 
  100100    225.77963    323.37173    125025.36   -39737.379    2809.1279   -42546.507    312.02092    0.9989453 
  100200    225.43107    360.94711    125039.68   -39739.084    2804.7911   -42543.875    312.79663   0.99883086 
  100300    231.44208    427.67202    125121.78    -39715.42    2879.5795       -42595    312.97245   0.99817547 
  100400    226.47514    196.82648    125081.31   -39755.861    2817.7814   -42573.642    312.97002   0.99849839 
  100500    233.47878     444.9854     124887.1   -39682.699    2904.9199   -42587.619    313.24045    1.0000511 
  100600    229.16668     468.6317    124824.88   -39776.388    2851.2692   -42627.657    313.73127    1.0005496 
  100630    222.95177    623.99711    124815.95   -39761.504    2773.9439   -42535.448    313.78762    1.0006212 
Loop time of 99.8767 on 6 procs for 100000 steps with 4175 atoms

Performance: 432.533 ns/day, 0.055 hours/ns, 1001.234 timesteps/s
98.7% CPU use with 6 MPI tasks x no OpenMP threads

MPI task timing breakdown:
Section |  min time  |  avg time  |  max time  |%varavg| %total
---------------------------------------------------------------
Pair    | 82.414     | 83.808     | 85.391     |  13.7 | 83.91
Neigh   | 5.2604     | 5.2821     | 5.3372     |   1.1 |  5.29
Comm    | 6.5799     | 8.219      | 9.6201     |  44.0 |  8.23
Output  | 0.15893    | 0.15972    | 0.16313    |   0.4 |  0.16
Modify  | 1.7606     | 1.7838     | 1.798      |   0.9 |  1.79
Other   |            | 0.624      |            |       |  0.62

Nlocal:        695.833 ave         706 max         686 min
Histogram: 1 0 1 0 1 1 0 0 1 1
Nghost:        1509.17 ave        1525 max        1489 min
Histogram: 1 0 0 0 2 1 0 0 0 2
Neighs:        0.00000 ave           0 max           0 min
Histogram: 6 0 0 0 0 0 0 0 0 0
FullNghs:      20155.7 ave       20424 max       19899 min
Histogram: 2 0 1 0 0 0 0 1 0 2

Total # of neighbors = 120934
Ave neighs/atom = 28.966228
Neighbor list builds = 5723
Dangerous builds = 0

undump              1
unfix               2
unfix               3
unfix               4


################################################
#######         Run Simulation         #########
################################################

reset_timestep      0
log                 log.run_${NAME}
log                 log.run_liquid_density_MLmW
