
# Create simulation box of size 50 x 50 x 50 Angstrom
#
lattice	            sc 1
Lattice spacing in x,y,z = 1.0000000 1.0000000 1.0000000
region 	            all block 0 50 0 50 0 50 units box
create_box          1 all
Created orthogonal box = (0.0000000 0.0000000 0.0000000) to (50.000000 50.000000 50.000000)
  1 by 2 by 3 MPI processor grid

# fill box with 4175 randomly distributed atoms
#
create_atoms        1 random 4175 63782 all
Created 4175 atoms
  create_atoms CPU = 0.001 seconds
mass                1 18.015

# Define potential
#
pair_style          sw
pair_coeff          * * ML_mW.sw mW
Reading sw potential file ML_mW.sw with DATE: 2019-02-27

# Run minimization
#
minimize            1.0e-8 1.0e-8 10000 1000
WARNING: Using 'neigh_modify every 1 delay 0 check yes' setting during minimization (../min.cpp:187)
Neighbor list info ...
  update every 1 steps, delay 0 steps, check yes
  max neighbors/atom: 2000, page size: 100000
  master list distance cutoff = 6.0032907
  ghost atom cutoff = 6.0032907
  binsize = 3.0016454, bins = 17 17 17
  1 neighbor lists, perpetual/occasional/extra = 1 0 0
  (1) pair sw, perpetual
      attributes: full, newton on
      pair build: full/bin/atomonly
      stencil: full/bin/3d
      bin: standard
Per MPI rank memory allocation (min/avg/max) = 4.255 | 4.258 | 4.261 Mbytes
Step Temp E_pair E_mol TotEng Press 
       0            0    7792709.3            0    7792709.3    5898794.3 
     630            0   -45180.336            0   -45180.336   -154.07449 
Loop time of 1.15309 on 6 procs for 630 steps with 4175 atoms

98.8% CPU use with 6 MPI tasks x no OpenMP threads

Minimization stats:
  Stopping criterion = max force evaluations
  Energy initial, next-to-last, final = 
      7792709.32924461  -45180.0188663597   -45180.336116598
  Force two-norm initial, final = 2.0191930e+08 4.9721331
  Force max component initial, final = 1.0948746e+08 0.73126211
  Final line search alpha, max atom move = 0.053306038 0.038980685
  Iterations, force evaluations = 630 1000

MPI task timing breakdown:
Section |  min time  |  avg time  |  max time  |%varavg| %total
---------------------------------------------------------------
Pair    | 0.90812    | 0.98587    | 1.0466     |   5.2 | 85.50
Neigh   | 0.024142   | 0.024628   | 0.025336   |   0.2 |  2.14
Comm    | 0.061855   | 0.12253    | 0.20072    |  14.8 | 10.63
Output  | 0          | 0          | 0          |   0.0 |  0.00
Modify  | 0          | 0          | 0          |   0.0 |  0.00
Other   |            | 0.02006    |            |       |  1.74

Nlocal:        695.833 ave         704 max         685 min
Histogram: 1 1 0 0 1 0 0 1 0 2
Nghost:        1494.17 ave        1515 max        1468 min
Histogram: 1 1 0 0 0 0 1 1 1 1
Neighs:        0.00000 ave           0 max           0 min
Histogram: 6 0 0 0 0 0 0 0 0 0
FullNghs:      19997.0 ave       20462 max       19320 min
Histogram: 1 1 0 0 0 0 0 2 0 2

Total # of neighbors = 119982
Ave neighs/atom = 28.738204
Neighbor list builds = 26
Dangerous builds = 0

# Add velocity/set timestep
#
velocity            all create ${TEMP} 120598 rot yes dist gaussian
velocity            all create 215 120598 rot yes dist gaussian
timestep            5.0

# Define output
#
compute	            1 all msd
thermo	            100
thermo_style        custom step temp press vol etotal ke pe c_1[4] density

# Neighbor lists
#
neigh_modify        delay 0 every 1 check yes

# Set fixes
#
fix                 1 all momentum 10 linear 1 1 1 rescale
fix                 2 all nve
fix                 3 all temp/csvr ${TEMP} ${TEMP} 500.0 928347
fix                 3 all temp/csvr 215 ${TEMP} 500.0 928347
fix                 3 all temp/csvr 215 215 500.0 928347
fix                 4 all press/berendsen iso ${PRES} ${PRES} 1000.0 modulus 20000
fix                 4 all press/berendsen iso -700 ${PRES} 1000.0 modulus 20000
fix                 4 all press/berendsen iso -700 -700 1000.0 modulus 20000

# Run 0.5 ns equilibration
#
dump                1 all custom 1000 eq.${NAME}.dump id type x y z vx vy vz
dump                1 all custom 1000 eq.liquid_density_MLmW.dump id type x y z vx vy vz
run                 100000
Per MPI rank memory allocation (min/avg/max) = 3.506 | 3.508 | 3.511 Mbytes
Step Temp Press Volume TotEng KinEng PotEng c_1[4] Density 
     630          215    824.17143       125000   -42505.327    2675.0087   -45180.336 2.7295415e-33   0.99914793 
     700    137.14581    -549.5572    126098.15   -41676.639    1706.3546   -43382.994    0.2532062   0.99044664 
     800    167.45355   -826.51227    126434.94    -40925.44    2083.4406    -43008.88    0.5760728   0.98780836 
     900    187.88905   -652.74638    126734.13   -40496.797     2337.697   -42834.494   0.97861168    0.9854764 
    1000    200.58097   -606.54291    127076.85   -40234.226    2495.6086   -42729.835    1.3819169   0.98281857 
    1100    205.06095   -744.50628    126959.64   -40062.788    2551.3481   -42614.136    1.7515119   0.98372596 
    1200    205.95689   -868.74121    127043.58   -40099.375    2562.4952    -42661.87    2.0969751   0.98307601 
    1300    209.32165   -676.71094    127140.84   -40086.693    2604.3592   -42691.052    2.3908517   0.98232396 
    1400    212.16484   -611.44816    127619.12   -40095.352    2639.7339   -42735.086    2.6640843   0.97864246 
    1500    213.94688   -681.27385    127808.46   -40060.011    2661.9059   -42721.917    3.0171632   0.97719269 
    1600    212.19959    -582.4693    127818.08   -39979.612    2640.1663   -42619.778    3.3365391   0.97711912 
    1700    215.47784   -621.44647    127767.63   -40026.906    2680.9539    -42707.86    3.6589014   0.97750494 
    1800    213.10411   -836.79411    128063.74   -40119.039    2651.4202   -42770.459    3.9215161   0.97524478 
    1900    213.77285   -744.70191    128091.62   -40116.799    2659.7406    -42776.54    4.1700134   0.97503252 
    2000    216.40179   -777.87493    128265.33   -40089.952    2692.4497   -42782.402    4.3514729     0.973712 
    2100    215.26067   -654.68045    128569.39   -40063.682     2678.252   -42741.934    4.7205464   0.97140924 
    2200    219.16611   -597.28903    128873.52   -40123.222    2726.8431   -42850.066    4.9982406   0.96911675 
    2300    214.69314   -783.82038    128941.46   -40138.273    2671.1909   -42809.463    5.2785409   0.96860613 
    2400    219.65448   -702.45675    128911.73   -40167.309    2732.9193   -42900.229    5.4399485   0.96882951 
    2500    219.14093   -772.30144    129246.83    -40139.86    2726.5298    -42866.39    5.6575993   0.96631761 
    2600    222.88686   -559.72724    129483.68   -40109.951    2773.1363   -42883.087    6.0241584   0.96455006 
    2700    220.04824   -748.17702    129476.36   -40140.683    2737.8185   -42878.502    6.3559608   0.96460462 
    2800    222.71429   -791.03203    129679.14   -40153.059    2770.9891   -42924.048    6.6714325   0.96309621 
    2900    220.08229   -700.54662    129863.34    -40267.24    2738.2421   -43005.482    6.8636915   0.96173018 
    3000    218.95576   -678.72116    130146.32   -40326.878     2724.226   -43051.104    6.8836168   0.95963905 
    3100    218.17337   -525.16418    130324.66   -40310.657    2714.4915   -43025.149     7.160638   0.95832584 
    3200     218.9209   -529.06746     130666.4   -40382.161    2723.7922   -43105.953     7.300693   0.95581949 
    3300    219.61766   -781.73804    130653.12   -40411.387    2732.4613   -43143.848    7.5418988   0.95591667 
    3400    213.46503   -762.30904     130661.4    -40471.73    2655.9108    -43127.64    7.5458917   0.95585607 
    3500    213.74677   -910.35647     130540.7   -40513.562    2659.4162   -43172.978    7.6872236   0.95673987 
    3600    215.19912   -591.84338    130790.46   -40552.352    2677.4862   -43229.839    7.8804291   0.95491282 
    3700    210.29487   -466.04786    130764.64   -40616.177     2616.468   -43232.645    8.1218592    0.9551014 
    3800    213.44925    -570.2168    130992.69   -40573.105    2655.7145    -43228.82    8.2183196   0.95343863 
    3900    211.02094     -772.305    130928.53   -40596.535    2625.5016   -43222.037    8.4038945   0.95390588 
    4000    212.18472   -788.44898    130924.97   -40593.575    2639.9813   -43233.557    8.6290053   0.95393176 
    4100    213.56617    -792.0025    130930.42   -40589.358    2657.1692   -43246.527    8.7544197   0.95389207 
    4200    215.67591   -776.66578       131000   -40589.722    2683.4183   -43273.141    8.7904609   0.95338544 
    4300    216.20988   -838.35696    131131.53   -40602.778    2690.0619    -43292.84    8.9217153   0.95242916 
    4400    212.25591   -653.32269    131041.73   -40604.293     2640.867    -43245.16     9.129912    0.9530818 
    4500    216.10628   -745.77463    130851.15   -40626.283     2688.773   -43315.056    9.2405367   0.95446993 
    4600    213.15349   -805.62384    130782.51   -40657.153    2652.0346   -43309.187    9.3812231   0.95497091 
    4700    214.62173   -693.16586    130876.43   -40599.219    2670.3024   -43269.522    9.6322012   0.95428563 
    4800    212.44714   -716.84204    130950.59   -40676.382    2643.2463   -43319.628    9.7213424   0.95374519 
    4900    220.60637   -433.52296    130998.03   -40574.633    2744.7627   -43319.396    9.7022185   0.95339977 
    5000    221.54421   -645.61157    131144.07   -40542.139    2756.4312    -43298.57    9.8575248   0.95233805 
    5100    219.49997   -634.27634    131114.92   -40634.378    2730.9969   -43365.375    10.062128   0.95254981 
    5200    216.91931   -677.67987    131195.52   -40708.279    2698.8886   -43407.167    10.062427   0.95196459 
    5300    217.61082   -671.83364    131380.23   -40702.062    2707.4923   -43409.554    10.357899   0.95062618 
    5400    217.30682   -598.80368    131603.05   -40756.414      2703.71   -43460.124    10.587585   0.94901671 
    5500    215.58512   -499.33406    131758.21   -40766.998    2682.2887   -43449.287    10.836724   0.94789909 
    5600    217.75704   -516.26033    131708.59   -40778.155    2709.3115   -43487.467    11.217073   0.94825621 
    5700    216.13611   -624.13197    131840.77   -40772.688    2689.1441   -43461.833    11.181247   0.94730554 
    5800    214.67491   -663.59319    131971.44   -40816.448     2670.964   -43487.412      10.9936   0.94636754 
    5900    216.34584   -611.89035    132022.06   -40862.227    2691.7535   -43553.981    11.113107   0.94600468 
    6000    213.77102   -732.57316    131887.49   -40879.646    2659.7179   -43539.364    11.208679   0.94696996 
    6100    218.33542   -486.19905    131872.23   -40824.699    2716.5077   -43541.207    11.366597   0.94707953 
    6200     211.9376   -556.48998    131963.13   -40874.315    2636.9067   -43511.222    11.449821   0.94642717 
    6300    212.02046   -631.77442    131902.93    -40849.83    2637.9377   -43487.768    11.498441   0.94685909 
    6400    217.62161   -623.83557    132115.48   -40832.686    2707.6265   -43540.312     11.61012   0.94533575 
    6500    217.31886   -662.32558    132295.44   -40788.397    2703.8598   -43492.256    11.788134   0.94404983 
    6600    212.94149   -651.26247    132282.78   -40859.127     2649.397   -43508.524    11.750774   0.94414019 
    6700     213.0347   -747.09509    132226.01    -40929.02    2650.5566   -43579.577    11.910472   0.94454554 
    6800    215.85679   -694.52301    132240.81   -40856.571    2685.6688    -43542.24    12.092134   0.94443987 
    6900    217.00657   -762.82094    132206.16   -40806.625    2699.9743   -43506.599    12.080895   0.94468739 
    7000     216.8434   -732.47501    132282.85   -40794.733    2697.9441   -43492.677     12.19589   0.94413974 
    7100    216.20792   -699.36157    132415.67   -40819.656    2690.0376   -43509.693    12.116609   0.94319265 
    7200    217.27645   -719.17309     132346.8   -40873.708    2703.3321    -43577.04    12.091579   0.94368349 
    7300    211.87299   -700.85794    132347.99   -40939.265    2636.1028   -43575.368    12.306582   0.94367502 
    7400    211.51051   -654.96239    132536.36    -40962.67    2631.5929   -43594.263    12.380404   0.94233379 
    7500    212.50411   -724.89353    132555.33   -40931.244    2643.9551   -43575.199      12.2902   0.94219893 
    7600    209.03287   -609.40164    132555.93   -41010.755    2600.7663   -43611.521    12.376169   0.94219464 
    7700    212.87353   -691.52388    132661.15   -40916.672    2648.5514   -43565.223    12.399218    0.9414474 
    7800     216.3902     -570.079     132660.5   -40901.566    2692.3055   -43593.871    12.506403     0.941452 
    7900    210.77894   -681.43813    132648.36   -40971.429    2622.4908    -43593.92    12.672635   0.94153815 
    8000    212.36005   -462.91711     132904.9   -40941.759    2642.1627   -43583.922    12.767744   0.93972075 
    8100    210.41011   -783.59103    132858.49   -41012.484    2617.9018   -43630.386    12.892307   0.94004901 
    8200    211.19867   -665.67681    132862.87   -41018.841     2627.713   -43646.554    12.979886   0.94001802 
    8300    212.17765   -596.00295    132799.33   -41016.105    2639.8934   -43655.998    12.996668   0.94046777 
    8400    209.88937   -791.86832    132710.18   -40987.829    2611.4228   -43599.252    12.917339   0.94109956 
    8500    213.54298     -643.406    132964.95   -40919.215    2656.8806   -43576.095    13.133985   0.93929634 
    8600    214.28336   -609.63481    133079.53   -40932.066    2666.0924   -43598.158    13.213431   0.93848761 
    8700    212.94388   -751.41261    132939.46   -40907.009    2649.4267   -43556.435    13.272242   0.93947645 
    8800    212.64285   -632.17385     133067.7   -40936.573    2645.6813   -43582.254    13.362365   0.93857102 
    8900    212.80632   -789.14774    133073.63   -41023.079    2647.7152   -43670.795    13.388046   0.93852925 
    9000    217.48073   -573.53228    132781.06   -40988.981    2705.8737   -43694.855    13.424593   0.94059716 
    9100    210.59106   -768.52669     132772.1    -41047.72    2620.1532   -43667.874    13.420708   0.94066067 
    9200    216.93508   -772.81619    132860.02    -40956.93    2699.0849   -43656.015    13.506951    0.9400382 
    9300    211.43409   -709.21583    132766.39   -41005.891     2630.642   -43636.533    13.554716   0.94070114 
    9400    211.49117   -746.99226    132953.76   -40964.339    2631.3523   -43595.692    13.633019   0.93937541 
    9500    213.01167   -670.27581    133020.53   -40990.136    2650.2702   -43640.407     13.73691   0.93890388 
    9600    217.89146   -741.08891    133007.33   -40964.272     2710.984   -43675.256    13.875197   0.93899702 
    9700    219.10247   -633.70913    133162.19   -40913.267    2726.0513   -43639.319    13.768499   0.93790508 
    9800    213.95872   -663.92029    132933.78   -40993.242    2662.0532   -43655.295    13.811242   0.93951657 
    9900    214.72884   -607.46408    132949.18   -41073.253     2671.635   -43744.888    13.792857   0.93940775 
   10000    212.22323   -599.44968    133191.16   -41083.296    2640.4605   -43723.756    13.909013   0.93770104 
   10100    213.05515   -551.52472    133182.44   -41054.707    2650.8111   -43705.518    14.002644   0.93776248 
   10200    208.44075     -778.388    133129.16   -41119.828    2593.3992   -43713.228    14.054185   0.93813777 
   10300    213.41425    -691.8039    133160.33    -41116.84    2655.2791   -43772.119    14.124751   0.93791814 
   10400    215.75345   -577.46749    133205.63   -41063.359    2684.3831   -43747.742    14.094697   0.93759923 
   10500    214.11949   -699.72089     133452.6   -41055.946    2664.0536       -43720    14.216372   0.93586406 
   10600     218.6785   -748.30037    133406.02   -41008.122    2720.7762   -43728.898    14.251711   0.93619082 
   10700    219.33138   -746.47836    133514.28   -41008.022    2728.8994   -43736.921    14.270027   0.93543173 
   10800    220.04478   -615.72914    133599.21   -41010.935    2737.7754    -43748.71    14.482878   0.93483703 
   10900    218.19001   -648.50573    133637.87   -41045.011    2714.6986    -43759.71    14.534938   0.93456658 
   11000    216.58818   -791.78736    133686.55   -41055.142    2694.7687    -43749.91    14.727724   0.93422629 
   11100    212.73542   -627.86445    133534.46   -41104.134    2646.8331   -43750.967    14.702639   0.93529035 
   11200    215.80144   -744.48661    133460.16    -41096.74    2684.9802    -43781.72    14.737509   0.93581106 
   11300    219.69986   -729.33525    133471.17   -41103.823     2733.484   -43837.307    14.844442   0.93573386 
   11400    214.96627   -753.44912    133432.35   -41120.747     2674.589   -43795.336    14.877313   0.93600606 
   11500    211.65899   -689.22351    133628.75   -41147.997    2633.4403   -43781.437    15.009256   0.93463041 
   11600    212.69421   -629.91147    133638.08   -41152.344    2646.3204   -43798.664    15.082606   0.93456516 
   11700    215.99594   -587.75402     133648.7   -41056.016    2687.4002   -43743.416    15.208786   0.93449085 
   11800     216.2162   -636.60212    133706.77   -41125.682    2690.1406   -43815.822    15.421046   0.93408505 
   11900    210.94112   -741.67331    133661.45   -41139.992    2624.5085   -43764.501    15.430694   0.93440174 
   12000    213.52002   -795.60902    133553.02   -41147.974     2656.595   -43804.569    15.418982   0.93516035 
   12100    215.68911   -701.09189    133472.19   -41112.771    2683.5826   -43796.354    15.491498   0.93572672 
   12200    220.85312   -819.37222    133519.65   -41111.128    2747.8327   -43858.961    15.699915    0.9353941 
   12300    217.15763   -808.14753    133645.72   -41135.007    2701.8537   -43836.861     15.63055   0.93451174 
   12400    218.21598   -706.68498    133621.75   -41124.585    2715.0217   -43839.607    15.469086   0.93467935 
   12500    215.20349   -613.74895    133836.76   -41204.788    2677.5406   -43882.328    15.708409   0.93317779 
   12600    212.92133   -780.75673    133776.92   -41130.536    2649.1461   -43779.682    15.746912   0.93359523 
   12700    218.40765    -766.3292    133691.91   -41114.478    2717.4064   -43831.884    15.726058   0.93418882 
   12800    220.86123   -822.57369    133663.82   -41096.324    2747.9335   -43844.257    15.876111   0.93438516 
   12900    214.33835   -714.12058    133786.96   -41167.992    2666.7766   -43834.769    15.810143   0.93352512 
   13000    219.25414   -639.45871    133836.85   -41122.123    2727.9383   -43850.062     15.83769   0.93317715 
   13100    221.03628   -641.46257     133962.1   -41128.959    2750.1115    -43879.07     15.86299   0.93230469 
   13200    218.57756   -680.85231    134081.56   -41049.542    2719.5204   -43769.062    16.042865   0.93147402 
   13300    214.32215   -778.61131    134138.86   -41092.834     2666.575   -43759.409    15.992685   0.93107612 
   13400    216.28856   -769.70752    134108.01   -41170.013    2691.0409   -43861.053     16.08789   0.93129028 
   13500    216.90599   -695.62119    133908.87   -41200.165    2698.7229   -43898.888    16.209344   0.93267524 
   13600    212.43177   -644.41914    133939.66   -41224.091    2643.0551   -43867.146    16.208182   0.93246084 
   13700     209.0475   -740.18554    133896.44   -41217.961    2600.9483   -43818.909    16.269515   0.93276184 
   13800    220.16419   -609.47826    133897.48   -41157.754    2739.2611   -43897.015    16.208485   0.93275464 
   13900    215.81281   -679.59891    134109.78    -41209.99    2685.1216   -43895.112    16.154319     0.931278 
   14000    211.35352   -971.34698    133996.06   -41208.799    2629.6396   -43838.439     16.24195   0.93206838 
   14100    214.37527   -626.23742    133998.08    -41222.33    2667.2359   -43889.566    16.303258   0.93205432 
   14200    217.12221   -568.64993    134170.85   -41263.349     2701.413   -43964.762    16.457528   0.93085415 
   14300    213.54676   -569.29724    134225.85   -41302.728    2656.9276   -43959.655    16.434592   0.93047272 
   14400    216.21732   -772.95298    134193.01   -41281.158    2690.1545   -43971.312    16.453941    0.9307004 
   14500    215.41521   -596.82699    134246.99   -41222.379    2680.1748   -43902.553    16.638037   0.93032619 
   14600    214.43429   -684.82819    134198.31   -41241.855    2667.9702   -43909.826    16.429356   0.93066368 
   14700    215.74037    -696.8692    134169.84   -41282.659    2684.2203    -43966.88    16.315992   0.93086114 
   14800    214.11011   -693.58856    134058.69   -41322.139    2663.9368   -43986.075    16.453911   0.93163295 
   14900    208.12478   -586.40117    134019.79    -41383.83    2589.4679   -43973.298    16.545552   0.93190333 
   15000    210.69209     -670.649     134263.2   -41378.515    2621.4102   -43999.925    16.570995   0.93021388 
   15100    204.85418   -681.59792    134305.85   -41400.795    2548.7754   -43949.571    16.577286   0.92991845 
   15200    211.54071   -758.45445    134336.04   -41332.905    2631.9686   -43964.873    16.678173   0.92970951 
   15300    212.19514   -757.29305    134184.34   -41347.326    2640.1109   -43987.437    16.653373   0.93076055 
   15400    212.90892   -760.62506    134127.85   -41328.962    2648.9917   -43977.953    16.688732   0.93115258 
   15500    211.49423   -795.79738    134095.79   -41303.112    2631.3904   -43934.502    16.672678   0.93137517 
   15600    215.35244   -619.69262    134294.98    -41233.18    2679.3938   -43912.573    16.754924   0.92999371 
   15700    211.30721   -679.44138    134296.73   -41317.171    2629.0634   -43946.235    16.726946   0.92998165 
   15800    211.44205   -856.51406    134380.42   -41320.653     2630.741   -43951.394    16.774031   0.92940242 
   15900    210.03528    -637.9248    134350.92   -41349.813    2613.2381   -43963.051    16.952693   0.92960654 
   16000    217.87839   -648.05681    134350.05   -41295.883    2710.8214   -44006.704     16.96596   0.92961251 
   16100    217.28785   -718.46889    134187.64   -41241.956    2703.4739    -43945.43    16.937631   0.93073763 
   16200    211.87691   -726.60656    134275.22   -41306.286    2636.1516   -43942.438    16.981686   0.93013058 
   16300    214.56178   -689.87751    134332.37   -41321.812    2669.5565   -43991.368    17.135257   0.92973489 
   16400    212.12853   -746.79267    134630.02   -41226.155    2639.2822   -43865.437    17.352372   0.92767936 
   16500    215.79593   -761.54133    134433.19   -41224.335    2684.9116   -43909.247    17.340198    0.9290376 
   16600    220.24562   -684.64803    134495.64   -41208.509    2740.2742   -43948.783    17.222141   0.92860627 
   16700    217.24671   -723.21804    134487.08   -41240.659    2702.9621   -43943.621    17.305833   0.92866535 
   16800    218.90607    -667.3303    134423.54   -41232.689    2723.6077   -43956.296      17.2677   0.92910431 
   16900    210.87271   -641.62459    134393.87   -41201.084    2623.6574   -43824.741    17.354966   0.92930943 
   17000    214.96729   -898.39907    134278.38   -41226.913    2674.6017   -43901.515    17.403012    0.9301087 
   17100    217.95966   -576.08772    134390.94   -41151.743    2711.8325   -43863.575      17.3165   0.92932967 
   17200    218.97744   -818.99694    134367.38    -41166.52    2724.4956   -43891.016    17.459463   0.92949266 
   17300     218.7762   -614.97365    134482.19   -41224.665    2721.9918   -43946.657      17.5104   0.92869915 
   17400    218.28885   -615.84089    134568.38   -41235.627    2715.9284   -43951.555     17.50637    0.9281043 
   17500     217.1169   -589.11902    134621.23   -41219.645     2701.347   -43920.992     17.52415   0.92773992 
   17600    210.53579   -725.33813    134622.65   -41197.654    2619.4655    -43817.12    17.467886   0.92773016 
   17700    215.23742   -745.83096    134475.71   -41224.416    2677.9626   -43902.378    17.540967   0.92874387 
   17800    211.62699   -787.30372    134456.51   -41217.537    2633.0421   -43850.579    17.576159    0.9288765 
   17900    219.26047   -680.45843    134328.65   -41183.985     2728.017   -43912.002    17.681856   0.92976065 
   18000    216.25039   -682.16775    134260.24   -41136.054     2690.566    -43826.62    17.598098   0.93023438 
   18100    218.37959   -685.52975    134213.15   -41228.275    2717.0572   -43945.332    17.690958   0.93056078 
   18200    213.12607   -659.45342    134526.68    -41213.42    2651.6935   -43865.113    17.732937   0.92839199 
   18300    220.83671   -657.11268    134455.29   -41130.243    2747.6285   -43877.871    17.797648   0.92888494 
   18400    213.29449   -599.81467       134374    -41203.56     2653.789   -43857.349    17.873902   0.92944686 
   18500    216.83826   -663.35836    134375.21   -41161.469    2697.8802   -43859.349    17.760592   0.92943845 
   18600    213.28554   -701.86548    134278.11   -41207.721    2653.6776   -43861.399    17.912976   0.93011056 
   18700    218.34326   -677.54091    134351.91   -41177.552    2716.6052   -43894.158    18.017248    0.9295997 
   18800    219.72438   -758.49677    134242.93   -41158.185     2733.789   -43891.974    18.018942   0.93035435 
   18900    216.96955   -726.97611    134265.31   -41210.322    2699.5138   -43909.836    18.220364   0.93019923 
   19000    219.12364   -619.80772    134356.46   -41194.943    2726.3147   -43921.258    18.175635   0.92956817 
   19100    216.39768   -723.68954    134430.08    -41247.47    2692.3985   -43939.868    18.079091   0.92905911 
   19200    217.05629   -700.54409    134348.78   -41225.946    2700.5929   -43926.539    18.158188   0.92962132 
   19300     216.4612   -602.68499    134196.65   -41176.365    2693.1888   -43869.554    18.297572   0.93067519 
   19400    218.17223   -637.44178    134312.29   -41196.474    2714.4773   -43910.951    18.475932   0.92987387 
   19500     216.9544   -594.13441    134281.83   -41183.105    2699.3252    -43882.43    18.553754   0.93008485 
   19600    215.61063   -631.41237    134443.12   -41217.498    2682.6061   -43900.104     18.39063   0.92896903 
   19700    217.34141   -671.03917    134423.51    -41209.29    2704.1404   -43913.431     18.36243   0.92910455 
   19800    213.43207   -708.24733    134427.17   -41250.012    2655.5008   -43905.513     18.38954   0.92907922 
   19900    215.75776   -605.08375    134272.37   -41256.626    2684.4367   -43941.063    18.429537   0.93015033 
   20000    213.29042   -942.75446    134329.44   -41300.487    2653.7383   -43954.226    18.590366   0.92975514 
   20100     215.8986   -668.46823    134305.15    -41247.62     2686.189   -43933.809    18.558633   0.92992334 
   20200    212.76143   -661.54087    134334.78   -41295.885    2647.1566   -43943.041    18.564121   0.92971823 
   20300    216.26611    -674.6729    134195.93   -41325.706    2690.7616   -44016.467    18.538205   0.93068019 
   20400    212.49829   -720.88958    134377.92   -41326.596    2643.8827   -43970.478     18.52154   0.92941973 
   20500    212.61473   -714.42631     134460.4   -41301.315    2645.3315   -43946.647    18.464224   0.92884964 
   20600    212.98783   -664.75482     134531.6   -41327.407    2649.9736    -43977.38    18.512348   0.92835801 
   20700    214.77341   -578.63552    134719.36   -41263.756    2672.1896   -43935.945    18.725968   0.92706418 
   20800    214.26216   -673.88161    134587.63   -41254.198    2665.8286   -43920.026    18.834006   0.92797152 
   20900    210.81272   -700.26097     134558.6   -41299.805     2622.911   -43922.716    18.808175   0.92817172 
   21000    208.07653   -564.15771    134455.52   -41386.152    2588.8676    -43975.02    18.794143   0.92888332 
   21100    212.70238   -711.03636    134430.71   -41387.307     2646.422   -44033.729    18.880227   0.92905475 
   21200    214.04869   -578.19254    134381.36   -41376.872    2663.1726   -44040.045    18.968164   0.92939596 
   21300    212.48114   -752.52486    134337.91   -41380.082    2643.6693   -44023.751    18.859209   0.92969652 
   21400    213.15034   -730.35036    134411.62   -41326.217    2651.9954   -43978.213    18.811588   0.92918669 
   21500    214.93559   -810.23847    134304.79   -41322.062    2674.2074   -43996.269    18.937171   0.92992578 
   21600    216.20629   -694.69347    134399.74   -41258.115    2690.0173   -43948.132    19.042133   0.92926885 
   21700    215.49879   -711.36324    134270.81    -41233.98    2681.2146   -43915.194    18.992303   0.93016116 
   21800     216.2943   -566.82421    134307.55   -41224.831    2691.1123   -43915.944    18.979075   0.92990668 
   21900    215.78547   -783.80575    134226.58   -41243.107    2684.7815   -43927.888    19.135461   0.93046765 
   22000    213.39086   -632.67491     134345.8   -41285.615     2654.988   -43940.603    19.187011   0.92964192 
   22100    213.68056   -702.25668    134076.46   -41241.047    2658.5924    -43899.64    19.121766   0.93150944 
   22200    210.89978   -632.84266    134113.52   -41262.116    2623.9942   -43886.111    19.190192   0.93125208 
   22300     217.9139   -629.21049     134149.3   -41236.066    2711.2632    -43947.33    19.267174   0.93100367 
   22400    221.58293   -442.92093    134329.21   -41204.158    2756.9129   -43961.071    19.248497   0.92975674 
   22500    217.50326    -787.6068    134412.36   -41217.294    2706.1541   -43923.448    19.380945    0.9291816 
   22600    216.69283   -691.47587    134384.52   -41201.107    2696.0708   -43897.178    19.258795   0.92937409 
   22700    217.54839   -516.32786     134354.1   -41214.908    2706.7155   -43921.624    19.331304   0.92958452 
   22800    220.99267   -794.59559    134443.29   -41207.201     2749.569    -43956.77    19.358168   0.92896782 
   22900    214.58337   -749.50159    134551.94   -41251.408    2669.8251   -43921.233    19.306884   0.92821766 
   23000     218.7944   -660.59929    134553.67   -41235.759    2722.2182   -43957.977    19.530922   0.92820574 
   23100    209.93256   -718.56517    134526.56   -41337.269    2611.9602    -43949.23    19.583517   0.92839278 
   23200    213.77039   -654.67884    134485.79   -41291.901    2659.7101   -43951.611    19.522235   0.92867427 
   23300    209.94694   -685.56036    134621.34   -41324.554     2612.139   -43936.693    19.657281   0.92773915 
   23400    214.86903   -427.20962    134526.45   -41251.632    2673.3792   -43925.012    19.829282   0.92839358 
   23500    218.47822   -803.21691     134400.3   -41299.771    2718.2844   -44018.055    19.610991     0.929265 
   23600     216.4526   -794.07687    134395.36   -41284.965    2693.0818   -43978.047    19.623553   0.92929912 
   23700    213.38134   -656.37647    134376.34   -41333.258    2654.8695   -43988.128    19.660623   0.92943067 
   23800    213.98142   -516.84311    134463.74   -41385.231    2662.3357   -44047.567    19.770842   0.92882651 
   23900    212.18546   -648.70908    134578.56   -41391.798    2639.9905   -44031.789    19.728945    0.9280341 
   24000    213.76395   -826.29261    134535.36    -41323.73    2659.6299   -43983.359    19.824794    0.9283321 
   24100    215.89434   -662.61472    134393.67   -41317.843     2686.136   -44003.979     19.70112   0.92931084 
   24200    210.20874   -704.92339    134331.92   -41369.156    2615.3963   -43984.552    19.784357   0.92973803 
   24300    216.35978   -660.62578    134441.92   -41334.126    2691.9269   -44026.053    19.772676   0.92897733 
   24400    212.49332    -518.7403    134450.61   -41371.904    2643.8209   -44015.725    19.610006   0.92891723 
   24500    218.36719   -692.33633    134432.51    -41334.12     2716.903   -44051.023    19.640127   0.92904232 
   24600    210.88805   -699.85159     134542.8   -41314.303    2623.8483   -43938.151    19.742219   0.92828076 
   24700    216.25568   -768.79686    134769.43   -41332.913    2690.6318   -44023.544    19.870265   0.92671977 
   24800    213.12045   -748.27518    134638.85   -41325.122    2651.6236   -43976.746    19.946408   0.92761849 
   24900    214.66431   -617.94142    134662.85   -41284.165    2670.8321   -43954.997    19.910024    0.9274532 
   25000    217.38676   -698.70995    134649.86   -41272.054    2704.7046   -43976.758    20.004236   0.92754265 
   25100    214.89747    -867.8089    134846.06   -41275.508     2673.733   -43949.241    20.246706    0.9261931 
   25200    219.03628   -672.45055     134866.4    -41323.08    2725.2278   -44048.308    20.205064   0.92605344 
   25300     215.1578   -685.93506    134782.02   -41331.793    2676.9721   -44008.765    20.229507   0.92663315 
   25400     215.8262   -735.30362     134889.1   -41333.767    2685.2882   -44019.055    20.092988   0.92589759 
   25500    217.42923   -630.88992    134753.02   -41300.652     2705.233   -44005.885    20.061852   0.92683262 
   25600    217.60937   -730.73913    134688.61   -41384.434    2707.4743   -44091.908    20.134545   0.92727579 
   25700     210.6461   -654.04488    134690.09   -41401.946     2620.838   -44022.784    20.171538   0.92726564 
   25800    215.37502   -588.31702    134886.64   -41382.553    2679.6747   -44062.228    20.271282   0.92591449 
   25900    215.12069   -490.25638    134954.42   -41331.381    2676.5104   -44007.891    20.324709    0.9254494 
   26000    215.50624   -699.43549    135140.57   -41267.621    2681.3073   -43948.929    20.260874    0.9241747 
   26100     214.2613   -755.56914    135085.97   -41354.718    2665.8179   -44020.536    20.335775   0.92454823 
   26200     212.2388    -640.4453    135095.05    -41346.07    2640.6542   -43986.725     20.39227   0.92448604 
   26300    216.30478   -704.94922    135088.66   -41319.684    2691.2426   -44010.927    20.562475   0.92452983 
   26400    218.07609   -580.01326    135068.67   -41313.147    2713.2811   -44026.428    20.489216   0.92466665 
   26500     216.7915   -578.09652    135099.31   -41370.501    2697.2984   -44067.799    20.388694   0.92445693 
   26600    215.59242   -729.01451    135112.86   -41428.702    2682.3795   -44111.082    20.315991   0.92436418 
   26700    215.21143   -756.71372    135047.47   -41452.769    2677.6394   -44130.409    20.390011   0.92481178 
   26800    214.44477   -833.32949    134966.81   -41393.072    2668.1007   -44061.173    20.477592   0.92536446 
   26900    217.92193   -691.31969    134825.98   -41406.033    2711.3631   -44117.396    20.619019   0.92633107 
   27000    211.55822    -748.3242    134874.92   -41448.799    2632.1864   -44080.986    20.757307    0.9259949 
   27100      211.595   -767.60254    134983.78    -41453.74    2632.6441   -44086.384    20.717053   0.92524815 
   27200    212.73158   -866.53175    134906.55   -41463.945    2646.7853    -44110.73    20.774795   0.92577783 
   27300    207.15252   -748.59765    134855.98   -41497.665    2577.3712   -44075.036    20.706537   0.92612497 
   27400    217.33096   -700.18293    134889.66    -41449.02    2704.0103    -44153.03    20.720144   0.92589375 
   27500    214.33049   -769.90322    134901.92   -41383.326    2666.6787   -44050.005     20.76647   0.92580962 
   27600    215.99744    -675.7537    135067.49   -41416.121    2687.4188    -44103.54    20.930522   0.92467469 
   27700    216.27115   -615.80105     135084.4   -41421.452    2690.8243   -44112.276    20.862632   0.92455892 
   27800    216.30974   -762.89711    134993.94    -41359.88    2691.3044   -44051.184    20.915223   0.92517852 
   27900     212.1341   -616.10556    134892.27   -41374.104    2639.3515   -44013.456    20.866336   0.92587579 
   28000    213.38765   -826.97554     134717.4   -41414.084     2654.948   -44069.032    20.832527   0.92707764 
   28100    215.55233    -655.5002       134707   -41391.055    2681.8808   -44072.936    20.789563   0.92714925 
   28200    214.17162   -616.57567    134680.54   -41440.009    2664.7021   -44104.711    20.892125    0.9273314 
   28300    215.41548    -678.3628     134721.6   -41424.007    2680.1781   -44104.185    20.960646   0.92704875 
   28400    212.53753   -674.82432    134579.09   -41446.686    2644.3709   -44091.057    20.804178   0.92803043 
   28500    211.04571   -805.88776     134768.2   -41468.594    2625.8099   -44094.403    20.835002   0.92672817 
   28600    212.05002   -722.94744    134662.05   -41428.612    2638.3053   -44066.917    20.745846   0.92745873 
   28700    215.58606   -806.59689    134671.23   -41442.314    2682.3005   -44124.614    20.707362   0.92739549 
   28800    215.85122   -838.78023    134532.89   -41409.351    2685.5995   -44094.951    20.899502   0.92834912 
   28900    217.87609   -574.40478    134547.14   -41371.345    2710.7928   -44082.138    21.060418   0.92825081 
   29000    213.32477   -579.45931    134603.56   -41431.305    2654.1657   -44085.471    21.048583   0.92786174 
   29100    218.57024   -760.63328    134853.07   -41382.194    2719.4293   -44101.623    21.009793   0.92614498 
   29200    215.77384   -791.14114    134854.05   -41345.734    2684.6368   -44030.371     21.04474   0.92613826 
   29300     209.6198   -739.46485    134725.68   -41415.965    2608.0688   -44024.033    21.109162   0.92702068 
   29400    212.61505   -768.10283    134527.24   -41472.439    2645.3354   -44117.774     21.06358   0.92838811 
   29500    211.37297   -787.11455    134567.99   -41494.005    2629.8816   -44123.887    20.992341   0.92810701 
   29600    210.82545   -630.67008    134674.95   -41410.372    2623.0693   -44033.442    21.133199   0.92736985 
   29700    211.34892     -717.068    134637.04   -41452.138    2629.5823    -44081.72    21.264296   0.92763102 
   29800    212.21947   -595.41287    134734.35   -41417.336    2640.4136    -44057.75    21.254813   0.92696102 
   29900    213.91814   -695.29082     134712.6   -41449.115    2661.5484   -44110.663    21.086089    0.9271107 
   30000    217.49718   -675.01684       134736   -41429.279    2706.0785   -44135.358    21.084626    0.9269497 
   30100    216.89794   -722.17497    134678.01   -41422.144    2698.6228   -44120.766    21.099416   0.92734878 
   30200    210.73326   -750.47068    134651.67   -41432.562    2621.9223   -44054.484    21.153141   0.92753019 
   30300    214.83209   -810.93424    134614.86   -41401.902    2672.9196   -44074.821    21.116752   0.92778383 
   30400    213.02373   -738.51375    134792.01    -41387.52    2650.4202   -44037.941    21.196762   0.92656453 
   30500    216.43981   -623.60453    134946.78   -41401.081    2692.9227   -44094.004    21.428841   0.92550184 
   30600    215.96986   -605.38263    134922.67   -41398.196    2687.0757   -44085.272    21.416354   0.92566724 
   30700    213.66961   -661.32769    134890.57   -41419.427    2658.4562   -44077.883     21.35968   0.92588751 
   30800    215.13788   -746.45002    134960.36   -41360.172    2676.7242   -44036.896    21.283865   0.92540868 
   30900    215.43565   -692.27899    135013.99    -41473.15    2680.4291   -44153.579    21.306598   0.92504109 
   31000    216.21486   -713.09793    135021.01    -41517.51     2690.124   -44207.634    21.454762   0.92499304 
   31100    211.61508   -724.34055    134975.63   -41514.447    2632.8938   -44147.341    21.520385   0.92530401 
   31200     212.7982   -717.94607    134931.11   -41533.801    2647.6142   -44181.415     21.56874   0.92560929 
   31300    213.02591   -611.43307    134838.34   -41476.721    2650.4474   -44127.168    21.487471   0.92624612 
   31400    213.41313   -752.98643    134908.29       -41442    2655.2651   -44097.265    21.333961   0.92576586 
   31500    218.50175   -632.86811    135062.08   -41488.152    2718.5772   -44206.729    21.483919   0.92471174 
   31600    216.11707   -668.96441    135154.12   -41425.654    2688.9073   -44114.561    21.607194     0.924082 
   31700    218.11707    -670.8354    135170.68   -41461.404     2713.791   -44175.196    21.700303   0.92396879 
   31800    215.35156   -605.04192    135231.47   -41403.977    2679.3828    -44083.36    21.650564   0.92355345 
   31900    218.92988    -652.3269    135084.61   -41400.986    2723.9039    -44124.89     21.70012   0.92455751 
   32000    220.08224   -882.34708    134981.86   -41397.564    2738.2415   -44135.806     21.68324   0.92526133 
   32100     217.2708   -684.37687    135170.32   -41415.307    2703.2618   -44118.569    21.673924   0.92397127 
   32200    214.07863   -740.59277    135087.31   -41410.571    2663.5452   -44074.116    21.476086     0.924539 
   32300    216.16906   -783.95542    135087.54   -41393.858    2689.5541   -44083.412    21.541418   0.92453744 
   32400     217.9917   -853.48426    135034.24   -41459.654    2712.2312   -44171.885    21.732424   0.92490241 
   32500    214.50935    -633.1724    134929.05    -41464.05    2668.9042   -44132.954    21.766113   0.92562342 
   32600    216.50583   -715.72459    134840.74   -41393.095    2693.7442   -44086.839    21.751447   0.92622964 
   32700    214.86286   -722.79657     134784.9   -41455.598    2673.3025     -44128.9    21.690305   0.92661336 
   32800    211.63149   -644.23031    134854.11    -41502.22    2633.0981   -44135.318    21.694692    0.9261378 
   32900      211.765   -607.62281    134775.62   -41498.675    2634.7592   -44133.435    21.675119   0.92667715 
   33000    213.48441   -701.91554    134853.72   -41545.486    2656.1519   -44201.638    21.711598   0.92614051 
   33100    214.77154   -571.25758    134932.46   -41470.762    2672.1662   -44142.928    21.875057   0.92560005 
   33200    213.89086   -710.45374    134941.76    -41508.71    2661.2089   -44169.919    21.809242   0.92553627 
   33300    216.18541   -786.70486    135090.66   -41445.556    2689.7575   -44135.314    21.928503   0.92451608 
   33400    215.63217   -750.54983    135182.35   -41517.647    2682.8741   -44200.521    22.029477     0.923889 
   33500    212.17256   -743.83041    135063.53   -41494.689      2639.83   -44134.519     21.94983   0.92470185 
   33600    212.26364   -701.32238    135080.94   -41460.366    2640.9632   -44101.329    21.923763   0.92458266 
   33700    217.46095   -691.42504    135069.42   -41447.898    2705.6276   -44153.526    21.806456   0.92466151 
   33800    213.45535   -734.94593    135103.14   -41450.219    2655.7904   -44106.009    21.883218   0.92443071 
   33900    214.30062   -800.86468    135208.89   -41461.967    2666.3071   -44128.274    21.950567   0.92370771 
   34000    216.24616   -689.75083    135225.21   -41428.666    2690.5133    -44119.18    21.915821   0.92359618 
   34100    216.27616   -618.86256     135179.1   -41469.538    2690.8866   -44160.425    21.910727   0.92391126 
   34200    215.59974   -686.10144    135217.11   -41473.382    2682.4706   -44155.852    21.891073   0.92365151 
   34300    211.71253   -754.27779    135211.85   -41519.243    2634.1064    -44153.35    21.949611   0.92368743 
   34400    214.58876   -751.48574    135174.93    -41444.62    2669.8921   -44114.512     21.91204   0.92393977 
   34500    215.21922   -736.23166    135088.73   -41460.944    2677.7363    -44138.68    21.937653   0.92452932 
   34600    214.30022   -621.69273    135147.44   -41441.014    2666.3022   -44107.316    22.153549   0.92412769 
   34700     215.9447   -771.96999    135093.26   -41533.339    2686.7626   -44220.101    22.132557   0.92449829 
   34800    213.56344   -711.75619    135072.61   -41529.115    2657.1352   -44186.251    22.329628   0.92463968 
   34900      211.927   -740.49613    135155.57    -41538.04    2636.7748   -44174.814    22.288932   0.92407208 
   35000    208.44816   -712.46677    135260.16   -41604.441    2593.4914   -44197.932    22.230675   0.92335758 
   35100    213.02697   -667.71789    135395.37    -41544.43    2650.4604   -44194.891    22.209006   0.92243548 
   35200     217.2709   -683.43951    135336.62   -41551.327     2703.263    -44254.59    22.288646   0.92283591 
   35300    213.84591   -735.66815     135321.6   -41542.718    2660.6496   -44203.368    22.432967   0.92293834 
   35400    215.99515   -701.39554    135330.25   -41562.002    2687.3903   -44249.392    22.370121   0.92287933 
   35500    215.52613    -542.2843    135383.31   -41463.893    2681.5548   -44145.448    22.573623   0.92251767 
   35600    214.10873   -719.50547    135455.59   -41509.024    2663.9196   -44172.943     22.45845   0.92202541 
   35700    215.43921   -586.54308    135370.22   -41462.013    2680.4734   -44142.486    22.379173   0.92260685 
   35800     215.8768     -727.961    135218.98    -41504.89    2685.9178   -44190.808    22.432084   0.92363873 
   35900    221.85391   -712.94394    135347.83   -41457.105    2760.2845   -44217.389    22.565485   0.92275949 
   36000    214.30909   -757.52277    135332.66   -41428.757    2666.4125   -44095.169    22.458357   0.92286289 
   36100    221.23864   -733.98543    135195.42   -41458.102    2752.6293   -44210.731    22.489009    0.9237997 
   36200    212.49015   -760.27996    135250.34   -41487.916    2643.7814   -44131.698    22.555924   0.92342461 
   36300    212.50713   -710.04086    135277.83   -41534.203    2643.9927   -44178.196    22.509841   0.92323698 
   36400    216.52633   -629.87783    135255.65    -41479.53    2693.9992    -44173.53    22.526385   0.92338837 
   36500    216.75474   -723.60014    135199.85   -41462.408     2696.841   -44159.249    22.663977   0.92376944 
   36600    212.68557   -741.66302    135287.47   -41580.742    2646.2128   -44226.955    22.638169   0.92317119 
   36700    219.27683   -718.87115    135235.85    -41524.67    2728.2207   -44252.891    22.603966   0.92352352 
   36800    215.53998   -762.46978    135040.96     -41525.4    2681.7272   -44207.127    22.592275   0.92485635 
   36900    211.25578   -610.90184    134988.67   -41550.631    2628.4235   -44179.055    22.561827   0.92521459 
   37000    215.38913   -571.73805    135197.15   -41497.619    2679.8503   -44177.469    22.853138   0.92378788 
   37100    217.23071   -724.55329    135159.73   -41475.171     2702.763   -44177.934    22.800883   0.92404366 
   37200    213.23816   -612.41566    135188.35   -41525.626    2653.0881   -44178.714    22.695813   0.92384806 
   37300    216.33719   -624.47908    135250.34   -41538.516    2691.6459   -44230.161    22.751921   0.92342459 
   37400     212.2283   -721.39464    135169.82   -41569.326    2640.5235    -44209.85     22.69253   0.92397467 
   37500    215.83367   -686.25887     135032.2    -41572.06    2685.3812   -44257.441      22.7312   0.92491635 
   37600    213.47179   -663.55812     135105.4   -41512.412    2655.9949   -44168.407    22.865683   0.92441526 
   37700    214.32893   -677.10974    135157.45   -41522.067    2666.6593   -44188.726    22.838729   0.92405923 
   37800    212.19536   -508.42078    135125.93   -41622.069    2640.1137   -44262.182    22.857709   0.92427481 
   37900    216.54936   -718.88964    135308.18   -41577.341    2694.2858   -44271.627    22.955059   0.92302987 
   38000    212.13098   -800.13601    135262.06   -41541.807    2639.3127   -44181.119    22.985233   0.92334461 
   38100    214.78225   -738.33631    135264.46   -41496.289    2672.2996   -44168.589     22.86976   0.92332822 
   38200    214.27184   -827.48737    135157.31   -41510.392    2665.9491   -44176.341     22.84006   0.92406023 
   38300    216.41354   -708.99859    135242.57   -41451.835    2692.5959   -44144.431    22.872887   0.92347762 
   38400    222.06503   -627.93671    135296.38   -41520.788    2762.9111   -44283.699    23.050784   0.92311034 
   38500    214.11627   -682.27455    135420.61    -41545.93    2664.0135   -44209.944    23.057088   0.92226354 
   38600    219.56289   -705.73283    135328.46   -41505.463    2731.7798   -44237.242    23.151702   0.92289153 
   38700     215.6516   -694.99986    135325.47   -41516.534    2683.1158    -44199.65    23.111018   0.92291194 
   38800    214.27563   -627.89618    135362.34   -41531.304    2665.9962   -44197.301    22.936158   0.92266053 
   38900    216.66682   -786.57983    135243.05   -41490.301    2695.7471   -44186.048     22.96951   0.92347435 
   39000    213.75011   -623.92812     135175.6   -41542.086    2659.4578   -44201.544      23.0768   0.92393518 
   39100     218.4041    -670.0536    135169.04   -41503.702    2717.3622   -44221.064    23.166835   0.92398004 
   39200    211.08639   -727.57939    135214.33   -41525.549     2626.316   -44151.866    23.067533   0.92367049 
   39300    216.92243   -669.11464    135255.97     -41515.8    2698.9274   -44214.727    23.033167   0.92338616 
   39400    217.87697   -679.56976    135394.84   -41467.919    2710.8037   -44178.723    22.974965   0.92243907 
   39500    219.30885   -642.41048    135319.98   -41456.155     2728.619   -44184.774    23.026686   0.92294939 
   39600    215.00434   -783.74077    135262.32   -41499.834    2675.0628   -44174.897    23.240975   0.92334283 
   39700    214.62474   -673.20751    135234.52   -41441.895    2670.3398   -44112.235     23.18479   0.92353264 
   39800    213.55566   -699.34594    135269.01   -41510.302    2657.0384    -44167.34    23.242501   0.92329715 
   39900    212.39519   -741.10674    135207.48   -41541.328       2642.6   -44183.928    23.168214    0.9237173 
   40000    212.28041   -685.97144    135066.89   -41567.428    2641.1719     -44208.6    23.057751   0.92467879 
   40100     215.8232   -623.43319    135271.53   -41462.937     2685.251   -44148.188    23.224667   0.92327998 
   40200    212.61945    -914.0751    135336.05    -41490.75    2645.3901    -44136.14    23.248212   0.92283977 
   40300    215.88359   -552.66941     135198.2   -41469.208    2686.0023   -44155.211    23.299057   0.92378074 
   40400    221.28628   -771.91498    135171.99   -41383.955    2753.2221   -44137.177    23.207747   0.92395986 
   40500    216.08577   -687.02605    135240.83   -41404.652    2688.5177    -44093.17    23.293204   0.92348954 
   40600    216.31222   -561.53922    135396.44   -41450.484    2691.3352   -44141.819    23.398219   0.92242817 
   40700    213.79684   -790.44764    135332.05   -41493.959    2660.0391   -44153.998    23.376183   0.92286707 
   40800    211.67216   -728.32003    135319.96   -41540.511    2633.6041   -44174.115    23.443579   0.92294949 
   40900    214.54957   -734.02004    135327.08   -41571.489    2669.4045   -44240.893    23.369137   0.92290093 
   41000    213.44873   -720.51588     135234.3   -41485.707     2655.708   -44141.415    23.446067   0.92353411 
   41100    218.53388   -470.50379     135103.7   -41456.856     2718.977   -44175.833    23.442063   0.92442688 
   41200    213.48457   -538.85863    135176.21   -41468.808     2656.154   -44124.962    23.410574     0.923931 
   41300    208.87645   -782.65077     135153.4   -41609.126    2598.8201   -44207.946    23.320007   0.92408692 
   41400    212.38256   -692.55564    135115.76   -41561.981    2642.4428   -44204.424     23.33859   0.92434439 
   41500    214.44944   -589.22564    135286.12   -41555.055    2668.1588   -44223.214    23.447415   0.92318038 
   41600    211.72284   -675.81985     135374.1   -41518.975    2634.2347    -44153.21    23.736449   0.92258038 
   41700    214.51252   -602.53546    135462.03   -41499.807    2668.9435    -44168.75    23.578903   0.92198157 
   41800    215.92585   -759.36058    135397.05   -41518.017    2686.5281   -44204.545    23.597013   0.92242403 
   41900    212.65468   -641.92986    135321.36   -41500.019    2645.8286   -44145.848    23.580857      0.92294 
   42000    217.97099   -745.34035    135399.76   -41501.724    2711.9735   -44213.698    23.503352   0.92240557 
   42100    212.90418   -748.36593    135254.84   -41505.559    2648.9327   -44154.491     23.61514    0.9233939 
   42200    216.40192    -673.8655    135245.01   -41465.886    2692.4513   -44158.337      23.7023     0.923461 
   42300    216.32815   -744.69326    135398.72   -41440.142    2691.5334   -44131.675    23.765071   0.92241266 
   42400    216.91156   -611.53284    135361.29   -41477.633    2698.7922   -44176.425    23.836888    0.9226677 
   42500    217.09041   -686.69172     135361.1   -41469.262    2701.0175   -44170.279    23.857446   0.92266898 
   42600    218.66525   -674.45214    135255.59   -41482.296    2720.6115   -44202.907    23.732316   0.92338874 
   42700    217.36298   -767.34928    135280.15   -41495.243    2704.4087   -44199.652     23.73563    0.9232211 
   42800    215.63936   -837.96354    135155.12   -41442.913    2682.9636   -44125.877    23.657631   0.92407514 
   42900     217.8796    -737.5465    135164.53   -41509.145    2710.8365   -44219.981    23.615442   0.92401086 
   43000    218.97254   -663.39881    135326.12   -41534.214    2724.4347   -44258.648    23.897035   0.92290751 
   43100    215.32843   -646.01918    135394.89   -41517.686     2679.095   -44196.781    23.974432   0.92243872 
   43200    217.90382   -790.73038    135323.02    -41483.04    2711.1377   -44194.178    23.836778   0.92292867 
   43300    212.58908   -775.89916    135379.23   -41500.569    2645.0123   -44145.581    23.839966   0.92254546 
   43400    218.51722   -634.79721    135523.71   -41448.001    2718.7696    -44166.77    23.899106   0.92156191 
   43500    215.81891    -700.2829    135378.54   -41460.414    2685.1976   -44145.611     23.89279   0.92255012 
   43600    216.76288   -844.17631    135292.92   -41370.688    2696.9423    -44067.63    24.047845   0.92313396 
   43700    218.68409   -664.46265    135163.34   -41399.334    2720.8458    -44120.18    24.079781     0.924019 
   43800    214.64563   -716.33834    135203.78   -41398.065    2670.5997   -44068.664    24.084672   0.92374262 
   43900    218.83007   -565.23284    135355.06   -41434.899    2722.6621   -44157.561     24.07294   0.92271019 
   44000    214.88883   -604.53645    135446.86    -41470.55    2673.6256   -44144.175    23.985924   0.92208481 
   44100    216.95161   -745.52109     135331.5   -41495.985    2699.2905   -44195.276    24.050075   0.92287083 
   44200     212.0138   -770.56613    135271.75   -41527.141    2637.8547   -44164.996    24.066592   0.92327846 
   44300    209.64564   -690.24708    135080.54   -41529.392    2608.3904   -44137.782    24.110142   0.92458534 
   44400    213.68202   -707.47862    135072.96   -41498.029    2658.6106    -44156.64    24.163474   0.92463727 
   44500     211.3361   -824.30391    135083.34   -41527.223    2629.4229   -44156.646    24.091927   0.92456619 
   44600    213.27192   -690.55338    135154.21   -41587.657    2653.5082   -44241.165     24.06897   0.92408143 
   44700    213.69411   -698.65031    135127.13   -41546.462    2658.7609   -44205.223    24.065152    0.9242666 
   44800     213.1891   -626.55409    135087.55   -41513.459    2652.4777   -44165.937     24.03747    0.9245374 
   44900    218.80229   -672.41327    135186.12    -41472.46    2722.3164   -44194.777    24.075134   0.92386328 
   45000    213.76881    -627.9373    135101.87   -41469.511    2659.6904   -44129.201    24.267954   0.92443939 
   45100    216.43668    -735.6689    135126.89   -41428.641    2692.8838   -44121.525    24.187932   0.92426825 
   45200      211.874   -696.20986    135167.78   -41487.428    2636.1154   -44123.544    24.084641   0.92398861 
   45300    212.63924   -749.06285    135115.06   -41505.647    2645.6364   -44151.283    24.052552   0.92434915 
   45400    217.65778   -744.30806    134985.11   -41474.808    2708.0766   -44182.884    24.020194   0.92523902 
   45500    213.36312   -620.95882     135049.5   -41475.081    2654.6429   -44129.723    24.230979   0.92479786 
   45600    217.50139   -748.56776    135094.14   -41461.974    2706.1308   -44168.105    24.361718   0.92449228 
   45700    214.72602   -504.39356     135051.7   -41476.832       2671.6   -44148.432    24.416636   0.92478278 
   45800    217.78017    -862.9581     135276.7   -41424.684    2709.5994   -44134.283    24.371708   0.92324465 
   45900     219.2195   -733.49344    135383.02    -41369.15    2727.5074   -44096.657    24.308367   0.92251964 
   46000    224.43845   -618.94882     135400.3   -41361.487     2792.441   -44153.928    24.303402   0.92240189 
   46100    219.88218   -707.26081    135351.63   -41323.061    2735.7524   -44058.813    24.270169   0.92273354 
   46200    219.81236   -806.16675    135380.97   -41322.718    2734.8836   -44057.601    24.286683   0.92253359 
   46300    221.56055    -600.3361    135278.47   -41348.288    2756.6344   -44104.922    24.427914   0.92323258 
   46400    220.99842   -654.53218    135214.09   -41384.679    2749.6405    -44134.32    24.587538   0.92367214 
   46500    217.27509   -533.99672    135145.21   -41400.994    2703.3152   -44104.309    24.600517   0.92414292 
   46600     220.2053   -827.49144    135178.99   -41402.094    2739.7726   -44141.867    24.541643   0.92391201 
   46700    212.29128   -833.02802    135086.04   -41482.789    2641.3071   -44124.096    24.339921   0.92454774 
   46800    212.57742   -896.51754    135117.05   -41520.827    2644.8673   -44165.694    24.364289   0.92433555 
   46900    218.41463   -647.57594    135050.77   -41444.189    2717.4933   -44161.682    24.440273   0.92478919 
   47000    215.35497   -624.82969    135132.64   -41420.555    2679.4252   -44099.981    24.445433   0.92422888 
   47100    217.95464    -790.7837    135314.77   -41387.129      2711.77   -44098.899    24.642301   0.92298493 
   47200    215.63081   -588.39553    135410.15   -41439.047    2682.8572   -44121.904    24.674932   0.92233477 
   47300    214.43596   -747.35657    135334.94   -41471.618    2667.9911   -44139.609    24.481056   0.92284732 
   47400    214.09283   -619.97605     135337.3   -41428.053    2663.7219   -44091.775     24.51414   0.92283127 
   47500     215.4089   -740.64447    135380.51   -41365.811    2680.0963   -44045.907    24.623059   0.92253673 
   47600    215.48041    -726.7332    135413.62    -41327.29    2680.9859   -44008.276    24.660558   0.92231116 
   47700    219.62321    -783.2077    135345.84   -41370.979    2732.5302   -44103.509    24.683385   0.92277306 
   47800     218.8895   -821.98848     135275.9   -41387.727    2723.4015   -44111.129    24.916601   0.92325013 
   47900    216.10325   -724.62327    135201.97   -41473.308    2688.7352   -44162.043    24.914039     0.923755 
   48000    216.24567   -629.00201    135332.67    -41483.89    2690.5072   -44174.397    24.860176   0.92286282 
   48100    214.43149   -593.60579    135268.44   -41461.091    2667.9354   -44129.027    24.752632   0.92330102 
   48200    211.91939   -784.49725    135280.78   -41490.607    2636.6801   -44127.287    24.693275   0.92321682 
   48300    213.32044    -650.1916    135225.63   -41478.471    2654.1119   -44132.583    24.728176   0.92359337 
   48400    221.21913   -742.04397    135256.04   -41405.049    2752.3866   -44157.435    24.919979   0.92338571 
   48500      217.827   -663.06123       135408   -41467.929     2710.182   -44178.111    24.892118   0.92234943 
   48600    219.52804   -695.07618    135360.39   -41484.972    2731.3462   -44216.318    24.940627   0.92267385 
   48700     214.7737   -676.81721    135491.22   -41458.137    2672.1931    -44130.33     24.94429   0.92178291 
   48800    210.66559   -821.04178    135292.09   -41489.953    2621.0804   -44111.033    24.946394   0.92313967 
   48900    212.05617   -730.05492    135256.79   -41481.677    2638.3819   -44120.059    24.700463   0.92338059 
   49000    215.71191   -616.00436    135113.83   -41516.785    2683.8663   -44200.651    24.797001   0.92435753 
   49100    211.37225   -645.98925    135063.59   -41501.061    2629.8727   -44130.934    24.963671   0.92470142 
   49200    214.32424   -723.09955     135161.8   -41522.918    2666.6011   -44189.519    25.029573   0.92402948 
   49300    217.10844   -678.77378    135193.79   -41475.695    2701.2417   -44176.936    24.955007   0.92381085 
   49400    218.08016    -712.3871    135273.12   -41457.415    2713.3318   -44170.747    25.031475   0.92326909 
   49500    215.67425   -680.16771    135402.88   -41469.726    2683.3977   -44153.124    25.101979    0.9223843 
   49600      217.019   -718.43705    135297.55   -41460.992    2700.1289   -44161.121    24.992198   0.92310235 
   49700    215.31161   -657.03889    135486.77   -41484.851    2678.8857   -44163.737    25.162814    0.9218132 
   49800    209.50284   -707.97176    135414.39   -41539.638    2606.6136   -44146.252    25.261865   0.92230593 
   49900    219.24333   -660.93895    135247.43   -41446.808    2727.8038   -44174.611    25.235289   0.92344449 
   50000    211.92135   -694.53343    135262.76   -41482.445    2636.7045   -44119.149    25.323077   0.92333978 
   50100    216.59737   -751.68648    135332.38   -41488.967     2694.883    -44183.85    25.338972   0.92286483 
   50200    217.21102   -664.19624    135323.46   -41533.884     2702.518   -44236.402    25.272128   0.92292566 
   50300     214.8848   -633.03011    135398.95    -41502.08    2673.5755   -44175.655    25.290225   0.92241109 
   50400    211.53567   -711.90576    135334.13   -41531.182    2631.9059   -44163.088    25.417202   0.92285289 
   50500    212.85749   -698.15172    135433.41   -41570.139    2648.3518   -44218.491      25.3553   0.92217641 
   50600    212.71917   -713.46763    135348.66   -41593.839    2646.6309    -44240.47    25.439128   0.92275378 
   50700    214.03392   -704.29483    135328.21   -41600.037    2662.9888   -44263.026    25.369489   0.92289327 
   50800    213.65073   -706.87326    135246.23   -41591.088    2658.2213   -44249.309    25.443971   0.92345264 
   50900    217.43576   -714.83772    135271.68    -41509.33    2705.3142   -44214.644    25.356293   0.92327893 
   51000    212.58713    -664.4262    135265.54   -41553.372    2644.9881    -44198.36    25.535541   0.92332081 
   51100    214.94137   -657.11805    135272.32   -41588.465    2674.2793   -44262.744    25.523115   0.92327455 
   51200    217.14608   -756.89437    135442.93   -41576.348    2701.7101   -44278.058    25.498833   0.92211159 
   51300    210.00622   -620.84495    135419.65   -41630.957    2612.8766   -44243.834    25.534917   0.92227007 
   51400    215.33791   -550.45361    135450.56   -41628.176     2679.213   -44307.389    25.427038   0.92205964 
   51500    210.75972   -622.45485    135419.12   -41631.331    2622.2516   -44253.583    25.336705   0.92227368 
   51600    213.78621   -725.84562    135420.55   -41575.288    2659.9069   -44235.195     25.52251   0.92226394 
   51700    216.00044   -745.70927    135337.59   -41570.838    2687.4561   -44258.294    25.537994   0.92282928 
   51800    210.60804   -781.44125    135332.98   -41603.767    2620.3644   -44224.131    25.612786   0.92286071 
   51900    214.83926   -609.25453    135245.66   -41633.022    2673.0089    -44306.03    25.713956   0.92345657 
   52000    213.12074   -817.65801    135261.51   -41648.981    2651.6272   -44300.608    25.613309   0.92334832 
   52100    213.95427   -706.23625    135152.09    -41603.75    2661.9979   -44265.747    25.570972   0.92409587 
   52200    216.28439   -752.48579    135226.08   -41625.063     2690.989   -44316.052    25.549895   0.92359025 
   52300    212.68859   -744.20408    135047.19   -41610.475    2646.2504   -44256.725    25.635375   0.92481372 
   52400    217.42495   -837.02675    135044.02   -41557.575    2705.1797   -44262.754    25.676029   0.92483539 
   52500    210.82055    -749.1075    135043.65    -41544.74    2623.0085   -44167.748      25.6848   0.92483791 
   52600    212.98809   -723.50468    135062.65   -41571.641    2649.9768   -44221.618    25.634528   0.92470785 
   52700    213.78675   -653.05543    135139.86   -41577.824    2659.9137   -44237.738    25.776591   0.92417953 
   52800     215.9378   -719.31249    135013.28   -41542.285    2686.6767   -44228.961    25.845422   0.92504597 
   52900    215.05247    -668.3067    135150.05   -41541.658    2675.6616   -44217.319    25.821321   0.92410985 
   53000    217.15253   -774.90504    135078.06   -41536.315    2701.7903   -44238.106    25.714201   0.92460235 
   53100    215.91693   -671.41565    135122.27   -41583.044    2686.4172   -44269.461      25.8229   0.92429982 
   53200    215.32773   -629.51863    135206.78   -41571.749    2679.0863   -44250.835    26.046627   0.92372212 
   53300    211.21544   -695.02217    135150.66   -41555.093    2627.9216   -44183.015    26.006323   0.92410567 
   53400    214.09853   -726.77677    135003.46   -41633.424    2663.7928   -44297.217    25.964748   0.92511325 
   53500    209.13197   -652.29071    135019.77   -41638.049    2601.9993   -44240.048     25.93427   0.92500151 
   53600    216.75896   -740.99804    135057.66   -41646.214    2696.8936   -44343.108    25.958715   0.92474202 
   53700    213.69924   -781.87735    135117.68   -41676.564    2658.8249   -44335.389    25.938318   0.92433124 
   53800    210.44155   -715.39044     135234.5   -41559.576     2618.293   -44177.869    26.026071   0.92353277 
   53900    214.05032   -697.39144    135196.94   -41607.556    2663.1929   -44270.749    26.028127   0.92378931 
   54000    217.14948   -647.51057    135325.28   -41576.496    2701.7523   -44278.248      26.0175   0.92291326 
   54100    215.04794   -735.76873    135194.87   -41597.508    2675.6052   -44273.114    26.043267   0.92380346 
   54200    216.44516   -643.77179    135108.23   -41583.523    2692.9892   -44276.512    26.112525   0.92439586 
   54300    213.44377   -669.21006    135174.76   -41556.325    2655.6463   -44211.971    26.015686   0.92394089 
   54400    217.57505   -812.59143    135144.23    -41585.41    2707.0472   -44292.457    26.018487   0.92414961 
   54500    218.34844   -754.26693    135259.35   -41573.067    2716.6697   -44289.737    26.196613   0.92336309 
   54600     220.9495   -737.43381    135306.04   -41484.462    2749.0318   -44233.494    26.182005   0.92304443 
   54700    216.58004   -771.54916     135239.1   -41495.837    2694.6674   -44190.504    26.126577   0.92350133 
   54800    214.50194   -701.65982    135299.13   -41565.145    2668.8119   -44233.957    26.116164   0.92309161 
   54900    213.68918   -773.83058    135291.76   -41595.312    2658.6996   -44254.011    26.138388   0.92314188 
   55000    210.10044   -634.82916    135302.34   -41650.646    2614.0489   -44264.695     26.17458   0.92306973 
   55100    215.10422   -614.73097    135463.88   -41611.388    2676.3055   -44287.693    26.300254   0.92196895 
   55200    212.11483   -831.63727    135326.73   -41617.776    2639.1117   -44256.888    26.285132   0.92290331 
   55300    210.44685   -629.94439     135264.1   -41574.666    2618.3589   -44193.025    26.208501   0.92333063 
   55400    214.66087   -705.53838    135361.14   -41564.334    2670.7894   -44235.124    26.411608   0.92266876 
   55500    217.47533    -648.3167    135479.74   -41509.003    2705.8065   -44214.809    26.167517   0.92186104 
   55600     214.4612   -670.64701    135553.53   -41548.054     2668.305   -44216.359    26.183485    0.9213592 
   55700    214.03647   -675.04041    135580.85    -41545.88    2663.0206   -44208.901    26.314615   0.92117355 
   55800    216.56738   -578.67271    135717.12   -41544.776    2694.5099   -44239.286    26.471674   0.92024863 
   55900     214.9516   -744.39499    135646.81   -41526.738    2674.4066   -44201.144    26.569326   0.92072562 
   56000     215.5512   -744.71591    135574.56   -41526.031    2681.8668   -44207.897    26.544995   0.92121629 
   56100    217.50503   -637.94923    135785.27   -41495.163    2706.1761   -44201.339    26.467684   0.91978676 
   56200    215.23721   -749.22135    135546.15   -41499.508    2677.9601   -44177.469    26.355042   0.92140939 
   56300     216.9709   -634.20799    135672.44   -41533.729    2699.5305    -44233.26    26.385645   0.92055169 
   56400    216.43507   -597.89344    135630.56   -41516.169    2692.8638   -44209.033    26.482902   0.92083588 
   56500     210.3809   -732.73306    135797.39   -41597.325    2617.5384   -44214.864    26.503066   0.91970463 
   56600    213.43609   -892.20585       135707    -41617.47    2655.5507    -44273.02    26.592079   0.92031724 
   56700    210.14733   -711.45588    135756.54   -41648.788    2614.6322    -44263.42    26.527919   0.91998137 
   56800     209.0266   -656.38047    135766.16   -41582.695    2600.6883   -44183.383    26.523956   0.91991618 
   56900    214.44381   -835.85668    135701.05   -41566.707    2668.0886   -44234.796    26.404783   0.92035758 
   57000    217.35277   -712.06437    135652.62   -41514.032    2704.2817   -44218.314    26.449933   0.92068619 
   57100    215.76762   -758.86631    135693.52   -41579.024    2684.5594   -44263.584    26.418463   0.92040864 
   57200    211.92387   -703.83616    135674.44   -41623.393    2636.7359   -44260.129    26.542216   0.92053811 
   57300    213.13051    -752.1398    135659.46   -41669.043    2651.7487   -44320.792    26.588519   0.92063977 
   57400    211.13779   -642.29922    135691.63   -41684.083    2626.9555   -44311.039    26.541866   0.92042148 
   57500    211.32701   -709.54562    135591.37   -41724.326    2629.3097   -44353.636    26.488531   0.92110209 
   57600    210.18885   -693.81797    135476.54   -41686.234    2615.1489   -44301.383    26.504897   0.92188281 
   57700    209.70095   -739.52711    135538.72   -41714.055    2609.0785   -44323.134    26.635398   0.92145988 
   57800    210.25492   -742.35877    135542.12   -41734.091    2615.9709   -44350.062    26.635409   0.92143674 
   57900    210.29268   -661.73938    135348.56   -41704.286    2616.4408   -44320.727    26.816984   0.92275451 
   58000    211.80391   -700.78278    135437.58   -41697.057    2635.2434     -44332.3    26.785462     0.922148 
   58100     213.9236   -718.64526    135463.28   -41631.407    2661.6162   -44293.023    26.766016   0.92197305 
   58200    217.52676   -559.02059    135485.34   -41590.224    2706.4464    -44296.67    26.630203   0.92182288 
   58300    216.22809   -779.33315     135522.9   -41531.572    2690.2885    -44221.86    26.731795   0.92156742 
   58400    212.12935   -736.99821    135388.33   -41540.836    2639.2924   -44180.128    26.661497   0.92248344 
   58500    216.41382   -801.48134    135430.64   -41539.161    2692.5993   -44231.761    26.717331   0.92219522 
   58600    216.08462   -714.53836    135410.06   -41505.935    2688.5035   -44194.438    26.750986   0.92233537 
   58700    217.43152   -737.39461    135220.42   -41503.664    2705.2615   -44208.925    26.838657   0.92362895 
   58800    215.26572   -614.40583    135199.57   -41547.242    2678.3148   -44225.556    26.889043   0.92377135 
   58900    210.35979   -691.74041    135265.77   -41586.426    2617.2757   -44203.702    27.027076   0.92331929 
   59000    216.08197   -718.15423    135267.01   -41567.551    2688.4705   -44256.022    26.893181   0.92331077 
   59100    215.34083    -705.6254     135272.7   -41569.725    2679.2493   -44248.974    26.893435   0.92327193 
   59200    217.47099   -691.63521    135214.07    -41586.06    2705.7525   -44291.813    26.850885   0.92367228 
   59300    211.12803   -609.27302    135147.98   -41578.455    2626.8341   -44205.289    26.846613   0.92412401 
   59400    215.75219   -690.15869    135169.55   -41626.805    2684.3674   -44311.173    26.951182    0.9239765 
   59500    216.57937   -818.88329    135360.76    -41590.64    2694.6591   -44285.299    27.040007   0.92267134 
   59600    214.65203   -811.64864    135172.73   -41597.504    2670.6794   -44268.183    26.973596    0.9239548 
   59700    212.82939   -557.80433    135130.83   -41626.855    2648.0023   -44274.857     26.98754   0.92424128 
   59800    216.43346   -682.89673    135206.41    -41628.41    2692.8437   -44321.254    26.936545   0.92372463 
   59900    214.64272   -694.62751    135259.87   -41596.398    2670.5635   -44266.961    26.956752   0.92335953 
   60000    213.33323   -548.02712    135234.07   -41627.853     2654.271   -44282.124     26.93456   0.92353571 
   60100    215.90874   -664.37637    135380.71   -41584.151    2686.3152   -44270.467    26.969749   0.92253534 
   60200    216.12407   -652.19998    135239.04   -41573.131    2688.9943   -44262.126    27.017602   0.92350177 
   60300    211.12874    -800.7232     135474.3   -41542.858    2626.8429   -44169.701     27.11349   0.92189804 
   60400     219.0173   -613.51851    135373.31   -41497.799    2724.9916    -44222.79    26.945653   0.92258581 
   60500    219.59648   -686.23244    135479.49   -41538.551    2732.1977   -44270.749    26.957292   0.92186275 
   60600     212.6236   -789.90919    135393.98   -41592.943    2645.4418   -44238.385    26.837942   0.92244496 
   60700    213.24044   -704.79339    135441.76   -41606.708    2653.1165   -44259.824    26.922684   0.92211951 
   60800    215.43244   -728.17175    135316.03   -41566.379    2680.3891   -44246.768    27.016118   0.92297632 
   60900    214.01212    -739.9184    135285.64   -41564.274    2662.7177   -44226.992    27.279844   0.92318362 
   61000    214.22877     -771.168     135177.8   -41601.134    2665.4131   -44266.547     27.23653    0.9239201 
   61100    217.94127   -755.62229    135238.74    -41649.97    2711.6038   -44361.574    27.185266   0.92350379 
   61200    216.06174   -832.31325    135179.96   -41649.453    2688.2188   -44337.671    27.095436   0.92390535 
   61300    214.79521   -713.32527     135103.9   -41639.889    2672.4608    -44312.35    27.085538   0.92442551 
   61400    214.87934   -698.23789    135191.04   -41665.525    2673.5075   -44339.033    27.047096   0.92382964 
   61500    216.39402   -675.94721    135327.39   -41662.676    2692.3531   -44355.029    26.996442   0.92289885 
   61600    213.27606   -678.22986    135376.04   -41623.822    2653.5596   -44277.381    27.084757   0.92256719 
   61700    211.25079   -741.37882    135412.47   -41683.491    2628.3615   -44311.852    27.251711   0.92231898 
   61800    207.73933   -740.76477    135379.62   -41738.817    2584.6722    -44323.49     27.23743   0.92254279 
   61900    210.32306   -735.23576    135292.56   -41682.523    2616.8188   -44299.342    27.254073   0.92313644 
   62000    215.85391   -668.60157     135316.6   -41640.408    2685.6331   -44326.041    27.200475   0.92297246 
   62100    217.99536    -647.7757    135403.46   -41669.131    2712.2767   -44381.408     27.16626   0.92238032 
   62200    214.88415   -726.99327    135415.45   -41616.385    2673.5673   -44289.952    27.223179   0.92229867 
   62300    211.19915   -617.57633    135481.82   -41655.176     2627.719   -44282.895    27.289517   0.92184689 
   62400    217.50976   -659.55295    135331.99   -41606.317     2706.235   -44312.552    27.281634   0.92286744 
   62500    214.09209   -781.08356    135204.12   -41620.593    2663.7126   -44284.306    27.306294    0.9237403 
   62600    211.97274   -709.67446    135101.76   -41626.603    2637.3439   -44263.947     27.30095   0.92444016 
   62700    217.02332   -732.59821    135214.83   -41642.973    2700.1827   -44343.155     27.32895   0.92366711 
   62800    212.03937    -557.6747    135254.86   -41627.289    2638.1729   -44265.462    27.330291   0.92339373 
   62900     215.5228   -816.01709    135385.88   -41581.297    2681.5134    -44262.81    27.293112   0.92250011 
   63000     217.3142   -694.87837    135404.94   -41545.791    2703.8018   -44249.593    27.277182   0.92237027 
   63100     220.8123   -672.88273    135393.12   -41540.618    2747.3248   -44287.943    27.227647   0.92245079 
   63200    215.79756   -657.94623    135460.35   -41574.915    2684.9319   -44259.847    27.369198   0.92199295 
   63300    215.54416   -704.68073    135463.79   -41603.156    2681.7791   -44284.936    27.239477   0.92196955 
   63400    221.01128   -764.82474    135358.87   -41527.681    2749.8005   -44277.481    27.135947    0.9226842 
   63500    218.31646   -633.90705    135472.33   -41622.035    2716.2718   -44338.307    27.268981   0.92191145 
   63600    214.15306   -587.65542    135416.85   -41628.912    2664.4713   -44293.383    27.403385   0.92228912 
   63700    214.18834   -868.90164    135446.03   -41621.367    2664.9101   -44286.277    27.636589   0.92209048 
   63800     212.2321   -601.45062     135434.9    -41722.79    2640.5708   -44363.361    27.543891   0.92216621 
   63900    212.24119   -672.82721    135387.54   -41700.388    2640.6839   -44341.072    27.378236   0.92248881 
   64000    212.31149   -702.86434    135415.38   -41676.463    2641.5586   -44318.022    27.286891   0.92229914 
   64100    216.69129   -790.69784    135376.79   -41590.329    2696.0516   -44286.381    27.332529   0.92256209 
   64200    214.27284   -679.56464    135314.39   -41588.118    2665.9615    -44254.08    27.507131   0.92298748 
   64300    220.32425   -636.45949    135396.38   -41495.985    2741.2526   -44237.237     27.47106   0.92242858 
   64400    219.83508   -673.03264     135337.6   -41508.593    2735.1663   -44243.759    27.625639   0.92282922 
   64500    214.91898   -805.10465    135346.61   -41488.542    2674.0007   -44162.542    27.468132    0.9227678 
   64600    216.01807   -765.39008    135292.34   -41537.895    2687.6755   -44225.571    27.574556   0.92313794 
   64700    215.98124   -590.78121    135473.46   -41548.261    2687.2173   -44235.478    27.575551   0.92190378 
   64800    216.75208   -670.40773    135398.88   -41575.388     2696.808   -44272.196    27.509069   0.92241152 
   64900     212.6722   -661.28558    135277.89   -41557.608    2646.0465   -44203.654    27.477945   0.92323654 
   65000    217.05348   -733.00663    135231.24   -41515.867     2700.558   -44216.425    27.542148   0.92355502 
   65100    212.76489   -713.70317     135273.7   -41542.346    2647.1997   -44189.545    27.596494   0.92326511 
   65200    215.61241   -689.68937    135335.91   -41536.007    2682.6283   -44218.635    27.593789   0.92284073 
   65300    218.14935   -567.89097    135198.94   -41542.987    2714.1926    -44257.18    27.566589    0.9237757 
   65400    216.49804   -696.44684    135204.33   -41481.455    2693.6472   -44175.103    27.580531   0.92373883 
   65500    216.25273   -576.47126    135359.09   -41544.802    2690.5951   -44235.397    27.726693   0.92268272 
   65600    215.18923   -712.26032     135351.8   -41585.691    2677.3631   -44263.055    27.776133   0.92273237 
   65700    211.85316   -691.45138    135323.37   -41631.948    2635.8561   -44267.804    27.897822   0.92292627 
   65800    213.19307   -742.66211    135414.27   -41627.185    2652.5271   -44279.712    27.780801   0.92230673 
   65900    211.81088   -641.18391    135421.94   -41600.658      2635.33   -44235.988    27.738706   0.92225449 
   66000    217.36926   -682.86512    135480.41   -41513.282    2704.4869   -44217.769    27.606101   0.92185644 
   66100    215.70118   -705.60663    135503.24   -41477.962    2683.7328   -44161.695    27.684388   0.92170117 
   66200    220.34059    -666.3046    135437.98   -41459.277    2741.4558   -44200.732    27.770443   0.92214523 
   66300     216.9489    -597.9347    135326.18   -41505.336    2699.2568   -44204.593    27.680235   0.92290706 
   66400    212.61117   -594.54562    135396.58   -41559.605    2645.2871   -44204.892    27.737742   0.92242719 
   66500    216.22952   -734.11468    135361.94   -41588.328    2690.3063   -44278.634    27.770052   0.92266327 
   66600    216.80662   -696.47744    135185.98   -41614.902    2697.4865   -44312.389     27.77038   0.92386419 
   66700    211.68218   -748.48108    135273.78   -41640.594    2633.7287   -44274.323    27.710669   0.92326456 
   66800    214.48587   -618.63421    135280.88    -41586.52     2668.612   -44255.132     27.71461   0.92321614 
[...]
   84600    211.07548   -657.99839    135090.12   -41652.232    2626.1803   -44278.412    30.560147   0.92451983 
   84700    212.14111    -621.7698    135079.91   -41662.717    2639.4388   -44302.156    30.762436   0.92458966 
   84800    213.88129   -630.35841    135188.08   -41627.294    2661.0898   -44288.384    30.810531   0.92384989 
   84900    217.11483   -665.52906    135361.72   -41615.819    2701.3213    -44317.14    30.686503   0.92266474 
   85000     213.3546   -706.29646    135463.59   -41565.314    2654.5368   -44219.851    30.658349   0.92197095 
   85100    216.78873   -717.55958    135388.08   -41572.098    2697.2639   -44269.362    30.629356   0.92248516 
   85200    216.36096   -692.16255    135426.07   -41581.543    2691.9417   -44273.484    30.636578   0.92222639 
   85300    211.95088   -682.74822    135245.57   -41617.628    2637.0719     -44254.7    30.660211   0.92345716 
   85400     210.1795   -723.75754    135292.22   -41608.942    2615.0326   -44223.975    30.779942   0.92313872 
   85500    213.86701   -746.45563    135319.26   -41583.076    2660.9122   -44243.988    30.718526   0.92295428 
   85600    215.79254   -719.72876    135203.13   -41571.263    2684.8695   -44256.133    30.813309   0.92374707 
   85700    215.15628   -732.32164    135247.42   -41622.921    2676.9532   -44299.874    30.834411   0.92344451 
   85800    209.64276   -659.59567    135140.68   -41613.868    2608.3545   -44222.223    30.780451   0.92417393 
   85900    217.82865   -620.95029    135272.32   -41508.962    2710.2026   -44219.165    30.970668   0.92327454 
   86000    216.67393   -765.11943    135167.69   -41567.254    2695.8356    -44263.09    30.683208   0.92398924 
   86100    215.93788   -681.21375    135238.11   -41565.815    2686.6778   -44252.493    30.729285    0.9235081 
   86200    214.93909   -692.04728    135354.68   -41531.897    2674.2509   -44206.148    30.816498   0.92271279 
   86300    213.48474   -747.65236     135350.5   -41570.368     2656.156   -44226.524    30.939897   0.92274126 
   86400    214.41951   -742.14251    135366.78   -41592.423    2667.7864    -44260.21    30.935616   0.92263027 
   86500    215.27862    -754.2945    135346.83   -41577.462    2678.4752   -44255.937    30.788165   0.92276628 
   86600    215.56911   -758.84203    135466.44   -41515.606    2682.0896   -44197.696     30.68753   0.92195154 
   86700    216.55641   -822.72736    135484.74   -41495.162    2694.3734   -44189.535    30.834429   0.92182699 
   86800    210.59716    -623.6735    135425.95   -41558.503    2620.2291   -44178.732    30.983263    0.9222272 
   86900    217.29194   -722.81182     135671.2   -41520.295    2703.5248    -44223.82    30.948042   0.92056011 
   87000    216.02389   -781.03955    135565.32   -41515.507    2687.7479   -44203.255    30.928418   0.92127904 
   87100    215.66882   -672.42096    135462.14   -41554.697    2683.3302   -44238.027    30.904069   0.92198082 
   87200    217.57597   -671.15749    135444.27   -41549.609    2707.0587   -44256.668    30.875869   0.92210244 
   87300    215.91437   -604.01621    135518.36   -41552.401    2686.3852   -44238.786    30.961628   0.92159828 
   87400    217.91829    -755.7189    135492.09    -41568.13    2711.3178   -44279.447      30.9434   0.92177702 
   87500    214.47442   -689.81582    135539.66   -41571.108    2668.4695   -44239.577    30.845646   0.92145349 
   87600    210.83159   -728.20328     135616.8   -41574.972    2623.1458   -44198.117    31.059777   0.92092936 
   87700    212.15453   -665.75679       135520   -41575.968    2639.6057   -44215.574    31.134656   0.92158718 
   87800    214.92423   -672.08481    135587.22   -41548.772     2674.066   -44222.838    31.073348   0.92113029 
   87900    213.51196   -742.77899    135557.18   -41568.631    2656.4947   -44225.126    30.964021   0.92133435 
   88000    208.57074   -707.19491    135408.89   -41589.171    2595.0166   -44184.188    30.957314    0.9223434 
   88100    213.32245   -617.86673    135459.94   -41524.144    2654.1369   -44178.281    30.965154   0.92199578 
   88200    217.49696   -659.41248    135589.27   -41503.145    2706.0757   -44209.221    31.183032   0.92111635 
   88300    212.20695   -567.61955    135543.55   -41540.171    2640.2578   -44180.429    31.186536     0.921427 
   88400    208.17466   -864.21256    135571.27   -41638.571    2590.0885   -44228.659     31.25101   0.92123861 
   88500    216.72515   -804.35565    135533.97   -41546.173     2696.473   -44242.646    31.081847   0.92149214 
   88600    217.60551   -632.60975    135513.98   -41510.781    2707.4263   -44218.208    31.209411   0.92162809 
   88700    215.49326   -666.72244    135453.58   -41498.177    2681.1458   -44179.323    31.265535   0.92203904 
   88800    217.78341   -621.50498    135479.61    -41435.38    2709.6396    -44145.02    31.302511   0.92186189 
   88900    216.29918   -821.78112    135502.52    -41481.48     2691.173   -44172.653    31.115903   0.92170604 
   89000     221.2927   -603.64682    135534.48     -41474.6     2753.302   -44227.902    31.163027   0.92148871 
   89100    213.54558   -715.67243    135383.67   -41577.507     2656.913    -44234.42    31.216867   0.92251518 
   89200    213.69925   -772.87432    135305.68   -41605.346    2658.8249    -44264.17    31.265244    0.9230469 
   89300    212.92398    -622.6992     135412.1   -41625.009    2649.1791   -44274.188    31.286914   0.92232148 
   89400    211.97675   -686.86865    135363.74   -41646.283    2637.3937   -44283.676    31.364225   0.92265103 
   89500    211.00685   -665.82406    135301.83   -41672.179    2625.3264   -44297.505    31.395448   0.92307317 
   89600    210.27601   -493.48399    135328.75   -41710.394    2616.2333   -44326.627     31.48729   0.92288956 
   89700    210.68018   -702.36989    135264.78   -41673.693    2621.2619   -44294.955    31.453983   0.92332599 
   89800     214.3437   -667.44912     135428.4   -41618.207    2666.8431    -44285.05    31.356845   0.92221052 
   89900     209.9749   -817.49184    135460.73   -41668.083    2612.4869    -44280.57      31.4664   0.92199041 
   90000    211.04111   -501.86259    135698.38   -41573.122    2625.7526   -44198.875    31.553235   0.92037573 
   90100    211.27827    -768.5495    135725.73   -41583.507    2628.7034    -44212.21    31.457672   0.92019022 
   90200    217.02637   -694.89296    135584.27   -41629.384    2700.2206   -44329.604    31.594652   0.92115029 
   90300    211.86276   -718.93438    135583.98   -41634.007    2635.9755   -44269.983    31.631086   0.92115229 
   90400    211.20079   -645.77075    135698.05   -41612.399    2627.7394   -44240.139    31.668936   0.92037791 
   90500     213.2788   -699.63271    135945.37    -41580.61    2653.5937   -44234.203    31.671741   0.91870356 
   90600    216.15983   -787.56759    135982.19   -41495.067    2689.4392   -44184.506    31.730862   0.91845476 
   90700    217.68928   -742.98417    135932.49   -41507.604    2708.4685   -44216.072    31.688659   0.91879057 
   90800     216.8431   -841.43302    135917.19   -41549.897    2697.9405   -44247.837    31.664984   0.91889399 
   90900    213.40379     -652.525    135914.12   -41648.238    2655.1489   -44303.387    31.638551   0.91891478 
   91000    212.03893   -741.74644    135892.31   -41666.763    2638.1674    -44304.93    31.723557   0.91906226 
   91100     211.6124   -831.48174     135955.7   -41669.475    2632.8605   -44302.335     31.62301   0.91863375 
   91200    215.02134   -714.15432    135958.94    -41633.71    2675.2743   -44308.984    31.589167   0.91861185 
   91300    216.11794   -763.46317    135853.66   -41540.998    2688.9181   -44229.916     31.59572    0.9193237 
   91400    220.70094   -717.74359    135767.33   -41524.193    2745.9393   -44270.132    31.476242   0.91990826 
   91500     218.1111    -707.8854    135664.26   -41537.013    2713.7168    -44250.73    31.422625   0.92060718 
   91600     216.8154   -650.47049    135693.69   -41566.386    2697.5958   -44263.982    31.688767   0.92040751 
   91700    213.19879   -766.98213    135608.16   -41636.976    2652.5982   -44289.574    31.675647   0.92098801 
   91800    214.49465   -735.00256     135614.6   -41608.457    2668.7212   -44277.179    31.599174   0.92094431 
   91900    214.79353   -734.75512    135510.06   -41607.364    2672.4398   -44279.804    31.426866   0.92165478 
   92000    216.90197   -659.44278     135618.8   -41600.731    2698.6729   -44299.404    31.658312   0.92091579 
   92100    211.77299    -695.7173    135670.37   -41639.447    2634.8587   -44274.306    31.846089   0.92056573 
   92200    217.10764   -614.10001    135635.51   -41581.436    2701.2318   -44282.668    31.826976   0.92080233 
   92300    212.97076   -721.47384    135654.67   -41490.007    2649.7612   -44139.768    31.866248   0.92067226 
   92400    214.12527   -610.42376    135633.31   -41499.743    2664.1255   -44163.869    31.887139   0.92081723 
   92500     214.5982   -679.92286    135776.23   -41550.108    2670.0096   -44220.118    31.942047   0.91984797 
   92600    219.43059   -735.09548    135858.31   -41523.051    2730.1337   -44253.184    31.995046   0.91929223 
   92700    218.80907   -730.62757     135693.9   -41516.023    2722.4009   -44238.424    31.967167   0.92040609 
   92800    214.72768   -715.60481    135736.32   -41569.891    2671.6206   -44241.512    31.866507   0.92011844 
   92900    215.83839   -584.23447    135728.68   -41534.139    2685.4399   -44219.579    31.975436   0.92017026 
   93000    214.78102   -595.74689    135654.64   -41554.807    2672.2842   -44227.092    31.930419   0.92067246 
   93100    214.96794   -737.34081    135618.35   -41489.806    2674.6099   -44164.416     32.00827    0.9209188 
   93200    217.33734   -690.96454     135670.1   -41503.957    2704.0897   -44208.046    31.916358   0.92056752 
   93300     218.0612   -675.08492    135508.85   -41534.755    2713.0959   -44247.851    31.849329   0.92166302 
   93400    216.18657   -605.78393    135409.25   -41573.853    2689.7719   -44263.625    31.859585   0.92234092 
   93500    211.04814   -719.84124    135549.49   -41624.837    2625.8402   -44250.677    32.007367   0.92138662 
   93600    209.96307   -711.19529    135508.86   -41691.062    2612.3398   -44303.402    32.084154   0.92166295 
   93700     215.1204   -668.10219    135414.44   -41665.656    2676.5068   -44342.163     32.01496   0.92230556 
   93800    212.77927    -754.3067    135369.75   -41630.577    2647.3786   -44277.956     32.05321   0.92261005 
   93900    214.62698   -675.47638    135430.36   -41607.039    2670.3676   -44277.407    32.131812   0.92219714 
   94000    214.98616    -568.4524    135685.53   -41619.159    2674.8366   -44293.995    32.136098   0.92046288 
   94100     215.3225   -773.04776     135704.4   -41632.025    2679.0213   -44311.046    31.982629   0.92033485 
   94200    215.75079   -727.15188    135678.06   -41625.443      2684.35   -44309.793    32.098538   0.92051354 
   94300    212.83203   -696.02187    135662.91   -41581.014    2648.0351   -44229.049    32.179902   0.92061632 
   94400    215.60908   -805.52581    135558.05   -41570.429    2682.5869   -44253.015    32.273346   0.92132844 
   94500    215.43305   -754.18419    135350.66   -41513.958    2680.3967   -44194.355    32.139051   0.92274015 
   94600    216.92309   -735.21541    135377.89   -41549.196    2698.9357   -44248.132    32.090477    0.9225546 
   94700    213.76818   -713.75728    135500.68   -41598.024    2659.6826   -44257.707    32.143717   0.92171853 
   94800    213.35571   -662.24123    135540.27   -41595.228    2654.5507   -44249.779    32.126206   0.92144931 
   94900     213.7132   -684.01949    135580.37   -41563.116    2658.9985   -44222.115    32.332724   0.92117677 
   95000    215.38427   -873.55791    135590.26   -41552.755    2679.7899   -44232.545    32.404054   0.92110961 
   95100    215.71193    -687.1339    135600.84   -41545.506    2683.8666   -44229.372    32.424564   0.92103776 
   95200    211.91765   -685.07151    135631.14    -41555.25    2636.6584   -44191.909    32.431663   0.92083199 
   95300    220.15065   -772.39053    135702.93   -41465.393    2739.0926   -44204.485    32.196438   0.92034486 
   95400    215.85021   -607.07543    135561.52   -41535.461     2685.587   -44221.048    32.191637   0.92130486 
   95500    217.31013   -732.38727    135633.36   -41540.302    2703.7511   -44244.053    32.264236   0.92081691 
   95600    218.31603   -682.70617    135797.65   -41528.741    2716.2665   -44245.008    32.407384   0.91970292 
   95700    215.67186   -673.29999    135834.24   -41591.982    2683.3679    -44275.35    32.427208   0.91945514 
   95800    214.78308   -788.70692     135834.8   -41647.879    2672.3098   -44320.188    32.579661   0.91945139 
   95900    215.53395   -813.90284    135734.81   -41614.337    2681.6521   -44295.989    32.588464   0.92012871 
   96000    211.80134   -666.25809    135701.39   -41696.685    2635.2113   -44331.896    32.590972   0.92035528 
   96100    214.47337   -615.03586    135656.62   -41641.074    2668.4564   -44309.531    32.526331   0.92065899 
   96200    214.67459   -743.57316    135683.97   -41670.106      2670.96   -44341.066    32.406892   0.92047345 
   96300    215.23849   -655.39374    135745.05    -41622.47     2677.976   -44300.446    32.563444   0.92005925 
   96400    213.80802   -663.60666    135751.45   -41592.065    2660.1782   -44252.243    32.502579   0.92001589 
   96500     213.9789   -570.98065    135797.19   -41636.232    2662.3044   -44298.537    32.561968   0.91970601 
   96600    215.84326   -692.41898    135775.53    -41631.42    2685.5005    -44316.92    32.577544   0.91985272 
   96700    212.18799   -691.03506    135845.56   -41709.582     2640.022   -44349.603    32.701875   0.91937854 
   96800    210.04607   -699.28975     135775.7   -41758.137    2613.3724   -44371.509    32.818355    0.9198516 
   96900    211.49977   -646.27737    135758.44   -41687.007    2631.4592   -44318.466    32.697878   0.91996851 
   97000    217.12209    -584.7616    135855.98   -41689.068    2701.4116    -44390.48    32.750782   0.91930799 
   97100    209.96467   -711.08283     135973.8   -41685.837    2612.3596   -44298.196    32.780739   0.91851147 
   97200    212.03994   -844.55876    136021.03   -41688.195      2638.18   -44326.375    32.798153   0.91819249 
   97300    211.44076   -750.81859    135828.82   -41690.792     2630.725   -44321.517    32.685914   0.91949182 
   97400    212.86646   -697.38211    135808.77   -41692.269    2648.4634   -44340.733    32.775694   0.91962761 
   97500    215.29454   -698.84104    135786.22   -41610.675    2678.6734   -44289.348    32.778291   0.91978028 
   97600    214.39699   -693.41344    135871.98   -41674.048    2667.5061   -44341.554    32.809848   0.91919974 
   97700    215.96816   -703.39777    135825.67   -41611.644    2687.0545   -44298.699    32.805394   0.91951319 
   97800    215.84349    -754.1459     135759.3   -41586.709    2685.5033   -44272.212    32.823923   0.91996271 
   97900    219.42737   -625.81472    135635.08   -41552.519    2730.0937   -44282.613    32.828752   0.92080524 
   98000    217.30183   -712.30565    135625.54   -41577.153    2703.6479   -44280.801    32.861179   0.92087001 
   98100    211.11019   -746.11375    135419.32   -41642.411    2626.6121   -44269.023    32.955459   0.92227231 
   98200     217.1348   -692.87354    135479.74    -41608.98    2701.5697   -44310.549    33.109589   0.92186102 
   98300    213.09897   -736.76814    135499.75   -41630.892    2651.3563   -44282.249    32.960971   0.92172491 
   98400    210.61752   -786.35265    135441.39   -41641.374    2620.4824   -44261.857    32.898162   0.92212203 
   98500    211.63477   -643.40703    135427.52    -41645.24    2633.1389   -44278.378    32.949728   0.92221645 
   98600    215.03081   -759.08106    135479.87   -41672.761     2675.392   -44348.153     33.12029   0.92186013 
   98700    212.58374   -676.66131    135440.01   -41724.666    2644.9459   -44369.612    32.973618   0.92213145 
   98800    215.39142   -647.77368    135491.26   -41705.623    2679.8787   -44385.501    33.079257   0.92178262 
   98900    212.13695   -806.54305    135483.39   -41710.758     2639.387   -44350.145    32.991698   0.92183616 
   99000    205.84371   -755.94651    135400.55   -41743.679    2561.0871   -44304.766     33.04496   0.92240016 
   99100    212.21625   -693.87624    135496.53   -41660.781    2640.3736   -44301.155    33.066685   0.92174682 
   99200    215.29607   -729.49756    135419.46   -41655.174    2678.6924   -44333.866    33.066999   0.92227136 
   99300    215.01685   -804.18358    135340.75   -41614.702    2675.2184    -44289.92    33.027337   0.92280774 
   99400    217.03253   -739.20374    135338.55   -41587.158    2700.2972   -44287.456     33.05015   0.92282271 
   99500    218.84584   -690.04462    135250.85   -41460.109    2722.8583   -44182.967    33.225977   0.92342114 
   99600    217.88381   -790.83728    135270.35   -41479.556    2710.8888   -44190.445    33.416166   0.92328798 
   99700    219.85717   -711.76283     135270.3   -41488.794    2735.4412   -44224.236     33.29929   0.92328831 
   99800     212.5369   -594.18171    135327.11   -41508.175    2644.3631   -44152.538    33.305264   0.92290078 
   99900    214.55544   -740.61819    135415.64   -41567.438    2669.4776   -44236.915    33.211436   0.92229741 
  100000    215.11787   -644.32554    135520.02    -41584.02    2676.4753   -44260.496    33.151808   0.92158701 
  100100    216.88714   -723.57161    135443.55   -41521.115    2698.4883   -44219.604    33.246747   0.92210731 
  100200    218.11898   -708.75289    135293.67   -41523.516    2713.8148   -44237.331    33.363717   0.92312885 
  100300    218.91281   -711.89502    135408.76   -41514.277    2723.6916   -44237.969    33.246261   0.92234426 
  100400    219.81156   -599.45053    135454.17   -41556.224    2734.8737   -44291.098    33.408633   0.92203505 
  100500    217.80861    -703.4583    135357.37   -41477.722    2709.9532   -44187.675    33.374854   0.92269442 
  100600    215.63124   -763.93414    135317.55   -41565.033    2682.8625   -44247.896    33.182046   0.92296598 
  100630     219.0279   -630.46351    135311.04   -41541.188    2725.1235   -44266.312    33.114113   0.92301038 
Loop time of 70.5173 on 6 procs for 100000 steps with 4175 atoms

Performance: 612.615 ns/day, 0.039 hours/ns, 1418.091 timesteps/s
98.2% CPU use with 6 MPI tasks x no OpenMP threads

MPI task timing breakdown:
Section |  min time  |  avg time  |  max time  |%varavg| %total
---------------------------------------------------------------
Pair    | 55.508     | 57.046     | 57.959     |   9.9 | 80.90
Neigh   | 4.8021     | 4.8292     | 4.8668     |   1.0 |  6.85
Comm    | 5.1353     | 6.0808     | 7.6724     |  31.5 |  8.62
Output  | 0.16023    | 0.16109    | 0.16479    |   0.4 |  0.23
Modify  | 1.7614     | 1.778      | 1.817      |   1.4 |  2.52
Other   |            | 0.6218     |            |       |  0.88

Nlocal:        695.833 ave         712 max         684 min
Histogram: 1 2 0 0 0 1 0 1 0 1
Nghost:        1449.67 ave        1462 max        1444 min
Histogram: 2 1 0 1 1 0 0 0 0 1
Neighs:        0.00000 ave           0 max           0 min
Histogram: 6 0 0 0 0 0 0 0 0 0
FullNghs:      18793.0 ave       19470 max       18290 min
Histogram: 1 0 2 0 1 1 0 0 0 1

Total # of neighbors = 112758
Ave neighs/atom = 27.007904
Neighbor list builds = 5283
Dangerous builds = 0

undump              1
unfix               2
unfix               3
unfix               4


################################################
#######         Run Simulation         #########
################################################

reset_timestep      0
log                 log.run_${NAME}
log                 log.run_liquid_density_MLmW
