
# Create simulation box of size 50 x 50 x 50 Angstrom
#
lattice	            sc 1
Lattice spacing in x,y,z = 1.0000000 1.0000000 1.0000000
region 	            all block 0 50 0 50 0 50 units box
create_box          1 all
Created orthogonal box = (0.0000000 0.0000000 0.0000000) to (50.000000 50.000000 50.000000)
  1 by 2 by 3 MPI processor grid

# fill box with 4175 randomly distributed atoms
#
create_atoms        1 random 4175 63782 all
Created 4175 atoms
  create_atoms CPU = 0.001 seconds
mass                1 18.015

# Define potential
#
pair_style          sw
pair_coeff          * * ML_mW.sw mW
Reading sw potential file ML_mW.sw with DATE: 2019-02-27

# Run minimization
#
minimize            1.0e-8 1.0e-8 10000 1000
WARNING: Using 'neigh_modify every 1 delay 0 check yes' setting during minimization (../min.cpp:187)
Neighbor list info ...
  update every 1 steps, delay 0 steps, check yes
  max neighbors/atom: 2000, page size: 100000
  master list distance cutoff = 6.0032907
  ghost atom cutoff = 6.0032907
  binsize = 3.0016454, bins = 17 17 17
  1 neighbor lists, perpetual/occasional/extra = 1 0 0
  (1) pair sw, perpetual
      attributes: full, newton on
      pair build: full/bin/atomonly
      stencil: full/bin/3d
      bin: standard
Per MPI rank memory allocation (min/avg/max) = 4.255 | 4.258 | 4.261 Mbytes
Step Temp E_pair E_mol TotEng Press 
       0            0    7792709.3            0    7792709.3    5898794.3 
     630            0   -45180.336            0   -45180.336   -154.07449 
Loop time of 1.15972 on 6 procs for 630 steps with 4175 atoms

99.4% CPU use with 6 MPI tasks x no OpenMP threads

Minimization stats:
  Stopping criterion = max force evaluations
  Energy initial, next-to-last, final = 
      7792709.32924461  -45180.0188663597   -45180.336116598
  Force two-norm initial, final = 2.0191930e+08 4.9721331
  Force max component initial, final = 1.0948746e+08 0.73126211
  Final line search alpha, max atom move = 0.053306038 0.038980685
  Iterations, force evaluations = 630 1000

MPI task timing breakdown:
Section |  min time  |  avg time  |  max time  |%varavg| %total
---------------------------------------------------------------
Pair    | 0.86846    | 0.98982    | 1.0468     |   6.2 | 85.35
Neigh   | 0.023734   | 0.024682   | 0.025816   |   0.4 |  2.13
Comm    | 0.068663   | 0.12534    | 0.24787    |  17.5 | 10.81
Output  | 0          | 0          | 0          |   0.0 |  0.00
Modify  | 0          | 0          | 0          |   0.0 |  0.00
Other   |            | 0.01988    |            |       |  1.71

Nlocal:        695.833 ave         704 max         685 min
Histogram: 1 1 0 0 1 0 0 1 0 2
Nghost:        1494.17 ave        1515 max        1468 min
Histogram: 1 1 0 0 0 0 1 1 1 1
Neighs:        0.00000 ave           0 max           0 min
Histogram: 6 0 0 0 0 0 0 0 0 0
FullNghs:      19997.0 ave       20462 max       19320 min
Histogram: 1 1 0 0 0 0 0 2 0 2

Total # of neighbors = 119982
Ave neighs/atom = 28.738204
Neighbor list builds = 26
Dangerous builds = 0

# Add velocity/set timestep
#
velocity            all create ${TEMP} 120598 rot yes dist gaussian
velocity            all create 215 120598 rot yes dist gaussian
timestep            5.0

# Define output
#
compute	            1 all msd
thermo	            100
thermo_style        custom step temp press vol etotal ke pe c_1[4] density

# Neighbor lists
#
neigh_modify        delay 0 every 1 check yes

# Set fixes
#
fix                 1 all momentum 10 linear 1 1 1 rescale
fix                 2 all nve
fix                 3 all temp/csvr ${TEMP} ${TEMP} 500.0 928347
fix                 3 all temp/csvr 215 ${TEMP} 500.0 928347
fix                 3 all temp/csvr 215 215 500.0 928347
fix                 4 all press/berendsen iso ${PRES} ${PRES} 1000.0 modulus 20000
fix                 4 all press/berendsen iso 200 ${PRES} 1000.0 modulus 20000
fix                 4 all press/berendsen iso 200 200 1000.0 modulus 20000

# Run 0.5 ns equilibration
#
dump                1 all custom 1000 eq.${NAME}.dump id type x y z vx vy vz
dump                1 all custom 1000 eq.liquid_density_MLmW.dump id type x y z vx vy vz
run                 100000
Per MPI rank memory allocation (min/avg/max) = 3.506 | 3.508 | 3.511 Mbytes
Step Temp Press Volume TotEng KinEng PotEng c_1[4] Density 
     630          215    824.17143       125000   -42505.327    2675.0087   -45180.336 2.7295415e-33   0.99914793 
     700    137.23236    131.44848    125293.24   -41684.867    1707.4314   -43392.298   0.25056532   0.99680949 
     800    170.76375    35.637786    125238.68   -40942.615    2124.6257   -43067.241   0.59017849   0.99724374 
     900    187.45498    254.60894    124998.41   -40529.758    2332.2963   -42862.054    1.0029018   0.99916062 
    1000    197.62412    334.00404     124899.9   -40257.618    2458.8197   -42716.437    1.4465196   0.99994867 
    1100    207.85646    275.62833    125095.17   -40083.566    2586.1295   -42669.696      1.83942   0.99838783 
    1200    206.02731    333.11957    125003.06   -40126.847    2563.3714   -42690.218    2.2251735   0.99912347 
    1300    211.71656    349.03343    125138.51   -40125.693    2634.1566   -42759.849    2.6323672   0.99804205 
    1400    213.00827    296.53984     125458.8   -40159.308    2650.2279   -42809.536    2.9559543   0.99549405 
    1500    209.19286    387.16914    125345.81   -40128.517    2602.7569   -42731.274    3.3059494    0.9963914 
    1600      216.835    237.41456    125384.28   -40032.763    2697.8396   -42730.602    3.6111242   0.99608574 
    1700    214.23641     139.7662    125415.84   -40056.014    2665.5082   -42721.523    3.9842199   0.99583508 
    1800    212.45459    323.23145    125238.42   -40137.448     2643.339   -42780.787    4.2498114   0.99724584 
    1900    212.51754    370.57639    125462.56   -40128.159    2644.1222   -42772.282    4.5314073   0.99546423 
    2000    215.84913    147.60036    125635.65   -40085.972    2685.5735   -42771.545    4.8354995   0.99409281 
    2100     219.3758    96.861458     125678.2   -40051.884    2729.4521   -42781.336    5.1257789   0.99375624 
    2200    216.30005    190.62707    125749.46   -40096.333    2691.1838   -42787.517    5.4677922   0.99319307 
    2300    216.83225    297.74141    125794.68   -40103.642    2697.8054   -42801.447    5.7331344   0.99283605 
    2400    217.04279    21.705894    125647.62    -40131.73    2700.4249   -42832.155    5.9960276   0.99399806 
    2500    221.74008    422.64295    125769.18   -40121.519    2758.8681   -42880.387    6.2255456   0.99303737 
    2600    221.83344    265.75789    125885.23   -40092.889    2760.0297   -42852.919    6.5406781   0.99212188 
    2700    223.69959    143.79028    125816.12   -40126.128    2783.2482   -42909.377    6.7967461   0.99266685 
    2800    221.75453     254.2094    125793.58   -40116.708     2759.048   -42875.756    7.0373337   0.99284468 
    2900    213.71066    411.51525    126077.66   -40176.837    2658.9669   -42835.803     7.371219   0.99060759 
    3000    215.88146    94.901302    125997.48   -40207.763    2685.9758   -42893.739    7.6199214   0.99123797 
    3100    215.79484    319.59051    126135.18   -40175.947    2684.8981   -42860.845    7.7499296   0.99015593 
    3200    214.93908    179.44541    126088.23   -40228.536    2674.2508   -42902.786    7.8930749   0.99052454 
    3300    219.04584    181.87182    126316.54   -40230.086    2725.3466   -42955.432    8.2048002   0.98873429 
    3400    219.11041     199.9861    126304.14   -40272.753      2726.15   -42998.903     8.450004   0.98883134 
    3500    212.35334    270.93991    126443.19    -40294.95    2642.0792    -42937.03    8.6841307   0.98774387 
    3600    210.61066    338.80307    126496.99   -40340.127    2620.3971   -42960.524    9.0116676   0.98732384 
    3700     210.7193    328.55787    126567.02   -40399.921    2621.7487    -43021.67    9.1511346   0.98677756 
    3800    215.45714    263.15117    126680.76   -40360.148    2680.6965   -43040.844    9.4148486   0.98589153 
    3900    213.25751    367.25282    126556.91    -40393.96    2653.3289   -43047.289    9.5793225   0.98685635 
    4000    213.51568    254.63256    126670.39   -40391.727     2656.541   -43048.268    9.7490359   0.98597229 
    4100    211.05825    72.212845    126596.24   -40383.429    2625.9658   -43009.395    9.9066708   0.98654977 
    4200    218.02138    299.19811    126755.76   -40396.466    2712.6005   -43109.066    10.197129   0.98530821 
    4300    214.75379    227.26972    127074.17   -40402.291    2671.9455   -43074.236    10.406244   0.98283932 
    4400    213.80826    197.61768     126825.6   -40399.427    2660.1813   -43059.608    10.671102   0.98476561 
    4500    211.85291    289.35274    126834.11   -40413.836     2635.853   -43049.689    10.890744   0.98469955 
    4600    211.49099    338.11892    126827.07   -40453.375      2631.35   -43084.725    11.234001    0.9847542 
    4700    211.92105    117.09572     126833.1   -40385.137    2636.7008   -43021.838    11.449766    0.9847074 
    4800    213.72174    417.75185    126959.03   -40453.265    2659.1047   -43112.369    11.584337   0.98373066 
    4900    219.52326    296.97953    127107.26   -40341.057    2731.2866   -43072.343    11.648197   0.98258342 
    5000    217.93208    332.27051    127085.46    -40301.85    2711.4893    -43013.34    11.847321   0.98275201 
    5100     214.4781    78.831372    126882.08   -40372.104    2668.5153   -43040.619    12.004273   0.98432727 
    5200    218.73013    278.21992    126780.21   -40432.617    2721.4187   -43154.036    12.191537   0.98511821 
    5300    218.78503    305.15772    127048.06    -40415.36    2722.1018   -43137.462    12.532613    0.9830413 
    5400    215.27748    390.44748    127087.84   -40459.358    2678.4611   -43137.819    12.786152   0.98273357 
    5500    214.03605    258.42289    127131.42   -40465.759    2663.0154   -43128.774    12.974776   0.98239671 
    5600    217.97172    180.47787    127345.28   -40465.182    2711.9826   -43177.165    13.268097    0.9807469 
    5700    215.07171    244.49423    127289.63   -40457.502     2675.901   -43133.403    13.521399   0.98117571 
    5800    214.20497    271.56944    127412.87   -40492.106    2665.1171   -43157.223    13.795914   0.98022663 
    5900    215.57376    205.65463    127412.12   -40519.119    2682.1475   -43201.267    13.873575   0.98023245 
    6000    215.46619    286.73456    127420.12   -40522.273    2680.8091   -43203.082     13.96003   0.98017087 
    6100    218.18941    269.79589    127343.31   -40468.123     2714.691   -43182.814    14.139801   0.98076209 
    6200    211.45321    228.23256    127280.66   -40536.786    2630.8799   -43167.665    14.192861   0.98124486 
    6300    213.73333    177.49254    127191.07   -40503.413    2659.2489   -43162.662    14.480521   0.98193604 
    6400    215.41456    187.26046    127274.23   -40478.313    2680.1667    -43158.48    14.726617   0.98129439 
    6500    215.02447    251.84486    127413.49   -40431.284    2675.3133   -43106.597    14.813043   0.98022189 
    6600    213.17397  -0.70652384    127508.98   -40502.584    2652.2895   -43154.873    15.048245   0.97948781 
    6700    214.11436    100.25584    127262.56   -40568.274    2663.9897   -43232.263    15.216199   0.98138443 
    6800    215.77211    226.14734    127255.48   -40486.874    2684.6153   -43171.489    15.455886   0.98143899 
    6900    220.43944    239.31536     127441.9   -40425.885    2742.6857   -43168.571    15.703065   0.98000333 
    7000    217.17171    178.39292    127543.25   -40425.492    2702.0289   -43127.521    15.779565   0.97922464 
    7100    218.26475    389.44647    127440.49   -40443.912    2715.6284    -43159.54    16.046634   0.98001422 
    7200    216.51304    65.107872    127456.41   -40505.733    2693.8339   -43199.567    16.326456    0.9798918 
    7300    211.88404    306.94728    127354.52   -40564.159    2636.2403   -43200.399    16.453876   0.98067579 
    7400    213.65088    328.27172    127561.55   -40602.958    2658.2231   -43261.181    16.786718   0.97908414 
    7500    217.08463    182.52041    127462.44    -40582.35    2700.9455   -43283.295    16.777678   0.97984543 
    7600    210.36027    89.154662     127484.1   -40672.194    2617.2817   -43289.476    17.019195   0.97967896 
    7700    219.82939    196.94066    127535.77   -40574.555    2735.0956   -43309.651    17.232964   0.97928205 
    7800    216.03484    227.29416    127697.63   -40574.924    2687.8841   -43262.808    17.328665   0.97804081 
    7900    212.61971    149.43825    127770.78   -40656.895    2645.3934   -43302.289    17.345595   0.97748082 
    8000    215.74122    129.27489    127778.94   -40631.988    2684.2309   -43316.219    17.525884   0.97741845 
    8100    209.20069    170.99518    127958.41   -40688.605    2602.8543   -43291.459     17.64319   0.97604757 
    8200    211.56406    150.50417    127930.29   -40705.676    2632.2592   -43337.935    17.911781    0.9762621 
    8300    210.81947    179.98649    127985.24   -40688.918     2622.995   -43311.913    18.257654   0.97584296 
    8400    211.93119     213.3688    127934.16   -40638.215    2636.8269   -43275.042    18.380972   0.97623257 
    8500    215.57596    177.80158    127950.69   -40561.055    2682.1748    -43243.23    18.470659   0.97610645 
    8600    214.94903    280.09036    127783.28   -40576.473    2674.3746   -43250.848    18.676271   0.97738523 
    8700    213.80506    161.58118    127778.64   -40549.301    2660.1414   -43209.443    18.717929   0.97742073 
    8800    211.12883    138.28384    127583.97   -40571.143    2626.8441   -43197.987    18.960365   0.97891208 
    8900    207.99268    308.61965    127603.98   -40640.283    2587.8244   -43228.107     19.13607   0.97875858 
    9000    211.90943    205.32832    127624.14   -40581.378    2636.5562   -43217.935    19.401552   0.97860396 
    9100    212.44256     382.7331    127628.33   -40642.942    2643.1893   -43286.132    19.468289   0.97857183 
    9200    215.64111    186.67546    127808.51   -40557.912    2682.9853   -43240.897    19.589063   0.97719231 
    9300    214.35964    215.28731    127687.38   -40622.047    2667.0415   -43289.088    19.779129   0.97811933 
    9400    212.85645    199.73923    127854.36   -40584.055    2648.3389   -43232.394    19.976057   0.97684189 
    9500    215.81059    225.05471    127747.76    -40614.55    2685.0941   -43299.644    20.126717   0.97765702 
    9600    216.65069    191.27435    127810.81    -40559.08    2695.5465   -43254.627    20.209739   0.97717471 
    9700    216.91737    141.71904    127894.71   -40493.491    2698.8645   -43192.356    20.577631   0.97653364 
    9800      212.451    230.92125    127774.82   -40575.074    2643.2944   -43218.368    20.955572   0.97744998 
    9900    212.06344    10.680619     127569.5   -40654.788    2638.4723    -43293.26    21.057493    0.9790231 
   10000    212.82677    255.68743    127589.21   -40659.385    2647.9697   -43307.354    21.075954   0.97887189 
   10100    213.65518    279.69473     127769.3   -40633.906    2658.2767   -43292.183    21.474665   0.97749221 
   10200    212.41792    194.16513     127807.6   -40691.445    2642.8828   -43334.328    21.567472   0.97719926 
   10300    213.99777    212.97469    127931.32   -40674.847    2662.5391   -43337.386    21.731364   0.97625425 
   10400    217.11361    130.24797    128225.21   -40624.521     2701.306   -43325.827    21.925725   0.97401667 
   10500    215.24951    331.27973    128201.94   -40616.544    2678.1131   -43294.657     21.85858   0.97419343 
   10600      216.601    175.92175    128072.66   -40546.575    2694.9283   -43241.503    21.935149    0.9751768 
   10700    219.92266    481.24917    128143.51   -40539.397     2736.256   -43275.653    22.266136    0.9746377 
   10800    217.17201     139.0889    128076.88   -40525.827    2702.0327    -43227.86    22.528357   0.97514468 
   10900    215.11633    329.00359    128064.09   -40541.754    2676.4561    -43218.21    22.736177    0.9752421 
   11000     217.4303    129.69718    128058.41   -40527.279    2705.2463   -43232.525    22.894445   0.97528539 
   11100    211.92139    194.53964    128111.98   -40565.829     2636.705   -43202.534    23.122108   0.97487751 
   11200    217.55238     109.0515    127928.41    -40566.77    2706.7652   -43273.535    23.296969   0.97627639 
   11300    215.10241    332.68878    128042.27   -40552.896    2676.2829   -43229.179     23.30294   0.97540831 
   11400    218.78754    323.66386    127910.37   -40563.471    2722.1329   -43285.604    23.216976   0.97641408 
   11500    209.98552    330.30005    128063.48   -40594.811    2612.6191    -43207.43    23.460524   0.97524671 
   11600    216.79873    49.961403     128057.9   -40596.724    2697.3883   -43294.113    23.745016   0.97528926 
   11700    216.42597    201.16408     127877.5   -40503.027    2692.7505   -43195.778    23.779232    0.9766651 
   11800    214.02965    260.52165    128051.81   -40574.486    2662.9358   -43237.421    24.058941    0.9753356 
   11900    215.67022    147.07993     127869.3   -40593.466    2683.3475   -43276.814    24.119266   0.97672776 
   12000    213.57448    490.84527    127993.97   -40595.439    2657.2726   -43252.712    24.221763   0.97577634 
   12100    219.50469    267.65577    128119.69   -40560.829    2731.0557   -43291.884    24.380382   0.97481889 
   12200    217.37145    -5.045258    127974.56    -40568.41    2704.5141   -43272.925     24.65089   0.97592439 
   12300     212.1161    166.85281    127883.36   -40573.928    2639.1276   -43213.055    24.701863   0.97662038 
   12400    216.21816    194.99185    127909.87   -40540.946     2690.165   -43231.111    24.776248    0.9764179 
   12500    212.04802    289.59125    127891.52   -40619.742    2638.2805   -43258.022    24.893387   0.97655804 
   12600    212.55242    212.23021    128007.87   -40524.219    2644.5562   -43168.776    25.279663   0.97567043 
   12700    219.64751    247.68062    128053.97   -40512.926    2732.8326   -43245.758    25.486547   0.97531917 
   12800    219.15341     62.17325    128049.63   -40504.958     2726.685   -43231.643    25.876346    0.9753522 
   12900    218.98035    402.12355    128038.72   -40558.827    2724.5319   -43283.359    26.224198   0.97543537 
   13000    216.02502    322.35956    128095.22   -40507.183     2687.762   -43194.945    26.520785   0.97500511 
   13100    216.83785    332.84131    128226.92   -40516.997    2697.8751   -43214.872     26.56907   0.97400368 
   13200    222.39257     73.12628    128185.49   -40448.461    2766.9864   -43215.448    26.548621   0.97431849 
   13300    218.32907    196.10168    128172.43   -40495.735    2716.4288   -43212.164    26.591552   0.97441775 
   13400    215.62907     196.5958       128099   -40585.181    2682.8355   -43268.016    26.583784    0.9749763 
   13500    217.98651    226.32692    128257.16   -40626.496    2712.1666   -43338.662    26.981413   0.97377403 
   13600    213.00971    313.38196    128127.35   -40655.184    2650.2458    -43305.43    27.227376   0.97476061 
   13700    213.59746    242.85835    128044.49   -40660.348    2657.5585   -43317.907    27.418902   0.97539136 
   13800    215.07719    216.08961    128329.52   -40574.557    2675.9691   -43250.526    27.605324   0.97322492 
   13900     215.5318    89.562704    128542.51    -40616.11    2681.6253   -43297.735    27.778453   0.97161236 
   14000     217.6099    315.94786    128537.68   -40618.422    2707.4809   -43325.903    27.783014   0.97164885 
   14100    210.29053    322.22384    128550.71   -40632.542     2616.414   -43248.956    27.828084    0.9715504 
   14200    212.93527    196.88168    128668.66   -40683.684    2649.3195   -43333.003    28.121051   0.97065975 
   14300    211.76187    29.620278    128489.85   -40730.133    2634.7203   -43364.853    28.075009   0.97201055 
   14400    212.35767    491.89593    128600.56   -40694.594    2642.1331   -43336.727    28.169885   0.97117374 
   14500    215.66331    269.82859    128823.15   -40652.532    2683.2616   -43335.794    28.530236    0.9694957 
   14600    215.35459    160.50152    129001.24   -40646.303    2679.4205   -43325.723    28.819312   0.96815728 
   14700    213.76917    62.531085    128949.54   -40681.625    2659.6948    -43341.32    28.868311   0.96854548 
   14800    210.72279    167.58445    128874.63   -40712.892    2621.7921   -43334.684    28.931154   0.96910842 
   14900    210.19218    209.68167    128860.19   -40776.542    2615.1903   -43391.732    29.087573     0.969217 
   15000    210.25257     181.9098    128717.64   -40795.119    2615.9417   -43411.061    29.147835   0.97029037 
   15100    209.57454    396.72121     128876.9   -40823.168    2607.5057   -43430.674    29.224698   0.96909137 
   15200    214.18854    257.10928    129076.15   -40753.247    2664.9126   -43418.159    29.440219   0.96759541 
   15300    213.99227    364.92973    128878.06   -40759.903    2662.4707   -43422.373    29.435618   0.96908266 
   15400    213.67776    138.93118    129165.92   -40759.665    2658.5575   -43418.222    29.590112   0.96692297 
   15500      213.131    129.89963     129039.4   -40748.515    2651.7549    -43400.27    29.634014   0.96787095 
   15600    217.35736    214.65023    129200.11   -40708.209    2704.3388   -43412.548    30.088052   0.96666707 
   15700    213.48081    135.91753     129276.9   -40801.481    2656.1071   -43457.588    30.107285    0.9660929 
   15800    211.58416    440.26274    129168.85   -40801.143    2632.5092   -43433.652    30.274489   0.96690103 
   15900    212.71299    132.35599    129296.95   -40836.119     2646.554   -43482.673    30.458521   0.96594303 
   16000    214.13711    265.21477    129338.24   -40775.516    2664.2728   -43439.788    30.486022   0.96563468 
   16100    214.28067    179.91067     129101.8   -40727.454     2666.059   -43393.513    30.450091   0.96740316 
   16200    215.54666     158.0224    129040.56   -40768.823    2681.8102   -43450.633    30.703403   0.96786228 
   16300     212.3722    174.42413    129124.41    -40787.72    2642.3139   -43430.034    30.964456    0.9672338 
   16400    219.18034    205.39827    129085.15   -40689.108    2727.0201   -43416.128    30.894665   0.96752796 
   16500    221.76338    315.52967    129111.01   -40693.424     2759.158   -43452.582    30.916002   0.96733414 
   16600    215.39588    293.15407    129129.59   -40684.923    2679.9343   -43364.857    31.001822   0.96719499 
   16700    212.89113    179.88108    129183.98   -40707.109    2648.7704    -43355.88    31.050799   0.96678774 
   16800    217.64311    244.97456    129220.98   -40683.855     2707.894   -43391.749    31.161634   0.96651096 
   16900    217.35398    155.05116    129203.65   -40665.177    2704.2968   -43369.473    31.344745   0.96664055 
   17000    216.00658    284.98839    129223.27   -40693.847    2687.5325   -43381.379    31.489735   0.96649378 
   17100    218.57092    241.57389     129215.6   -40627.666    2719.4378   -43347.104     31.67816   0.96655122 
   17200    214.17897    126.45167    129005.67   -40642.487    2664.7936   -43307.281     31.90937   0.96812401 
   17300    215.24516    233.99281    129075.81   -40688.352     2678.059   -43366.411    32.161609   0.96759795 
   17400    213.89592    99.445015    129017.34   -40717.078    2661.2719    -43378.35    32.239007    0.9680365 
   17500     215.0169    131.23598    129116.26   -40686.124     2675.219   -43361.343    32.018187   0.96729487 
   17600    216.78291    196.53164    129129.49   -40660.063    2697.1916   -43357.254    32.159711    0.9671957 
   17700    213.91549    207.90936    128950.02   -40679.102    2661.5153   -43340.617    32.234702   0.96854188 
   17800    213.26978    353.69365       129110   -40667.315    2653.4815   -43320.796    32.264617   0.96734177 
   17900    217.77947    223.13377    129200.25   -40639.341    2709.5906   -43348.932    32.344991   0.96666598 
   18000    221.31841    156.70672    129018.59   -40585.415    2753.6218   -43339.037    32.644632   0.96802713 
   18100    216.48042    231.83516    128942.67   -40682.471     2693.428   -43375.899    32.606649   0.96859709 
   18200    212.87484     163.0285    129000.06   -40669.439    2648.5677   -43318.007    32.645408   0.96816611 
   18300     221.6777    216.43206    128976.46   -40589.876    2758.0921   -43347.968     32.86915   0.96834327 
   18400    218.03773     86.49802    128926.15    -40659.03    2712.8039   -43371.834    33.143518   0.96872116 
   18500    216.98717      289.068    128811.53   -40620.085    2699.7329   -43319.818    33.418083   0.96958319 
   18600    212.65144    233.26919    128769.58   -40671.741    2645.7882   -43317.529    33.340511   0.96989905 
   18700    214.72709    25.303919    128886.44   -40637.769    2671.6132   -43309.382    33.694144    0.9690196 
   18800    215.63674    273.34177    128935.72    -40617.75     2682.931   -43300.681    33.866226   0.96864924 
   18900    215.86492    64.136099    128911.01   -40657.967      2685.77   -43343.737    34.041275   0.96883497 
   19000     216.0728    188.51539    128923.78    -40654.06    2688.3565   -43342.417    34.133571   0.96873899 
   19100     218.0141    210.33689    129001.22   -40724.385    2712.5098   -43436.895    34.094271   0.96815746 
   19200    216.15202    278.71024    128921.09    -40709.63    2689.3421   -43398.972    34.133247   0.96875923 
   19300    218.73128    195.03696    128993.94   -40674.272    2721.4329   -43395.705     34.27119   0.96821206 
   19400    216.72046    134.79234    129008.97   -40689.424    2696.4145   -43385.838    34.513028   0.96809931 
   19500    217.36264    131.15665    128901.08   -40685.362    2704.4045   -43389.766    34.700426   0.96890955 
   19600    217.63742    13.161684    128801.12   -40725.884    2707.8233   -43433.708     34.76792   0.96966151 
   19700     213.8198    296.51943    128771.02   -40710.355    2660.3248    -43370.68     35.04768    0.9698882 
   19800    214.04614    92.972088    128752.41   -40738.905    2663.1409   -43402.046    34.952691   0.97002835 
   19900    214.47506    17.429086    128840.44   -40747.679    2668.4775   -43416.156     35.14908   0.96936557 
   20000    211.56768    200.08319    128743.47   -40781.019    2632.3041   -43413.323    35.157322   0.97009572 
   20100    215.34375    27.990074    128833.86   -40727.131    2679.2856   -43406.416    35.314224   0.96941509 
   20200    214.52085    152.77962    128835.51   -40761.206    2669.0473   -43430.253    35.390575   0.96940269 
   20300    211.19173    160.73801    128781.86   -40791.005    2627.6266   -43418.631    35.488754   0.96980655 
   20400    215.59411    432.49678    128840.99   -40792.175    2682.4005   -43474.576    35.909737   0.96936144 
   20500    214.72174    237.89293    128960.46   -40775.486    2671.5466   -43447.032    36.197008   0.96846345 
   20600    212.23524    275.90572    129043.38   -40806.926    2640.6098   -43447.536    36.186821   0.96784116 
   20700    214.05994    223.08405    129242.06   -40747.871    2663.3126   -43411.183    36.209034    0.9663533 
   20800    215.79484    160.85455    129180.69   -40756.022    2684.8981    -43440.92    36.339487   0.96681237 
   20900    214.22122    318.56969    129165.72   -40807.622    2665.3193   -43472.941     36.36003   0.96692444 
   21000     212.1106    282.81979    129129.88    -40894.22    2639.0591   -43533.279    36.540967   0.96719282 
   21100    211.44994    65.588254    129137.78   -40913.432    2630.8392   -43544.271    36.706187   0.96713367 
   21200    210.25193     145.3508     129089.9   -40872.155    2615.9338   -43488.089    36.823595   0.96749238 
   21300    209.07932    392.89618    129006.37   -40889.662    2601.3442   -43491.007    36.687359   0.96811881 
   21400    213.28102    340.74573    129082.03   -40851.324    2653.6213   -43504.946    36.619338   0.96755138 
   21500    213.76642    352.21279    129120.18   -40838.119    2659.6607    -43497.78    37.020934   0.96726549 
   21600    213.14883    133.67967    129280.43   -40794.758    2651.9767   -43446.735    37.247706   0.96606649 
   21700    213.39634    25.247059    129076.24    -40772.53    2655.0562   -43427.587    37.392019   0.96759478 
   21800    215.37106    69.430866    129045.93   -40754.505    2679.6255   -43434.131     37.50318   0.96782201 
   21900    218.09343    252.33586    129136.86   -40772.624    2713.4968   -43486.121     37.63734   0.96714051 
   22000    212.35277    211.89178    129221.72   -40808.991    2642.0722   -43451.063    37.947218   0.96650542 
   22100    218.00277    106.09721     129122.6   -40735.493    2712.3689   -43447.862    38.011894   0.96724735 
   22200    216.40796    246.20964    129242.87   -40772.384    2692.5264    -43464.91    38.201483   0.96634728 
   22300    218.06474    121.47058    129301.29   -40752.462      2713.14   -43465.602    38.476932   0.96591061 
   22400    214.52746    248.39144    129258.53   -40710.524    2669.1295   -43379.653    38.620263   0.96623016 
   22500    215.87762    195.41372    129164.29   -40714.811     2685.928   -43400.739    38.636175   0.96693518 
   22600    218.90647    260.40053    129316.95   -40689.658    2723.6127   -43413.271    38.736666    0.9657937 
   22700    214.83616    325.06964    129303.49   -40701.447    2672.9703   -43374.417    38.843149   0.96589418 
   22800    221.85603    302.99657    129466.04   -40687.844    2760.3107   -43448.155    39.128733   0.96468149 
   22900    217.18206    68.050968    129482.89   -40742.247    2702.1578   -43444.405    39.279843   0.96455592 
   23000    216.82487    187.74091    129578.39   -40732.179    2697.7137   -43429.892    39.294148   0.96384503 
   23100    214.98907    137.89513    129571.82    -40835.21    2674.8727   -43510.082    39.472795   0.96389396 
   23200    219.09365     209.7155    129558.74   -40782.011    2725.9416   -43507.952    39.448183   0.96399124 
   23300    209.88603    100.37969    129626.16   -40820.664    2611.3813   -43432.045    39.518293   0.96348986 
   23400    216.73896    72.527426    129434.63   -40769.461    2696.6448   -43466.106    39.443313   0.96491562 
   23500    216.60252    316.64425    129558.46   -40812.339    2694.9471   -43507.286    39.488709   0.96399336 
   23600    216.26769    126.84982    129415.85   -40791.696    2690.7812   -43482.477    39.553241   0.96505563 
   23700    212.45348    155.57794    129412.82   -40821.384    2643.3251   -43464.709    39.550483   0.96507816 
   23800    212.24912    85.003036    129246.31   -40872.426    2640.7826   -43513.208    39.620298   0.96632154 
   23900    208.57688    329.86874     129513.7   -40873.563    2595.0929   -43468.656    39.966541   0.96432651 
   24000    210.23878    292.97787    129489.59    -40791.83    2615.7702     -43407.6    40.018553   0.96450604 
   24100    215.46056    330.07737    129438.69   -40777.799     2680.739   -43458.538    40.111822   0.96488531 
   24200    215.85766    184.71778    129439.22   -40836.254    2685.6796   -43521.933    40.261095   0.96488137 
   24300    212.46029    219.29762    129311.99   -40825.033    2643.4099   -43468.443    40.465246   0.96583069 
   24400    211.19502    330.65405     129300.7   -40875.254    2627.6675   -43502.922    40.534041   0.96591507 
   24500    216.62529    77.556511    129283.41    -40825.07    2695.2304   -43520.301     40.58132   0.96604422 
   24600    211.82552    118.00853    129212.35   -40818.393    2635.5122   -43453.905    40.719417    0.9665755 
   24700    213.15339    127.91257    129184.03   -40839.949    2652.0334   -43491.982    40.743035   0.96678737 
   24800    212.78953    190.05541     129254.6   -40828.467    2647.5063   -43475.973    40.871551   0.96625951 
   24900    216.39146    90.798464    129118.81    -40781.87    2692.3211   -43474.191    40.890854   0.96727573 
   25000    218.58765    155.94893    129038.44   -40738.623     2719.646   -43458.269    41.106411   0.96787819 
   25100    216.25792    173.57042    129104.51   -40742.024    2690.6597   -43432.684    40.966309   0.96738286 
   25200     214.7132    180.50858    129160.53   -40790.474    2671.4404   -43461.914    41.169053    0.9669633 
   25300    213.90863    115.89281    129130.62   -40799.941    2661.4301   -43461.371    41.045018   0.96718723 
   25400     211.7213    169.67032    129045.44     -40786.1    2634.2155   -43420.316    41.265406   0.96782567 
   25500    214.37769    283.04995    129104.87   -40742.391    2667.2661   -43409.657    41.332226   0.96738019 
   25600    213.93777    81.234606    128940.32   -40818.124    2661.7926   -43479.916    41.489889   0.96861469 
   25700    211.24025    244.72998    129020.48   -40824.043    2628.2303   -43452.274    41.491319   0.96801292 
   25800    214.55558    143.07956    128918.33   -40782.015    2669.4793   -43451.495    41.725548   0.96877994 
   25900    213.22248    249.98999    128932.42   -40736.681     2652.893   -43389.574     41.63696   0.96867408 
   26000    219.17739    212.42163    129056.35   -40674.765    2726.9834   -43401.748    42.035824   0.96774385 
   26100    217.52506     157.4064    129153.22    -40768.85    2706.4254   -43475.276    42.090594   0.96701804 
   26200    215.84892    250.27658    128991.28   -40763.346    2685.5709   -43448.917    42.204395   0.96823203 
   26300     215.1687    140.05397    129034.75   -40735.517    2677.1077   -43412.625    42.100215   0.96790589 
   26400    216.92656    313.53392    129013.48   -40725.189    2698.9789   -43424.168    42.097619   0.96806545 
   26500    218.48537    235.11904    129023.32   -40785.445    2718.3734   -43503.819     42.19483   0.96799161 
   26600    214.29443    368.53252    129134.26   -40830.865    2666.2302   -43497.095    42.535802   0.96716001 
   26700    212.24813    66.858008    129167.62   -40852.239    2640.7703    -43493.01    42.576946   0.96691025 
   26800    215.16621    17.723939    129309.75     -40787.9    2677.0768   -43464.977    42.719568   0.96584741 
   26900    215.78038    412.63067    129266.15    -40797.93    2684.7182   -43482.649     42.77125   0.96617319 
   27000    215.63875    147.82421     129559.5    -40837.88    2682.9561   -43520.836    42.894974   0.96398562 
   27100     218.4288    284.21092    129603.42   -40839.118    2717.6695   -43556.788    43.072254   0.96365891 
   27200     211.4577    168.17577    129375.81   -40845.257    2630.9358   -43476.193    42.980905   0.96535424 
   27300    205.92641    269.51682    129288.71   -40860.346     2562.116   -43422.462    43.217961   0.96600464 
   27400    213.89259    254.03755    129351.49   -40808.264    2661.2304   -43469.495    43.407561   0.96553574 
   27500    216.19304    246.03839    129151.95     -40752.1    2689.8524   -43441.952    43.746612   0.96702752 
   27600    218.50196    150.15678    129035.72    -40781.54    2718.5797    -43500.12    43.749319   0.96789861 
   27700    213.84891    361.73192    129056.54   -40777.206     2660.687   -43437.892    43.740661   0.96774242 
   27800    218.30041    163.27575    129296.42   -40704.137    2716.0721    -43420.21     44.05973   0.96594701 
   27900    218.06791     82.93785    129113.42   -40724.612    2713.1794   -43437.792    44.142471   0.96731613 
   28000    214.63963    333.22292    129019.21   -40759.055    2670.5251    -43429.58    44.380608   0.96802243 
   28100    216.27811    282.65608       129017   -40745.135    2690.9109   -43436.046    44.561571   0.96803902 
   28200     215.2502    324.93361    129050.95    -40797.13    2678.1218   -43475.252    44.687019   0.96778438 
   28300    213.34365    346.95267    129239.91   -40785.969    2654.4006   -43440.369     44.89838   0.96636938 
   28400    213.31363    216.51374    129145.28   -40815.627    2654.0271   -43469.654    44.782876   0.96707751 
   28500    209.23685    182.61899    129238.88   -40842.578    2603.3042   -43445.883    44.739194   0.96637709 
   28600    215.15678    363.97633    129256.55   -40788.055    2676.9594   -43465.014    44.838982   0.96624499 
   28700    215.50689    158.38221    129348.83   -40801.909    2681.3154   -43483.225    44.957233    0.9655556 
   28800    215.69206     380.2372    129292.11   -40770.375    2683.6193   -43453.994    45.192924   0.96597921 
   28900     217.3209     198.0422    129180.73   -40732.203    2703.8852   -43436.088    45.397041    0.9668121 
   29000    215.51313    184.71006     129329.1   -40803.744     2681.393   -43485.137    45.274898    0.9657029 
   29100    215.72132    171.91314    129196.86    -40759.54    2683.9833   -43443.523     45.09272   0.96669135 
   29200    217.71554    256.83679    129250.48   -40727.643    2708.7953   -43436.438    45.091813   0.96629033 
   29300    212.14677    59.886175    129160.15   -40794.923    2639.5091   -43434.432    45.201688   0.96696617 
   29400    216.59943    161.69236    129217.38   -40852.652    2694.9087    -43547.56    45.389335    0.9665379 
   29500    214.58254     96.83524    129361.94   -40888.078    2669.8147   -43557.893    45.629622   0.96545779 
   29600    212.33324    286.96942    129216.36   -40812.178    2641.8292   -43454.007    45.793146   0.96654549 
   29700    214.60276    250.41817    129334.33   -40849.147    2670.0663   -43519.213    45.875578   0.96566388 
   29800    213.57822     7.041144     129527.1   -40833.553     2657.319   -43490.872    45.921406   0.96422674 
   29900    212.61453    250.36881    129462.42   -40872.856    2645.3289   -43518.185    46.027426   0.96470847 
   30000     210.7688    267.55317    129586.06   -40854.242    2622.3646   -43476.606    46.097528     0.963788 
   30100    213.08148    205.91524     129554.4   -40874.703    2651.1387   -43525.842    46.113517   0.96402352 
   30200    214.03998    115.22923    129544.11   -40884.306    2663.0643    -43547.37    46.312627   0.96410009 
   30300    215.65203    193.70851    129709.24   -40851.279    2683.1213     -43534.4     46.60092   0.96287276 
   30400    214.63859    191.83198    129604.75   -40830.697    2670.5121   -43501.209    46.787192     0.963649 
   30500    214.85586     250.3651    129491.12    -40821.13    2673.2153   -43494.345    46.827343   0.96449464 
   30600    215.03745      108.624    129504.71   -40813.227    2675.4747   -43488.702    46.793735   0.96439346 
   30700    213.94867    306.41942     129417.2   -40820.894    2661.9282   -43482.822    46.722589    0.9650455 
   30800    216.01769    178.64175    129510.72   -40742.274    2687.6707   -43429.944    46.976864   0.96434865 
   30900    214.20367    99.512476    129434.85   -40850.462    2665.1009   -43515.563     47.19148   0.96491392 
   31000    209.23682    219.01809    129327.43   -40873.059    2603.3039   -43476.363    47.324135   0.96571541 
   31100    212.46586    210.06036    129275.76   -40859.326    2643.4793   -43502.805    47.349054   0.96610142 
   31200    214.71303    357.14922    129430.26   -40859.729    2671.4383   -43531.167    47.652845   0.96494817 
   31300    212.26838    182.88943    129304.67   -40816.257    2641.0222   -43457.279     47.68164   0.96588537 
   31400    217.08562    300.99612    129415.32   -40786.479    2700.9578   -43487.437    47.957898   0.96505956 
   31500    215.17899    146.68421    129435.55   -40842.845    2677.2357   -43520.081    47.945532   0.96490869 
   31600    216.37746    200.04824    129629.44   -40787.844    2692.1469   -43479.991    48.008145    0.9634655 
   31700     214.5135    181.12056    129442.98   -40823.618    2668.9558   -43492.574    48.073852   0.96485337 
   31800    213.44299     288.5659    129563.15   -40747.995    2655.6366   -43403.631    48.112991   0.96395847 
   31900    212.83948    189.82967    129647.65   -40742.691    2648.1278   -43390.819    48.441426   0.96333018 
   32000    216.92097     347.8312    129640.17   -40733.838    2698.9092   -43432.748    48.658101   0.96338575 
   32100    217.01394    196.14867    129530.34   -40739.041     2700.066   -43439.107    48.872243   0.96420259 
   32200    219.05449    86.308815    129351.79   -40728.088    2725.4543   -43453.542    49.046407   0.96553355 
   32300    219.21594     336.4505    129499.72   -40703.704     2727.463   -43431.167    49.022147   0.96443057 
   32400    211.76418    278.50339    129361.51   -40759.845     2634.749   -43394.594    49.092192   0.96546098 
   32500    218.70329    171.67043    129484.69   -40751.299    2721.0847   -43472.384    49.277489   0.96454253 
   32600    220.68606     166.1362    129581.75   -40703.337    2745.7542   -43449.091    49.346764   0.96382004 
   32700    213.26266    205.40032    129404.81   -40765.727     2653.393    -43419.12    49.787895   0.96513795 
   32800    213.07272    116.91248    129324.27   -40786.616    2651.0297   -43437.646    49.712838   0.96573899 
   32900    210.09837    80.493176    129308.64   -40769.065    2614.0231   -43383.088    50.033505   0.96585572 
   33000    211.92626    287.08469    129391.85   -40812.584    2636.7655    -43449.35      50.1455   0.96523463 
   33100    208.99408    358.18253    129319.79   -40741.547    2600.2837   -43341.831    50.075494   0.96577244 
   33200    214.73986    86.926307    129053.82    -40768.48    2671.7721   -43440.252    50.269498   0.96776283 
   33300    214.39885    151.33799    129129.98   -40711.358    2667.5292   -43378.887    50.267818   0.96719208 
   33400    212.32129    87.690401    129136.11   -40797.935    2641.6805   -43439.616    50.432644   0.96714616 
   33500    212.84557    232.99804    129180.85   -40767.649    2648.2036   -43415.852    50.558628   0.96681117 
   33600    211.73142    244.70581    129176.55   -40733.013    2634.3414   -43367.354    50.755443   0.96684333 
   33700    216.68632     78.54213    129128.24   -40722.189    2695.9897   -43418.179    50.709344   0.96720507 
   33800    214.04465    73.289628    128991.59   -40721.318    2663.1223    -43384.44    50.819101   0.96822973 
   33900    216.20519     264.0198    128946.87   -40728.843    2690.0036   -43418.847    50.975873    0.9685655 
   34000     215.8887    60.892189    129166.64   -40694.311    2686.0659   -43380.377    51.091706   0.96691754 
   34100    216.01448    221.89619    128953.83   -40728.054    2687.6308   -43415.685    51.199343   0.96851321 
   34200    214.84421    7.4719463    128855.01   -40735.653    2673.0704   -43408.723    51.258422   0.96925597 
   34300    210.07819    128.75811    128838.28   -40804.814    2613.7721   -43418.586    51.475755   0.96938189 
   34400    215.12757    -27.48771    128970.52   -40741.662     2676.596   -43418.258    51.672355   0.96838787 
   34500    216.85268    317.58346    129065.72   -40770.488    2698.0597   -43468.547    51.493354   0.96767361 
   34600     217.3806   -20.393859    128960.99   -40764.056    2704.6279   -43468.684    51.620536   0.96845945 
   34700    208.39067    151.38988    128829.93   -40840.642    2592.7762   -43433.418    51.967349   0.96944471 
   34800    212.05664    235.32979    128921.37   -40826.145    2638.3878   -43464.532    51.894974   0.96875707 
   34900     208.9024    384.51452    129028.96    -40837.13     2599.143   -43436.273    51.987335   0.96794928 
   35000    211.40667    145.52647     129046.8   -40911.273    2630.3009   -43541.574    52.031092   0.96781547 
   35100    211.36035    60.934031    128761.04   -40855.655    2629.7245   -43485.379    52.012878   0.96996334 
   35200    214.16722    254.72368    128535.62   -40848.985    2664.6473   -43513.633    52.119861   0.97166446 
   35300    211.68114    367.14829    128678.99   -40844.356    2633.7158   -43478.072    52.125412   0.97058182 
   35400    209.16751    195.51303    128758.94   -40853.824    2602.4415   -43456.266    52.443672   0.96997916 
   35500    215.44276     54.91691    128823.67   -40757.932    2680.5176   -43438.449    52.740607   0.96949182 
   35600    216.85275    144.47227    129029.56   -40807.232    2698.0605   -43505.292    52.765713   0.96794483 
   35700    215.75699    104.17578    129112.65   -40784.677    2684.4271   -43469.104     52.82833   0.96732189 
   35800    214.78739    255.62646    129113.71   -40829.941    2672.3635   -43502.305    52.884911   0.96731393 
   35900    214.75172     226.9188    129017.97   -40794.527    2671.9196   -43466.446    53.060299   0.96803174 
   36000    212.73188    101.64533    129008.69   -40756.107     2646.789   -43402.896    53.093929   0.96810142 
   36100    217.64257    292.47285    129041.31   -40775.936    2707.8873   -43483.823    52.960222   0.96785669 
   36200    214.67246    394.97966    129174.03   -40800.943    2670.9336   -43471.877    53.186637   0.96686224 
   36300    209.27721    212.55024    129320.24   -40872.851    2603.8063   -43476.657     53.36951   0.96576909 
   36400    217.11859    235.94429    129306.48   -40822.104     2701.368   -43523.472    53.430926   0.96587183 
   36500    213.92414    254.87589    129344.48   -40793.465    2661.6231   -43455.088    53.788726   0.96558808 
   36600     213.1838     149.1285    129347.18   -40902.126    2652.4117   -43554.537    53.752441   0.96556798 
   36700    215.01925    99.086333    129260.19   -40854.067    2675.2483   -43529.316    53.711538   0.96621779 
   36800    217.63214    259.33705    129382.92   -40856.667    2707.7576   -43564.424    53.978479   0.96530124 
   36900    214.05562    80.198524    129377.82   -40868.631    2663.2589   -43531.889    54.134833   0.96533925 
   37000    217.06233    204.39694    129448.26   -40791.714    2700.6681   -43492.382    54.358907   0.96481398 
   37100    215.30141   -28.471897    129336.38    -40769.81    2678.7589   -43448.569    54.412352    0.9656486 
   37200    209.85721    301.04432     129304.8    -40809.64    2611.0227   -43420.663    54.511913   0.96588442 
   37300    210.44576    155.72915    129304.47   -40815.523    2618.3453   -43433.868     54.63707   0.96588687 
   37400    213.13516    239.42259    129344.08   -40843.339    2651.8066   -43495.145    54.496495   0.96559107 
   37500    208.69305    223.23766    129284.91   -40843.278    2596.5383   -43439.816     54.54673   0.96603303 
   37600    216.45634    102.44718    129207.63    -40801.28    2693.1284   -43494.408    54.434516    0.9666108 
   37700     216.6629    405.62721    129211.62   -40810.185    2695.6983   -43505.883     54.60796   0.96658092 
   37800    213.48287    6.0300263    129374.02   -40923.124    2656.1327   -43579.257    54.801504   0.96536766 
   37900    209.94667    190.97429    129248.81   -40890.309    2612.1357   -43502.445    54.842926   0.96630286 
   38000    211.62251    244.92322    129307.67    -40858.91    2632.9864   -43491.896    55.087851   0.96586298 
   38100     217.2444    151.03424    129291.73   -40818.253    2702.9334   -43521.186    55.235559   0.96598209 
   38200    216.38912    260.64436    129250.52    -40822.81     2692.292   -43515.102    55.394376   0.96629003 
   38300    214.40161   -98.726305     129167.3   -40779.305    2667.5636   -43446.868    55.213523   0.96691262 
   38400    216.28918     269.9845    128919.63   -40859.547    2691.0485   -43550.596    55.306601   0.96877015 
   38500    215.30905    348.62996    128893.62   -40872.988    2678.8539   -43551.842    55.620644   0.96896567 
   38600    216.34382    237.51816    128858.12   -40835.859    2691.7284   -43527.587    55.705482    0.9692326 
   38700    215.31193    399.32453    128937.74   -40844.378    2678.8898   -43523.268    55.916884   0.96863406 
   38800    216.31523    376.83192    128996.96   -40864.697    2691.3728   -43556.069     56.05507   0.96818938 
   38900    214.87817    179.58616    129112.26   -40817.538    2673.4929   -43491.031    56.213279   0.96732481 
   39000    211.74982    277.86148    129161.34    -40873.04    2634.5703    -43507.61    56.463724   0.96695719 
   39100    213.62863    295.70479    129125.49   -40837.995    2657.9462   -43495.941    56.400488   0.96722568 
   39200    215.23449    259.66811    129337.89   -40862.311    2677.9263   -43540.238    56.337295   0.96563729 
   39300    216.15902    121.70307     129156.4   -40857.079    2689.4291   -43546.509     56.28916   0.96699424 
   39400    219.07035    129.74746    129426.26    -40833.12    2725.6517   -43558.772    56.443049   0.96497799 
   39500      218.479    28.851299     129292.6    -40814.21    2718.2941   -43532.505    56.702113   0.96597556 
   39600    217.45665    40.539394    129461.47   -40844.603    2705.5742   -43550.177    57.083323   0.96471551 
   39700    219.53643    136.32273    129506.54   -40798.516    2731.4506   -43529.967    57.439042   0.96437981 
   39800    216.72717    174.02728    129464.58    -40860.83     2696.498   -43557.328    57.306538   0.96469234 
   39900    216.98926    173.67506    129441.05   -40917.671    2699.7589   -43617.429    57.207664   0.96486775 
   40000      212.185    231.15372     129396.6   -40955.851    2639.9848   -43595.836     57.31476   0.96519917 
   40100     220.4675    373.97192    129442.73   -40867.515    2743.0349   -43610.549      57.4878   0.96485517 
   40200    211.36168    191.92369    129370.59   -40883.031    2629.7411   -43512.772    57.787372   0.96539326 
   40300    214.85961     365.2081    129674.38   -40855.614     2673.262   -43528.876     57.99701   0.96313162 
   40400    217.31584     129.0946    129575.27   -40767.201    2703.8221   -43471.023     57.90561   0.96386824 
   40500    220.65947    199.17921    129448.96   -40769.955    2745.4234   -43515.378    58.062669   0.96480876 
   40600    217.06987    234.97661     129462.5   -40819.151    2700.7618   -43519.912    57.920972   0.96470786 
   40700    217.69972    82.958586    129567.59   -40870.898    2708.5984   -43579.496    58.130394   0.96392539 
   40800    210.88507     320.7597    129573.94   -40919.244    2623.8112   -43543.055    58.254969   0.96387813 
   40900    211.46913    254.80452       129594    -40944.64     2631.078   -43575.718    58.341092   0.96372897 
   41000    220.54427    168.60259    129611.26   -40867.853      2743.99   -43611.843    58.223026   0.96360066 
   41100    217.15793     314.6827    129623.24   -40844.151    2701.8575   -43546.008    58.521285   0.96351159 
   41200    217.11611    69.340128    129676.35   -40883.705    2701.3372   -43585.042    58.765109   0.96311695 
   41300    210.14992    242.42618    129517.23   -41024.911    2614.6646   -43639.576    58.965828    0.9643002 
   41400    211.28875    166.42576    129685.12   -40969.954    2628.8337   -43598.788    59.109495   0.96305185 
   41500    211.34441    292.07115    129637.05    -40970.12    2629.5262   -43599.646    58.865035    0.9634089 
   41600    214.23754    191.41299    129695.67    -40938.15    2665.5222   -43603.672    58.874793    0.9629735 
   41700    211.95866    271.01752    129606.38   -40926.012    2637.1687   -43563.181    59.098637   0.96363691 
   41800    215.80358    152.26279    129600.13   -40943.461    2685.0068   -43628.467    59.296011   0.96368339 
   41900     214.6593    21.874666    129693.23   -40923.725    2670.7697   -43594.495    59.464678   0.96299161 
   42000    214.09281    206.56778    129651.88   -40929.663    2663.7216   -43593.384      59.5781   0.96329872 
   42100    209.68425    238.41394    129614.19   -40925.043    2608.8707   -43533.913    59.659636   0.96357886 
   42200    216.69198    343.81985     129524.2   -40889.048    2696.0602   -43585.108    59.629423    0.9642483 
   42300    218.07708    303.97757    129565.75   -40863.161    2713.2934   -43576.454    59.823981   0.96393906 
   42400    212.63504    285.54194     129533.1   -40898.918    2645.5841   -43544.502    59.833788   0.96418202 
   42500    218.00892    244.71076    129625.24   -40886.205    2712.4455    -43598.65    59.900151   0.96349672 
   42600     215.3544    134.33342    129601.15   -40889.527    2679.4181   -43568.945    59.904913   0.96367579 
   42700    214.64449    263.95012    129658.02   -40897.736    2670.5855   -43568.321    59.939842   0.96325313 
   42800     219.7963    48.537436    129557.07   -40844.806    2734.6838    -43579.49     59.90691    0.9640037 
   42900     213.7526    262.21062    129523.61   -40908.303    2659.4887   -43567.792    60.121097    0.9642527 
   43000     213.7415    392.09544    129546.32   -40928.825    2659.3506   -43588.175    60.154832   0.96408367 
   43100    216.62112    149.96863    129615.27   -40912.988    2695.1786   -43608.166    60.289454   0.96357084 
   43200    215.10301    400.04815    129516.83   -40883.923    2676.2904   -43560.213    60.436089   0.96430319 
   43300    215.33071    268.71069    129524.45   -40879.586    2679.1234   -43558.709    60.571867   0.96424643 
   43400    220.69385    338.12315    129634.45   -40841.741     2745.851   -43587.592    60.643315   0.96342827 
   43500    216.43762    204.60435    129760.13   -40860.091    2692.8954   -43552.986    60.839818   0.96249513 
   43600    218.69607    206.32921    129519.95   -40772.377    2720.9948   -43493.372    60.785745   0.96427993 
   43700    220.32863    177.30062    129616.95   -40801.841     2741.307   -43543.148     60.83977   0.96355834 
   43800    220.28676    442.42309    129687.56   -40818.355    2740.7861   -43559.141    60.946292   0.96303372 
   43900    218.90304    132.04723    129609.41   -40860.986      2723.57   -43584.556    61.101687   0.96361436 
   44000    218.32883    235.93428    129850.87   -40900.932    2716.4257   -43617.358    61.194448   0.96182254 
   44100    218.25274    195.65553    129785.26   -40926.104     2715.479   -43641.583    61.295025   0.96230877 
   44200    216.76682     120.0671    129886.54   -40958.962    2696.9913   -43655.953    61.507011   0.96155835 
   44300    215.73701    315.99488       129937   -40978.761    2684.1786    -43662.94    61.405727   0.96118494 
   44400    214.23674    222.57945    129979.37   -40949.504    2665.5123   -43615.016    61.465425   0.96087163 
   44500    212.64499    59.485299     129954.1   -40984.931     2645.708   -43630.639    61.282036   0.96105845 
   44600    213.79166    119.74337    129864.99   -41057.146    2659.9747   -43717.121     61.32187   0.96171794 
   44700    209.59462    183.91162    129799.26    -41037.03    2607.7555   -43644.786    61.318261   0.96220496 
   44800    217.89771    199.58035    129762.51    -41000.26    2711.0617   -43711.322    61.354452   0.96247747 
   44900    218.15917    267.82098    129851.62   -40965.862    2714.3148   -43680.176    61.687087   0.96181696 
   45000    216.04548    289.85367    129884.49    -40967.24    2688.0165   -43655.256    61.709117   0.96157353 
   45100     218.2985    211.52197    129742.57   -40918.928    2716.0483   -43634.976    61.671511   0.96262535 
   45200    218.49722    139.30758    129973.76   -40986.631    2718.5208   -43705.152    61.736021   0.96091315 
   45300    212.83939    196.90153    130181.17   -41001.541    2648.1267   -43649.668    62.173338   0.95938214 
   45400    218.77268    314.78202    130041.03   -40978.942    2721.9481    -43700.89    62.184749   0.96041606 
   45500    216.57007    120.54068    130093.48   -40986.758    2694.5434   -43681.301    62.405137   0.96002884 
   45600    216.82355    219.70188    129882.85   -40980.233    2697.6972    -43677.93    62.387315   0.96158573 
   45700    209.53858    78.747054     129872.2   -40987.107    2607.0583   -43594.165    62.472756   0.96166454 
   45800     217.2112    360.19002    130011.17    -40933.43    2702.5203   -43635.951    62.527705    0.9606366 
   45900    219.17202    385.28213    130133.62   -40874.999    2726.9166   -43601.916    62.673249   0.95973272 
   46000    220.49112    214.76077    130259.61   -40856.555    2743.3287   -43599.883    62.959192   0.95880441 
   46100    221.14708    305.44864    130239.99    -40820.04    2751.4901    -43571.53    63.018621   0.95894888 
   46200    221.30691    222.16041    130214.99   -40817.518    2753.4787   -43570.997    62.923782   0.95913297 
   46300    218.28468    231.72022    130130.99    -40846.98    2715.8764   -43562.856    63.177476   0.95975211 
   46400    219.43948    320.51062    130109.27   -40884.544    2730.2443   -43614.788    63.353183   0.95991232 
   46500    216.07359    134.71213    130021.56   -40902.777    2688.3662   -43591.144    63.567144   0.96055982 
   46600    221.98152     235.0261    130010.86   -40894.025    2761.8722   -43655.898    63.281934    0.9606389 
   46700    214.90716    367.61642    130078.15   -40972.815    2673.8537   -43646.669    63.507221   0.96014196 
   46800    213.97047    274.29736    130154.67   -41020.078    2662.1994   -43682.277    63.500007   0.95957746 
   46900    218.58083    231.42008    130086.72   -40955.766    2719.5611   -43675.328    63.646131   0.96007868 
   47000    216.65199    178.48161    130119.08   -40938.077    2695.5627    -43633.64    63.771038   0.95983998 
   47100    220.32864    245.59304    130361.48   -40920.477    2741.3072   -43661.784     63.95628   0.95805521 
   47200    215.84612    387.56359    130177.04     -40967.8    2685.5361   -43653.337    63.866596   0.95941261 
   47300    217.10379    237.26443    130395.32   -40995.683    2701.1838   -43696.867    64.169795   0.95780658 
   47400    213.47752    333.73381    130366.85   -40968.253    2656.0662   -43624.319    64.032257   0.95801572 
   47500    214.22151      122.826       130605   -40912.949    2665.3229   -43578.272    64.367131   0.95626886 
   47600    217.19194    112.74182    130383.59   -40876.282    2702.2807   -43578.563     64.34999    0.9578927 
   47700    215.83377    10.655474    130484.13   -40911.606    2685.3824   -43596.988    64.595473   0.95715465 
   47800    218.76552    43.138629    130264.07   -40915.184     2721.859   -43637.043    64.633843   0.95877159 
   47900    213.30443    290.70757    130308.64   -40996.781    2653.9126   -43650.694    64.689969   0.95844367 
   48000    216.67103    178.81814    130111.75   -41006.259    2695.7995   -43702.058    64.765345   0.95989399 
   48100    213.79877    107.85765    130032.08   -40977.057    2660.0632    -43637.12    64.816826   0.96048215 
   48200    210.15382    198.74502    130087.64   -40994.313     2614.713   -43609.026    64.991277   0.96007192 
   48300     214.4763    223.71681    130013.37   -40978.721    2668.4929   -43647.214    65.026405    0.9606204 
   48400    215.86252    173.96865    130193.76   -40896.303    2685.7401   -43582.043    65.457508   0.95928939 
   48500    217.79739    83.970654    130199.91   -40970.932    2709.8136   -43680.746    65.538081   0.95924407 
   48600    216.34017    177.10624    130174.66   -40977.943     2691.683   -43669.626     65.67672   0.95943011 
   48700    215.39362    283.21554     130327.1   -40950.849    2679.9062   -43630.755    65.766384   0.95830793 
   48800    216.72873    217.29639    130441.97    -40984.38    2696.5174   -43680.898    65.952312   0.95746403 
   48900    216.28274   -63.168793    130601.55   -40979.652    2690.9685    -43670.62    65.849901   0.95629409 
   49000    215.82836    266.60714    130447.64   -41009.821    2685.3151   -43695.136    65.899783   0.95742242 
   49100    213.76226    203.94135    130462.91   -41007.865    2659.6089   -43667.474    66.019176   0.95731033 
   49200    214.33133    189.94261    130579.19   -41033.067    2666.6892   -43699.756    66.247277   0.95645786 
   49300    215.43473     283.8864    130388.67   -40980.664    2680.4177   -43661.082    66.223774   0.95785536 
   49400    216.23409     295.9681    130438.85   -40961.118    2690.3632   -43651.481    66.514825   0.95748687 
   49500    213.56688    212.07163    130386.02   -40982.844     2657.178   -43640.022    66.370257   0.95787488 
   49600    215.98695    220.55024    130219.99   -40992.255    2687.2883   -43679.543    66.501821   0.95909619 
   49700    215.64074    -39.14761    130292.11     -41007.2    2682.9808   -43690.181    66.706517   0.95856528 
   49800    209.87405    176.30715    130053.18   -41048.694    2611.2321   -43659.926    66.527626   0.96032632 
   49900    217.17753    155.05397    130190.73   -40927.339    2702.1013    -43629.44    66.654584   0.95931174 
   50000    215.94906    130.53201    130501.88   -40972.438    2686.8169   -43659.254    66.743901   0.95702449 
   50100     215.6101    177.02413    130382.47   -41000.068    2682.5996   -43682.668    66.710646   0.95790097 
   50200    216.06945    406.77542    130531.35   -41046.684    2688.3148   -43734.998    66.977859   0.95680843 
   50300    217.98127    183.13158    130550.53   -41021.231    2712.1014   -43733.333     67.23288   0.95666783 
   50400    216.32887    253.57676    130724.55   -41047.368    2691.5424    -43738.91     67.36465   0.95539435 
   50500    211.34625    318.58625    130539.14   -41078.911    2629.5492    -43708.46    67.553531   0.95675127 
   50600    212.87215     160.4762    130590.27   -41076.832    2648.5342   -43725.367    67.369745   0.95637672 
   50700    212.36518    201.79081    130714.74   -41095.318    2642.2266   -43737.544    67.460711   0.95546599 
   50800    214.77881   -26.311347    130577.67   -41105.484    2672.2567   -43777.741    67.552394     0.956469 
   50900    214.75662    161.27293    130489.94   -41022.228    2671.9806   -43694.208    67.432844   0.95711201 
   51000    212.94147    272.30205    130415.72   -41057.633    2649.3967   -43707.029    67.647893    0.9576567 
   51100    213.83059    198.65559    130304.69   -41083.507    2660.4591   -43743.966    67.721048   0.95847274 
   51200    214.74774    183.00719    130354.67   -41062.325    2671.8702   -43734.195    67.862429   0.95810527 
   51300    214.47904    211.33599     130300.7   -41137.658     2668.527   -43806.185     67.63501   0.95850206 
   51400    211.65033    353.39927    130372.44   -41145.522    2633.3325   -43778.854    67.641805   0.95797464 
   51500    210.85108    275.01671    130436.26   -41145.239    2623.3883   -43768.627    67.816704   0.95750595 
   51600    214.88512    196.56232    130447.64   -41097.199    2673.5795   -43770.778     67.86267    0.9574224 
   51700    214.87497    46.831328    130472.35   -41094.188    2673.4532   -43767.641    67.850634   0.95724105 
   51800    210.79474    186.35134    130272.95   -41118.569    2622.6873   -43741.256    67.878478   0.95870623 
   51900     213.7453    182.60205    130112.66   -41154.937    2659.3979   -43814.335    68.128579   0.95988732 
   52000    211.60937    276.09926    130272.49   -41163.966    2632.8228   -43796.789    68.167614   0.95870963 
   52100    211.14372    302.80628    130394.91   -41116.936    2627.0293   -43743.966    68.350251   0.95780957 
   52200    211.11742    189.55329    130409.76   -41130.443     2626.702   -43757.145    68.479072   0.95770047 
   52300    216.17194    172.38813     130586.6   -41109.464    2689.5899   -43799.054    68.479762   0.95640361 
   52400    215.78036    235.17064    130559.12   -41055.676    2684.7179   -43740.394    68.624732   0.95660485 
   52500    211.71278    133.80638    130355.91   -41029.677    2634.1094   -43663.786    68.707914   0.95809609 
   52600    215.79372    258.38934    130454.35   -41047.571    2684.8842   -43732.455    68.736481   0.95737317 
   52700    211.77625    249.15976       130446   -41064.484    2634.8991   -43699.383    68.837137   0.95743444 
   52800    217.70329    165.76468    130348.19   -41025.448    2708.6428   -43734.091    68.558061   0.95815286 
   52900    217.17162    332.43296    130431.01   -41022.683    2702.0278   -43724.711    68.708996   0.95754446 
   53000    218.70067    129.62066    130245.67   -40999.936    2721.0521   -43720.988      68.8077   0.95890702 
   53100    210.32157    407.74303    130323.97   -41032.957    2616.8001   -43649.757    68.741876   0.95833094 
   53200     211.3061    156.90349    130267.53   -41024.216    2629.0496   -43653.266    68.912429   0.95874613 
   53300    211.55726    124.26166    130356.81   -41017.726    2632.1745   -43649.901    69.038709    0.9580895 
   53400    208.70822    227.71508    130378.25   -41087.392     2596.727   -43684.119    69.321532   0.95793196 
   53500    212.06792    228.61321    130331.88   -41096.068    2638.5281   -43734.596    69.431158   0.95827278 
   53600     212.4415    134.38381    130504.84   -41091.335    2643.1761   -43734.511    69.568602   0.95700275 
   53700    212.00051    98.075494    130286.43   -41124.286    2637.6894   -43761.975    69.368064   0.95860705 
   53800    213.00763    50.357009    130328.04   -41010.187    2650.2199   -43660.407    69.359879   0.95830102 
   53900    212.96656     81.02586    130253.97   -41048.912    2649.7089   -43698.621     69.45363   0.95884592 
   54000     217.1808    205.82393    130212.13   -41027.971     2702.142   -43730.113    69.537446   0.95915407 
   54100    213.58887    137.52254    130276.95   -41047.573    2657.4516   -43705.025     69.61821   0.95867679 
   54200    213.64321    371.80486    130301.51    -41026.68    2658.1277   -43684.808    69.566663   0.95849614 
   54300    212.58214    109.35865    130344.82   -40992.263     2644.926   -43637.189    69.681487   0.95817765 
   54400    216.41203    216.54232    130309.09   -41022.041    2692.5771   -43714.618    69.887927   0.95844037 
   54500    214.94202     74.07271    130345.63   -41011.605    2674.2874   -43685.892    69.797689   0.95817165 
   54600    220.19281    290.50788    130479.78   -40909.852    2739.6172   -43649.469    70.029274   0.95718655 
   54700    217.82278    245.33853    130379.36   -40926.183    2710.1295   -43636.312    69.949222   0.95792383 
   54800    215.29773    245.03798    130184.83   -40998.917    2678.7131    -43677.63    70.048365    0.9593552 
   54900     215.3793     153.2148    130133.05   -41048.779     2679.728   -43728.507    70.271075   0.95973691 
   55000    211.35245     305.0933    130319.23    -41099.11    2629.6262   -43728.736    70.349666   0.95836576 
   55100    213.30135    242.16432    130417.79   -41083.561    2653.8743   -43737.435    70.237787   0.95764151 
   55200    211.83485    197.62739    130556.63   -41105.062    2635.6282   -43740.691    70.608959    0.9566231 
   55300     209.6116    234.00845    130590.16   -41053.631    2607.9669   -43661.598     70.65243   0.95637753 
   55400    217.71494    121.06129    130515.48   -41032.619    2708.7878   -43741.406    70.496269   0.95692471 
   55500    216.15301    255.76974    130544.85   -40981.989    2689.3544   -43671.343    70.583272   0.95670947 
   55600     214.1555    89.712658    130629.58   -41032.074    2664.5016   -43696.575    70.906347   0.95608893 
   55700    217.14677    129.58743    130704.46   -41032.488    2701.7186   -43734.206    70.877608   0.95554114 
   55800    213.96386    95.113601     130442.1   -41035.392    2662.1172   -43697.509    70.989318   0.95746308 
   55900    220.47101    308.99821    130789.41   -41007.579    2743.0785   -43750.658    71.102576   0.95492053 
   56000     218.7208    254.66863     130764.5   -40999.688    2721.3026   -43720.991    71.351935   0.95510246 
   56100     221.1865    299.51557    130729.59   -40982.078    2751.9806   -43734.058    71.517799    0.9553575 
   56200    217.33121    282.50977    130801.69   -40989.687    2704.0135   -43693.701    71.460249   0.95483086 
   56300    215.47759      247.455    130879.36   -41032.213    2680.9509   -43713.164    71.827634   0.95426422 
   56400    218.79622    274.03115     130760.5   -41015.628     2722.241   -43737.869    71.852326   0.95513163 
   56500    214.36311     174.5101    130893.47   -41101.115    2667.0846     -43768.2    71.833147   0.95416132 
   56600    211.83921    152.34557    130879.73   -41112.624    2635.6825   -43748.306    71.882685   0.95426153 
   56700    211.47664    117.52262    130914.85     -41149.1    2631.1714   -43780.271    71.875202   0.95400554 
   56800     218.4722    318.98646    130870.08   -41081.761    2718.2095   -43799.971    72.024304   0.95433187 
   56900      216.514    281.17023     130915.8   -41066.264    2693.8458    -43760.11    71.976054    0.9539986 
   57000    220.23504    277.76973    131046.95   -41011.241    2740.1426   -43751.384    72.079019   0.95304388 
   57100    213.28612    269.46688     130800.4   -41075.739    2653.6848   -43729.424    71.980164   0.95484026 
   57200    212.12848     118.6218    130913.13   -41121.747    2639.2815   -43761.029    72.204774   0.95401808 
   57300    213.94944     247.2082    130829.94   -41174.521    2661.9378   -43836.458    72.148769   0.95462469 
   57400    212.32902    34.960838    130842.18   -41192.496    2641.7767   -43834.273    71.961063   0.95453539 
   57500    208.31822    108.43258    130923.45   -41237.377    2591.8747   -43829.252    72.451849   0.95394286 
   57600    211.99931    350.87966    130868.73   -41195.532    2637.6744   -43833.206    72.689443    0.9543417 
   57700    207.59667    32.735536    130757.39   -41242.769    2582.8973   -43825.667    72.654647   0.95515436 
   57800    209.55109     245.9838    130780.09   -41258.738    2607.2139   -43865.952    72.647716   0.95498856 
   57900    212.55869    125.18446    130682.95   -41224.628    2644.6343   -43869.262    72.648515   0.95569844 
   58000    206.93691    284.80568    130812.06   -41216.185    2574.6885   -43790.874    72.598555   0.95475519 
   58100    214.90783    72.026418    130774.16   -41157.735    2673.8619   -43831.597    72.735317   0.95503185 
   58200     212.0744    367.20275    130819.16   -41099.519    2638.6087   -43738.128    72.695929   0.95470334 
   58300    220.95828    211.59014    130836.21   -41031.072    2749.1411   -43780.213    73.056677   0.95457891 
   58400    216.56771     115.5405    130780.26   -41037.542     2694.514   -43732.056    72.893552   0.95498735 
   58500    216.63835    260.14432    130807.42   -41023.931     2695.393   -43719.324    73.097797   0.95478902 
   58600     216.2234     167.1551    130737.69   -40979.108    2690.2302   -43669.338    73.297225    0.9552983 
   58700    216.93005    203.67983    130657.35   -40970.964    2699.0223   -43669.986    73.082951   0.95588572 
   58800    212.76476    153.04929    130439.78   -41015.803    2647.1981   -43663.002    73.053124   0.95748009 
   58900    213.57425    203.45349    130325.03   -41056.637    2657.2697   -43713.907    73.136997   0.95832315 
   59000    211.15602   -28.350001    130272.93   -41030.193    2627.1823   -43657.375    73.163077   0.95870641 
   59100    216.96568    183.15357       130369   -41026.578    2699.4655   -43726.044    73.058079   0.95799989 
   59200     215.2755    108.38567    130230.17   -41044.506    2678.4365   -43722.943    73.257487   0.95902116 
   59300    213.08733    83.386402    130075.02    -41038.03    2651.2115   -43689.242    73.132729   0.96016506 
   59400    212.26214    198.78102    130213.63   -41091.961    2640.9445   -43732.906    73.259849   0.95914298 
   59500    212.15511    239.29797    130199.63   -41045.143    2639.6129   -43684.756    73.332775   0.95924614 
   59600    211.91835    118.28223    130213.09   -41033.447    2636.6672   -43670.114    73.389748   0.95914699 
   59700    210.70344    89.599219    130010.55   -41041.993    2621.5514   -43663.544     73.44706   0.96064122 
   59800    212.99254    214.84025    130096.29   -41038.767    2650.0321   -43688.799    73.527444    0.9600081 
   59900    213.53662    143.72862    130248.54   -41000.505    2656.8016   -43657.306    73.601841   0.95888589 
   60000    216.78572    337.80837    130393.53   -41053.239    2697.2265   -43750.466     73.76376    0.9578197 
   60100    215.00855    333.72742    130336.46   -41030.263    2675.1151   -43705.378    73.889354   0.95823909 
   60200      212.451    151.97622    130480.48   -41006.337    2643.2943   -43649.632    74.020819   0.95718139 
   60300    217.18652    356.13194    130515.27   -40970.278    2702.2133   -43672.492    74.190113   0.95692627 
   60400    217.08525    362.76816    130380.06   -40921.297    2700.9532    -43622.25    74.305832   0.95791866 
   60500     216.3061    161.73426    130410.22   -40951.107    2691.2591   -43642.366    74.459319   0.95769711 
   60600    213.52369    217.81567    130126.75   -40996.519    2656.6407    -43653.16    74.350948   0.95978339 
   60700    215.74615    158.68049     130329.9   -41018.796    2684.2923   -43703.089    74.409044   0.95828733 
   60800    219.03811    211.14919    130320.92   -40984.236    2725.2505   -43709.486    74.508888   0.95835339 
   60900     214.2086    418.06156    130420.87   -40975.334    2665.1622   -43640.496      74.5383    0.9576189 
   61000    215.12728    134.71584    130517.95   -41018.721    2676.5923   -43695.314    74.612037   0.95690663 
   61100    214.21381    251.82411    130633.37   -41054.274    2665.2271   -43719.501    74.803352   0.95606119 
   61200    216.52884     196.1025    130843.73   -41063.841    2694.0304   -43757.871    75.229914   0.95452407 
   61300    214.76644    210.96663       130713   -41059.695    2672.1028   -43731.798    75.585754   0.95547873 
   61400     213.5214    124.90002    130728.85   -41105.239    2656.6121   -43761.851    75.288929   0.95536291 
   61500     216.8435    110.07735    130766.21   -41119.824    2697.9454    -43817.77    75.652758   0.95508997 
   61600    214.11544    145.97576    130805.74   -41094.564    2664.0032   -43758.567    75.338402   0.95480133 
   61700    212.35605    313.68398    130894.46   -41166.019     2642.113   -43808.132    75.426741   0.95415413 
   61800    209.16287    293.91644    131018.01   -41236.092    2602.3837   -43838.476    75.621322   0.95325441 
   61900    209.30516      197.542    130919.89   -41171.542    2604.1541   -43775.696    75.619358    0.9539688 
   62000    214.46539    306.98962    130924.85   -41120.459    2668.3571   -43788.816     75.45928   0.95393268 
   62100    213.42246    400.51937    130874.57   -41149.539    2655.3812    -43804.92    75.793129   0.95429918 
   62200    215.20723    249.70333    130940.02   -41104.936    2677.5871   -43782.523    75.671886   0.95382214 
   62300    213.35601    279.75458    130834.47   -41137.078    2654.5544   -43791.633    75.983509   0.95459164 
   62400    214.88729    318.60551    130802.26   -41077.882    2673.6065   -43751.488    76.259388   0.95482674 
   62500    212.74103    264.70686    130606.55   -41092.092    2646.9028   -43738.995    76.140272   0.95625747 
   62600    213.99407    206.27109    130689.45   -41089.806     2662.493   -43752.299    76.481488   0.95565088 
   62700    213.97242    372.69959    130846.52   -41109.063    2662.2237   -43771.287     76.31342   0.95450371 
   62800    214.42164    225.66423     130874.1    -41098.09    2667.8128   -43765.903    76.217633   0.95430257 
   62900    213.18185     195.8061    130922.92   -41050.796    2652.3875   -43703.183    76.316326   0.95394676 
   63000    217.65767    224.88099    130774.91   -41006.163    2708.0752   -43714.238    76.399156   0.95502642 
   63100     218.9139    138.45012    130729.47   -40982.785    2723.7051    -43706.49    76.442949   0.95535836 
   63200    218.79256    248.60803    130887.69   -41014.558    2722.1955   -43736.754    76.709862   0.95420348 
   63300    214.40407    233.31387    130892.47    -41047.45    2667.5943   -43715.044    76.580809   0.95416867 
   63400    216.17823    202.34679     130781.1    -40979.02    2689.6682   -43668.689    76.438894   0.95498121 
   63500    215.33901    131.26461    130656.07   -41074.249    2679.2267   -43753.476    76.874375   0.95589505 
   63600    217.20702    238.55935     130566.3   -41066.231    2702.4683     -43768.7    76.941567   0.95655228 
   63700     211.3491    293.44102    130838.87   -41061.359    2629.5846   -43690.944    77.134482   0.95455952 
   63800    209.83652    160.02465    130675.89   -41157.303    2610.7653   -43768.068    77.218023   0.95575007 
   63900    211.16788    331.98821    130741.93   -41149.605    2627.3299   -43776.934    77.119447   0.95526731 
   64000    211.80889    206.04193    130771.08   -41129.157    2635.3052   -43764.462    77.282227   0.95505436 
   64100    215.77188    49.970682    130747.71   -41046.544    2684.6124   -43731.156    77.523792   0.95522505 
   64200    215.24193    323.70921    130739.75   -41041.232    2678.0188   -43719.251    77.572821   0.95528323 
   64300    218.53286    338.16909    130563.28    -40939.84    2718.9643   -43658.805    77.697063   0.95657439 
   64400    219.27555    125.68187    130609.24   -40970.832    2728.2047   -43699.036    77.521195   0.95623781 
   64500    218.02179    236.27885     130448.6   -40966.694    2712.6056   -43679.299    77.527452   0.95741535 
   64600    215.78641    316.03726    130685.43   -41004.682    2684.7932   -43689.475    77.667677   0.95568033 
   64700    213.19509    269.04666    130637.41   -41034.685    2652.5522   -43687.237    77.677531   0.95603157 
   64800    214.85559    196.38793    130656.65   -41060.735     2673.212   -43733.947    77.800328    0.9558908 
   64900    213.37448    202.65674    130752.78   -41046.476    2654.7841    -43701.26     77.87242     0.955188 
   65000    214.09382    288.77116    130850.31    -41010.29    2663.7342   -43674.024    78.004851   0.95447608 
   65100    215.71013    205.64657    130767.45   -41035.051    2683.8441   -43718.895    78.106804    0.9550809 
   65200    215.93038    180.38581    131021.28   -41023.131    2686.5845   -43709.716    78.280135   0.95323055 
   65300    216.14785     159.0959    130811.07   -41027.425    2689.2902   -43716.715    78.348382   0.95476239 
   65400    220.82494    150.74908    130710.93   -40967.506     2747.482   -43714.988    78.483798   0.95549387 
   65500    213.27046    244.92277    130644.27   -41037.771      2653.49   -43691.261    78.483308    0.9559814 
   65600    211.00037    102.68836    130488.73   -41086.597    2625.2457   -43711.843    78.733956   0.95712089 
   65700    214.37306    65.354516    130621.55   -41128.262    2667.2084    -43795.47    78.625328   0.95614764 
   65800    211.79985    156.04073    130617.45   -41141.943    2635.1928   -43777.136    78.614716   0.95617772 
   65900    215.81853    140.88291    130594.58   -41116.149    2685.1928   -43801.342    78.639516   0.95634516 
   66000    215.20461    117.36197    130438.34   -41023.621    2677.5545   -43701.175    78.715079   0.95749068 
   66100    216.70482    121.14659    130453.77   -40968.966    2696.2199   -43665.186    78.742344   0.95737741 
   66200    217.19444     198.6819    130419.63   -40942.715    2702.3118   -43645.027     78.71905   0.95762804 
   66300     214.2431    149.94061    130262.51   -40960.853    2665.5914   -43626.445    78.988798   0.95878308 
   66400    218.70226    178.02374    130265.25   -41009.173    2721.0719   -43730.245    79.016475   0.95876291 
   66500    214.55333    352.32601    130234.01   -41020.601    2669.4513   -43690.053    78.950409   0.95899291 
   66600    212.30811    104.19429    130368.44   -41031.737    2641.5165   -43673.254    78.913897   0.95800406 
   66700    214.33739    176.17156    130325.21   -41066.898    2666.7647   -43733.662     79.05001   0.95832183 
   66800    216.96073     123.0313    130244.57   -41000.535     2699.404   -43699.939     79.11691   0.95891518 
[...]
   84600    211.85162    273.03981    129985.15   -41070.676    2635.8369   -43706.513    94.465853   0.96082895 
   84700    210.89864    257.58228    129810.42   -41078.668    2623.9801   -43702.648    94.543958   0.96212223 
   84800    211.66033    325.67561    129893.49   -41040.653    2633.4569    -43674.11    94.461119   0.96150694 
   84900    211.55557    141.27698     129979.4   -41019.749    2632.1535   -43651.903    94.570824   0.96087146 
   85000    216.72938    148.60644    130197.08   -40973.124    2696.5255    -43669.65    94.667069   0.95926491 
   85100    213.68907    136.53218    130072.98   -40978.337    2658.6982   -43637.035    94.756193   0.96018013 
   85200    214.22561    109.16838    130030.91    -40978.87    2665.3738   -43644.244    94.895811   0.96049081 
   85300    212.11669     48.49469    129972.48   -41016.105    2639.1349    -43655.24    95.158748   0.96092256 
   85400    217.07906    228.88201    129906.63   -41007.273    2700.8762   -43708.149    95.042933    0.9614097 
   85500    218.79059    123.24047    130054.42    -40989.53    2722.1709   -43711.701     95.24542   0.96031718 
   85600    212.36752   -53.630201    129950.83   -40972.498    2642.2557   -43614.753    95.182412   0.96108269 
   85700    211.83545    201.46853    129994.44   -41006.453    2635.6357   -43642.088    95.324934   0.96076028 
   85800    215.28229    124.48888    130036.98   -40999.811    2678.5209   -43678.332    95.178668   0.96044592 
   85900     219.7935    142.24063    129884.84   -40897.097     2734.649   -43631.746    95.513466   0.96157099 
   86000    217.74371    322.52917    130136.75   -40948.106    2709.1457   -43657.252    95.715507   0.95970965 
   86100    216.08627    126.09135    130033.62   -40937.698     2688.524   -43626.222    95.693736    0.9604708 
   86200    213.97066    385.48069     129975.9   -40901.308    2662.2018    -43563.51     95.74791   0.96089727 
   86300    215.69624     147.4924    130152.06   -40926.577    2683.6713   -43610.248    95.726011    0.9595967 
   86400    210.89835    184.87512    130177.42   -40942.876    2623.9764   -43566.852    95.768577   0.95940976 
   86500    213.88347    201.11844    130182.12    -40924.09     2661.117   -43585.207    95.841874   0.95937512 
   86600    217.14049     259.9967    130138.92   -40872.735    2701.6405   -43574.376    95.905843    0.9596936 
   86700    216.82929    152.85756     130338.4   -40875.157    2697.7686   -43572.926    96.003411    0.9582248 
   86800    214.32468    88.699202    130503.66   -40947.324    2666.6065   -43613.931    96.430731   0.95701139 
   86900    216.11014    180.02969    130525.04   -40916.516     2688.821   -43605.337    96.588918   0.95685468 
   87000    217.85743    185.63105     130266.6   -40920.122    2710.5606   -43630.682    96.565742   0.95875298 
   87100    213.94063    169.42131    130224.44   -40952.711    2661.8281   -43614.539    96.552333   0.95906339 
   87200    221.34129    145.52595    130318.56    -40947.81    2753.9065   -43701.716      96.5517   0.95837068 
   87300    213.83638    99.604937    130338.22   -40966.003    2660.5311   -43626.534    96.806082   0.95822615 
   87400    216.44733     252.5063    130312.43   -40989.898    2693.0163   -43682.914    96.770449   0.95841582 
   87500    212.38475    291.71883    130013.52   -41002.623      2642.47   -43645.093    96.929329   0.96061929 
   87600    215.15117    228.48088    130230.83   -41027.439    2676.8896   -43704.329    96.978405   0.95901635 
   87700    212.29899    205.90217    130211.62   -41044.956    2641.4031   -43686.359    96.869448   0.95915777 
   87800    213.36897    200.32104    130372.67   -41028.195    2654.7156    -43682.91    96.918633   0.95797292 
   87900    214.94602    302.02298    130394.43   -41045.378    2674.3371   -43719.715    97.136664    0.9578131 
   88000     213.5597    206.48649    130435.58   -41072.847    2657.0887   -43729.936    97.369593   0.95751093 
   88100    216.05061    124.79027    130511.13   -41014.645    2688.0803   -43702.725     97.43351    0.9569566 
   88200    214.10808    100.54135    130248.07   -40983.556    2663.9116   -43647.467    97.676678   0.95888937 
   88300    215.53516    210.73916    130338.68   -41016.457    2681.6671   -43698.124    98.039514    0.9582228 
   88400    212.42162    202.50777    130152.55   -41106.059    2642.9288   -43748.988    97.983533    0.9595931 
   88500     218.1223    193.81448    130134.03    -40998.98    2713.8562   -43712.836     97.71509   0.95972968 
   88600    215.75824    109.40005    130154.13   -40954.375    2684.4428   -43638.817    97.711169   0.95958149 
   88700    218.53613    212.15983    130136.93    -40948.13    2719.0049   -43667.135     97.97639   0.95970827 
   88800    218.48618    229.67789    130288.15   -40887.007    2718.3835    -43605.39    98.183757   0.95859441 
   88900    217.23956    185.48215    130230.44   -40938.045    2702.8731   -43640.918    98.157557   0.95901918 
   89000    220.69555    188.24203    130379.27   -40936.718    2745.8723    -43682.59    98.232927   0.95792444 
   89100    211.68232    48.382287    130233.99   -41040.222    2633.7305   -43673.952    98.518361   0.95899308 
   89200    213.66428    121.08273    130144.33   -41075.024    2658.3899   -43733.414    98.843235   0.95965372 
   89300    212.93955    272.44728    130088.23   -41087.712    2649.3728   -43737.085    98.896781   0.96006759 
   89400    212.08218    53.808568    130032.72   -41118.497    2638.7055   -43757.203    98.892081    0.9604774 
   89500    210.72884    178.35729     130172.8    -41153.95    2621.8674   -43775.818    99.114346   0.95944382 
   89600    207.06643    203.33259    129934.82   -41188.991    2576.3001   -43765.291    98.958956   0.96120112 
   89700    211.36902    377.10612     130119.7   -41142.843    2629.8325   -43772.675    99.442748   0.95983539 
   89800    213.17551    104.47601    130230.75    -41106.32    2652.3087   -43758.629    99.358666   0.95901693 
   89900    211.78329    225.39355    130166.28   -41149.279    2634.9867   -43784.266    99.422762   0.95949193 
   90000    213.80549     98.36253    130386.04   -41061.908    2660.1468   -43722.055    99.949111   0.95787469 
   90100    212.19903    103.62589    130348.39   -41077.439    2640.1594   -43717.599    99.700487   0.95815139 
   90200    212.02392    179.06888    130158.53   -41117.789    2637.9807   -43755.769     99.91723   0.95954905 
   90300    211.39384    357.25417    130216.28   -41120.007    2630.1413   -43750.148    99.852636   0.95912348 
   90400    212.79739    143.46992    130136.06   -41116.766     2647.604    -43764.37    99.948081   0.95971471 
   90500    212.58104    342.09505    130228.06   -41081.463    2644.9123   -43726.376    100.19184   0.95903672 
   90600    217.74702    220.17226    130297.94   -40990.517    2709.1869   -43699.704    100.27132   0.95852239 
   90700    216.88017    185.89857    130357.45   -40997.534    2698.4016   -43695.936    100.40062   0.95808479 
   90800    217.98213    292.57199    130263.25   -41028.974    2712.1121   -43741.086    100.47018   0.95877766 
   90900    210.34003    231.14728    130370.09   -41104.574    2617.0298   -43721.604    100.31728   0.95799194 
   91000    212.73148    337.94849    130528.84    -41109.87    2646.7841   -43756.655    100.49316   0.95682677 
   91100    213.60838    251.04686    130339.91    -41107.84    2657.6943   -43765.534    100.62483   0.95821373 
   91200    213.20611    96.729577    130346.43   -41065.187    2652.6894   -43717.876    100.37272   0.95816577 
   91300    215.57171    299.32422     130499.7   -40968.036     2682.122   -43650.158    100.76398   0.95704042 
   91400    215.67692    256.69331    130371.39   -40958.566     2683.431   -43641.997    100.80737   0.95798236 
   91500    217.65868    360.89056    130393.92    -40980.53    2708.0878   -43688.618    100.92438   0.95781685 
   91600    215.95698    188.60501    130389.64   -41017.913    2686.9154   -43704.828    100.96625   0.95784829 
   91700     211.1757    219.17377    130489.36   -41089.434    2627.4272   -43716.861    101.03157   0.95711626 
   91800     212.5282    208.23927    130522.92   -41055.883    2644.2549   -43700.138    101.08989   0.95687016 
   91900    216.12886    223.39893     130668.4   -41061.031     2689.054   -43750.085    101.33553   0.95580483 
   92000    213.31567    275.74968     130722.5   -41074.483    2654.0525   -43728.536    101.52715   0.95540931 
   92100    213.80839    129.01023    130664.35   -41109.566    2660.1829   -43769.749    101.92101   0.95583448 
   92200    215.40008    333.56811    130623.31   -41039.955    2679.9865   -43719.942    102.04715   0.95613479 
   92300    218.46919    109.96969     130474.8   -40949.073    2718.1721   -43667.245    101.90177   0.95722309 
   92400    216.41427    118.64376    130358.36   -40935.839    2692.6049   -43628.444    101.83338   0.95807814 
   92500    215.45657    85.925998    130404.25   -40979.897    2680.6894   -43660.586    101.91171   0.95774096 
   92600    217.03243    252.79979    130226.59   -40936.646    2700.2961   -43636.942    102.02866   0.95904757 
   92700    214.50982    147.63117    129885.82    -40929.38      2668.91    -43598.29    101.70488   0.96156372 
   92800    215.64274    184.42063    129982.03   -40970.998    2683.0057   -43654.003    102.16313   0.96085199 
   92900    213.95646    136.50098    129912.52   -40934.394    2662.0251   -43596.419    102.33571    0.9613661 
   93000    215.38107    165.78755    129872.44   -40954.222      2679.75   -43633.972    102.41934   0.96166281 
   93100    219.35413    282.93501    130038.81   -40896.854    2729.1824   -43626.036    102.49889   0.96043241 
   93200    216.10166    89.756532    129801.36   -40905.295    2688.7155    -43594.01    102.25089   0.96218941 
   93300    212.54783     165.9094    129950.46   -40925.535    2644.4991   -43570.034    102.31684    0.9610854 
   93400    211.84362    296.60696    129947.54   -40942.827    2635.7374   -43578.564    102.50554   0.96110701 
   93500    213.29819    281.86857     129994.7   -40977.599    2653.8351   -43631.434    102.97036   0.96075834 
   93600    211.96164    137.55536    130178.67   -41035.012    2637.2058   -43672.218    103.47737   0.95940057 
   93700     212.6177    295.78967    130119.31   -40999.325    2645.3685   -43644.693    103.29399   0.95983826 
   93800    208.71661    225.81199    130266.03   -40966.149    2596.8314   -43562.981     103.5718    0.9587572 
   93900    211.16295    163.87979    130322.37   -40943.843    2627.2686   -43571.111    103.56443   0.95834266 
   94000    216.03335    181.69635    130336.13   -40962.717    2687.8656   -43650.583    103.56583    0.9582415 
   94100     219.1054    137.99203     130286.5   -40972.546    2726.0878   -43698.634    103.61895   0.95860653 
   94200    211.13341    302.67822    130401.46   -40959.439    2626.9011    -43586.34    103.90388   0.95776142 
   94300    215.86209    106.54789    130328.34   -40906.685    2685.7347    -43592.42    104.12328   0.95829881 
   94400    209.61822    42.630307    130061.93   -40900.002    2608.0492   -43508.051    103.99179   0.96026174 
   94500    214.72735    118.50401     130131.5   -40844.027    2671.6165   -43515.643     104.2808   0.95974832 
   94600    216.50928    42.359543    129919.36   -40882.524    2693.7871   -43576.311    104.12891   0.96131545 
   94700    212.93019    279.48373    129940.53   -40930.341    2649.2564   -43579.597    104.17476   0.96115882 
   94800    214.55833    5.4332973    129791.17   -40929.389    2669.5135   -43598.903    104.13049   0.96226493 
   94900     219.2311    182.83854    129724.54   -40909.416    2727.6517   -43637.067    104.15707   0.96275915 
   95000    218.69115    193.52185    129729.82   -40892.422    2720.9337   -43613.356    104.02174   0.96272001 
   95100    220.35085    395.88673    129737.97   -40890.858    2741.5835   -43632.442    104.06512   0.96265953 
   95200    216.35819    254.27172    129818.95   -40913.027    2691.9072   -43604.934    104.19096   0.96205901 
   95300    221.83039    64.789136    129911.83   -40820.393    2759.9918   -43580.385     104.6883   0.96137118 
   95400    218.60088    126.67637    129942.15   -40880.886    2719.8105   -43600.696    104.74016   0.96114686 
   95500    213.60931    189.09386    129987.55   -40894.371    2657.7059   -43552.077    104.93547   0.96081115 
   95600    218.51683    140.29411    129942.67   -40891.567    2718.7649   -43610.332    105.03922   0.96114302 
   95700    215.72586    291.19271    129961.46   -40943.916    2684.0398   -43627.956     105.2641   0.96100409 
   95800    216.12657    151.12081    129905.54   -40990.874    2689.0254   -43679.899    105.34272   0.96141771 
   95900    214.86696    260.34401    129880.43   -40953.181    2673.3535   -43626.534     105.3924   0.96160365 
   96000     213.9881    87.617535     129830.1    -41021.96    2662.4188   -43684.379    105.70725   0.96197639 
   96100    211.02513    134.53177    129876.49   -40971.314    2625.5538   -43596.868    105.65833   0.96163278 
   96200    211.34878      194.085    129789.69   -41008.736    2629.5807   -43638.316    105.69489   0.96227588 
   96300    219.74708    319.69465    129882.16   -40963.325    2734.0714   -43697.396    105.89345   0.96159081 
   96400    214.75475    177.06259    129904.23   -40949.144    2671.9574   -43621.102    105.82757   0.96142746 
   96500    215.16505    152.92278    129777.86    -40988.61    2677.0622   -43665.672    106.00783   0.96236364 
   96600     211.8605    182.09653    129932.08    -40987.15    2635.9474   -43623.098    106.16547   0.96122136 
   96700    211.63461    174.07634    129747.93   -41058.515    2633.1369   -43691.652    106.37192   0.96258559 
   96800    209.63992    163.09693    129727.13   -41100.139    2608.3191   -43708.458     106.4807   0.96273997 
   96900    210.82299    246.27772    129794.44   -41040.879    2623.0388   -43663.917    106.50481   0.96224067 
   97000      215.519    175.63741    129850.93   -41047.922    2681.4661   -43729.388     106.4927   0.96182204 
   97100    212.49609    272.21696    129945.44   -41044.116    2643.8554   -43687.971    106.40088   0.96112252 
   97200    208.28374    23.870964    129909.34   -41061.416    2591.4457   -43652.862    106.91113   0.96138961 
   97300    210.76392    172.03708    129751.16   -41054.508    2622.3039   -43676.812    106.62453   0.96256168 
   97400    210.83908    191.10879    129872.54   -41048.236     2623.239   -43671.475    106.92879     0.961662 
   97500    217.51998    157.57764    130070.03   -40958.243    2706.3621   -43664.605    106.88001   0.96020192 
   97600    209.65294    321.63894    130109.33   -41018.821    2608.4812   -43627.302    107.03675   0.95991188 
   97700    216.30706     340.7699    130376.09   -40966.392    2691.2711   -43657.663    107.26291   0.95794782 
   97800    215.92452    151.48193       130454   -40948.922    2686.5115   -43635.434     107.3465   0.95737573 
   97900    218.43894   -10.625499    130407.31   -40919.749    2717.7957   -43637.545    107.68374   0.95771845 
   98000    219.05135    151.38425    130150.74    -40951.22    2725.4152   -43676.635    107.73241   0.95960647 
   98100    212.59815    266.86717    130125.81   -41014.804    2645.1252    -43659.93    107.75169   0.95979034 
   98200    214.76987    168.86563    129937.31   -40989.887    2672.1455   -43662.033    107.36821   0.96118267 
   98300    216.13772    231.47153    130243.45   -41010.678    2689.1641   -43699.842    107.66345   0.95892341 
   98400    214.59709    244.78297    130330.76   -41013.165    2669.9958    -43683.16    107.80859   0.95828099 
   98500    210.50294    76.018999    130224.14    -41003.43    2619.0567   -43622.487    108.04736   0.95906555 
   98600    212.36616    218.63505    130624.87    -41032.26    2642.2387   -43674.499    108.63998   0.95612339 
   98700    210.34208    213.22397    130391.49   -41092.231    2617.0553   -43709.286    108.40039   0.95783471 
   98800    210.49986    215.82205    130396.73    -41058.22    2619.0185   -43677.239    108.52182   0.95779622 
   98900    211.79678    268.09298     130368.2   -41072.159    2635.1546   -43707.314    108.79125   0.95800577 
   99000     209.9786    260.29178    130247.12   -41111.262     2612.533   -43723.795    108.75402   0.95889635 
   99100    215.54338     128.7143    130116.81    -41028.64    2681.7694    -43710.41    108.57653   0.95985673 
   99200    215.77407    154.80729    130320.92   -41015.025    2684.6397   -43699.665    108.78338   0.95835337 
   99300    214.72416    91.056509    130148.05   -40972.591    2671.5767   -43644.168    108.76806   0.95962632 
   99400    214.56446    75.241409    130083.95   -40941.811    2669.5898     -43611.4    108.96637   0.96009915 
   99500      220.608    225.37698    130212.17   -40819.812    2744.7829   -43564.595     109.1609   0.95915372 
   99600    222.48691    289.15567    130271.13   -40843.963    2768.1602   -43612.123    109.45739   0.95871961 
   99700    220.26031    222.12116    130191.67   -40852.534     2740.457   -43592.991    109.58465   0.95930478 
   99800    221.53717    163.15967    130283.66   -40890.384    2756.3436   -43646.727    109.47189   0.95862747 
   99900    217.13319    128.01043    130375.77   -40954.294    2701.5497   -43655.844    109.49019   0.95795016 
  100000    219.20632    87.507421    130262.04   -40959.203    2727.3433   -43686.547    109.35908   0.95878651 
  100100    218.47054     209.1953    130141.14   -40890.736    2718.1889   -43608.925    109.92955   0.95967724 
  100200    218.50057    142.73239    130055.88   -40891.152    2718.5624   -43609.715    109.56495   0.96030636 
  100300    218.36849    155.24462    130403.28   -40879.622    2716.9192   -43596.541    109.76164   0.95774807 
  100400    212.34528     287.8285    130533.94   -40918.477     2641.979   -43560.456    109.93864   0.95678944 
  100500    221.44921    316.06867    130465.04   -40860.095    2755.2492   -43615.344    110.16503   0.95729467 
  100600    218.58987    140.47719    130465.31   -40954.431    2719.6736   -43674.105    110.18657   0.95729268 
  100630    220.15735    146.17676    130509.27    -40944.48    2739.1759   -43683.656    110.21964   0.95697028 
Loop time of 85.2305 on 6 procs for 100000 steps with 4175 atoms

Performance: 506.861 ns/day, 0.047 hours/ns, 1173.289 timesteps/s
98.5% CPU use with 6 MPI tasks x no OpenMP threads

MPI task timing breakdown:
Section |  min time  |  avg time  |  max time  |%varavg| %total
---------------------------------------------------------------
Pair    | 67.437     | 68.993     | 72.339     |  19.3 | 80.95
Neigh   | 5.0074     | 5.0227     | 5.0463     |   0.6 |  5.89
Comm    | 5.3068     | 8.6299     | 10.187     |  54.3 | 10.13
Output  | 0.16167    | 0.16244    | 0.16603    |   0.4 |  0.19
Modify  | 1.7577     | 1.7821     | 1.8253     |   1.9 |  2.09
Other   |            | 0.6401     |            |       |  0.75

Nlocal:        695.833 ave         705 max         676 min
Histogram: 1 0 0 1 0 0 0 0 2 2
Nghost:        1466.17 ave        1475 max        1448 min
Histogram: 1 0 0 0 1 0 0 1 0 3
Neighs:        0.00000 ave           0 max           0 min
Histogram: 6 0 0 0 0 0 0 0 0 0
FullNghs:      19355.7 ave       19752 max       18486 min
Histogram: 1 0 0 0 1 0 0 1 0 3

Total # of neighbors = 116134
Ave neighs/atom = 27.816527
Neighbor list builds = 5395
Dangerous builds = 0

undump              1
unfix               2
unfix               3
unfix               4


################################################
#######         Run Simulation         #########
################################################

reset_timestep      0
log                 log.run_${NAME}
log                 log.run_liquid_density_MLmW
