LAMMPS data file via write_data, version 29 Oct 2020, timestep = 800000

4175 atoms
1 atom types

-0.2491248487823583 50.249124848780234 xlo xhi
-0.2491248487823583 50.249124848780234 ylo yhi
-0.2491248487823583 50.249124848780234 zlo zhi

Masses

1 18.015

Atoms # atomic

1470 1 0.8928390604126542 1.844670789516432 2.0821890333377104 0 0 1
207 1 3.429789862836462 0.8961231842877591 1.22081820531544 1 0 0
2043 1 7.596866421064394 0.996063352474265 1.2052364497345478 0 0 1
2914 1 5.59907158694769 1.377165620563755 2.9388477127184096 1 1 1
985 1 32.38171193096189 0.26302745430947827 6.893588610520273 0 0 0
2967 1 14.045858895780253 0.970588455297746 1.0980107702863435 0 0 1
3411 1 9.931430436672967 0.15459025176322128 2.4276808795793823 0 1 1
317 1 19.863079682268815 1.3850880005200643 0.8728850160196127 0 0 0
377 1 46.40389541651441 24.979117248276907 4.034686545023435 -1 0 0
961 1 25.223642019358188 0.97931513200939 4.983970452842018 0 0 0
2736 1 29.19497136076126 21.33457021647955 0.20324840293776486 0 0 0
2093 1 25.212441033434256 0.06935274553698711 12.283056389017592 0 0 0
2752 1 33.84356173840967 2.0627079895302143 2.18534376888662 0 1 0
332 1 -0.05370356801866741 19.93014000521223 0.12033219728505923 1 0 0
222 1 40.57106766437327 3.3850228934828603 3.424744013295577 0 0 1
2193 1 39.89251168410655 1.0997867463244828 1.8505893253561507 0 1 0
3310 1 44.57363396514413 1.6003734073491098 0.6446292903143884 0 1 1
3266 1 4.89181080229594 24.41177538990774 2.5753029530016507 0 0 1
1901 1 1.896533093157672 4.3510950601902545 2.461477286093794 1 0 1
929 1 6.484482120459272 6.001656414787679 1.3180930263970425 0 -1 1
1288 1 8.421149913832842 3.7987161187372003 1.1004307730251581 1 0 0
2964 1 11.706219660896169 2.209403375975711 2.0162149397696525 0 1 1
3227 1 18.280421585097173 17.39746450574271 0.14983004429191532 -1 0 0
1484 1 20.696606443206623 2.9070014844226812 3.026942252482045 0 0 0
1970 1 23.26327911916538 4.1745693577321985 2.411483717537886 0 1 1
3799 1 28.857888585026323 3.405910144391706 2.1173863511206195 0 1 1
805 1 30.756596302988555 5.047073667780652 1.2617128607104215 0 0 1
3978 1 32.75623388894349 4.37054249787806 3.094459621276546 0 1 1
1382 1 36.430443013681035 3.1483235366853095 1.574832580856458 -1 1 0
687 1 35.48634966853421 24.150279730617882 11.529570455584787 0 0 0
2862 1 41.927625846435724 5.348938318940193 1.9625691238719183 0 0 0
2561 1 7.573852312243284 -0.24491384144506353 6.681447834221515 1 1 0
279 1 47.875062692515584 4.144244932555314 0.18537569936603454 0 0 0
151 1 39.577392491296656 -0.15567929658019525 11.239581417567399 0 0 0
3986 1 5.477793939254473 8.445266125860169 2.531970965833937 0 1 1
306 1 11.066468076140591 6.996137374705684 0.444414141754889 0 0 0
954 1 19.308388866250194 7.66614683779507 1.9715901254710237 0 0 1
3932 1 34.451457386547865 8.678802603941875 -0.03539588917984435 0 1 1
585 1 21.9007786851657 7.452750310398117 2.861521091054966 0 -1 0
289 1 23.88300564622214 6.85456155994605 1.0747665337211096 0 0 0
3462 1 26.284720870403202 7.024242673577657 2.5397076492802446 0 1 0
3742 1 30.492440499084314 7.71338464836155 1.9351843262800688 0 1 1
2153 1 14.702885319813626 5.399836095778575 0.10290612360953927 0 1 0
1692 1 27.57636433448574 24.80306176547856 4.147768467862248 0 0 1
1414 1 35.54896509861058 9.524272448511022 2.3137021925437242 -1 0 1
3634 1 39.410034467198706 6.681080025987292 1.1774238405095705 -1 1 1
535 1 43.92806819510726 7.253596085249036 1.2445536685245295 0 0 0
2444 1 37.81141987854443 1.2076877236461352 0.1632497367768752 -1 1 0
2894 1 26.41524218624701 -0.14469673427175078 14.738535154827952 0 1 0
477 1 0.8925283870794267 11.6286233767854 1.7749922536803697 0 0 0
2056 1 49.799003994304705 0.09099742945426781 14.96468574634001 0 0 0
3830 1 4.878595479177783 10.402541692843611 0.6637819189135422 0 1 1
3598 1 8.982202049897534 10.061805401774444 0.8964406547572406 0 0 1
3028 1 10.612461758539476 11.336175725022668 3.828720836326479 0 1 0
3892 1 43.2736720521641 1.4319414604921619 12.476184394603672 0 1 0
4034 1 15.872596704032993 8.963769180193532 1.8768454335294473 0 0 1
1122 1 19.252551873418167 12.172041253210692 2.840237440929745 0 0 0
919 1 23.03303468611747 11.380334399295506 1.5144634367176666 0 0 0
3414 1 26.755927903363116 12.088427456581387 3.6313367183945267 0 0 0
1625 1 29.176736552665503 12.58734868251284 2.092070809949027 0 0 1
1133 1 34.0165860549208 12.047650018962567 2.2322611798343064 -1 0 0
1198 1 31.383916250157867 11.914177727775286 3.6780612748229258 0 0 1
2540 1 38.40318602838977 10.577630607776815 1.7397701068473348 -1 1 0
1119 1 1.9825173078465834 9.657513097159311 0.1948031637188869 0 -1 0
2532 1 42.82485051852472 9.712474670198166 1.0522146864853459 0 1 0
3943 1 24.433614656496065 24.62274363905528 8.092387886733718 0 0 0
386 1 48.773161094730426 12.456292593570696 0.9885394451709928 -1 0 0
3017 1 12.557082542661252 1.1513020255470712 6.492613903864852 0 1 0
397 1 4.932608376989147 13.304111607925297 2.2988482169627664 0 0 0
945 1 7.505243862298302 12.140407972173588 1.2255664998478084 1 0 1
1982 1 9.496149780729246 13.640661691219796 2.8001145553316977 0 0 1
2907 1 33.004596226569554 15.8498817115156 0.3775471103763499 0 1 1
3108 1 11.109922438395092 14.57836390019341 0.4847151762209422 0 0 0
816 1 13.727013800211724 15.252545486122886 3.392016055900868 0 0 0
1325 1 16.10334359433849 14.655286692245097 1.9062421922122015 0 0 0
538 1 21.038118697204133 13.241988965063129 0.2815526312229084 0 0 0
1817 1 23.644834022337434 15.397846395374941 3.1444318781082754 0 1 1
3364 1 48.81322531134192 16.920309173227544 16.06115190098953 0 1 0
4101 1 24.94579453149808 13.252284695736943 1.9497294395703273 0 0 1
4024 1 35.0275812805513 6.1175026745539345 -0.0666738942422517 -1 1 1
2769 1 35.028446305181035 14.80480984244624 2.531785810772505 0 1 0
1139 1 37.71502815050219 15.469373468730312 1.862494755277436 0 0 0
2848 1 39.308738083124446 13.153593255387676 1.716940545480873 0 1 1
834 1 41.4881925240146 13.990125073447558 -0.22215932884861192 0 0 1
2899 1 20.366792953136727 0.4318952024494621 9.312143455665447 0 1 0
1506 1 47.63778012482579 13.942425239906216 2.8492699407693487 0 0 1
2710 1 49.495179126177874 15.911840173730408 2.3528560229795756 0 1 0
1043 1 2.9553589201173605 16.492802645055324 0.572152770629273 0 0 0
527 1 5.114673727345195 14.650552342949068 -0.1479095773202769 0 0 0
454 1 7.773017808147227 16.90335430894005 1.6864357380394588 0 0 0
3433 1 9.901524694577688 17.55536379219541 3.3437184849683463 1 1 0
1100 1 12.030774312857188 16.7571007117042 2.066083166177042 0 0 0
610 1 15.891995055152005 17.47716140411719 1.6198346686106586 0 0 0
911 1 17.547442908286445 19.10805676313629 3.184820169109026 1 0 1
3645 1 38.587683265558915 2.2245074684610477 16.243124253200413 0 0 0
1714 1 20.906412873255043 17.49496590807396 1.6608413822234824 0 -1 1
3820 1 22.626051679831065 15.97908613864821 0.27752249180324495 0 0 1
1264 1 26.567126236405425 18.28625103071025 1.788670009386311 0 0 1
2355 1 29.10859465294373 17.56607350775453 1.5286183869538472 0 0 0
2789 1 15.33174803510599 0.09535430021560082 5.48504204762817 0 1 0
3448 1 41.30015796729466 17.861504205305238 0.7878201014470809 0 0 0
1508 1 41.908732920829344 1.0638984638093214 -0.03541849571171504 0 0 1
1467 1 45.8235763755907 17.605182755535616 1.0886352625522981 0 0 0
532 1 48.36973752111027 18.171672402410863 1.529016253917866 -1 0 0
3640 1 0.8214682720546063 21.200173817712702 2.3723460220076436 1 0 1
3049 1 6.6465081650368445 19.602692076855124 1.5396574562306637 0 0 0
1706 1 12.344646624994462 19.525730405049938 1.2709288429887657 1 -1 1
889 1 10.455470849422719 21.130263584654106 0.3983117824741156 0 -1 0
2375 1 44.955343439232614 11.397762101017483 1.6969482683420964 -1 0 0
838 1 47.877266687873075 24.526359441497103 12.981431827057332 0 0 0
3707 1 17.974588838587433 21.599690468381183 2.139218020662203 0 0 1
2969 1 20.284277854673945 21.920671985210866 0.905475062221617 0 0 0
2165 1 24.569955955131974 20.69787516896745 2.092458713088267 0 0 0
107 1 21.782717235276888 20.127663955158273 2.805254218399814 0 0 0
1965 1 28.545155977512394 20.733125630334815 3.0710488163757415 -1 0 1
2749 1 33.78334456765643 21.01607069142298 1.5454330954276385 0 0 0
2694 1 37.23481903861966 19.292033048618386 3.1855343031812953 0 1 0
1156 1 40.518978446494 22.28889136200798 2.5952292176281055 -1 -1 0
547 1 42.158859392312785 20.895804392403665 0.4884720099022263 0 0 0
2493 1 44.21180737740934 21.79526216562342 2.175239826715524 -1 0 0
2728 1 46.1662816384981 6.038193991087179 15.89037219918972 -1 0 0
1881 1 47.58830060749798 9.914114619891375 1.439576146093403 0 0 1
3055 1 7.328351315079267 23.967847184712095 1.1113817028043305 0 0 1
2425 1 8.35852157625063 21.723008257901487 2.0768913212343207 0 0 0
3114 1 13.8026554417589 23.70816587092412 1.384373405083908 0 0 1
4172 1 32.72842005084485 23.69349969080002 1.954252587372883 1 0 1
1349 1 36.28989413777974 22.337087628277388 1.0032476285070098 0 0 0
1757 1 37.69208575355278 21.952891210719653 3.070061229117254 0 0 0
3006 1 46.92608986530365 22.596041716525374 1.6603503477947352 0 1 1
2180 1 48.91164739737146 21.98743061255638 3.5042290972728596 0 0 0
3274 1 1.3479280422212385 1.703728983433049 5.327931715453616 1 1 1
2871 1 31.738725604306502 1.8865466318682613 14.328211836563716 0 0 0
3059 1 3.3396103249823255 0.04136470956549815 6.444724953041896 0 1 1
1767 1 40.231178405927295 8.996340351316721 -0.14151721756342667 0 0 1
3827 1 8.25657838085522 2.5876692856316854 5.87647344112172 0 1 1
753 1 46.74874294902605 0.0469953478204328 1.6203837876402276 -1 1 1
943 1 15.750490531834837 3.008288460570134 0.8770522215501131 0 0 1
1702 1 16.8649570899542 1.7444975993038438 7.189948947878503 0 0 1
3009 1 20.787161036156643 1.7179910033339025 5.703965908365241 0 1 0
369 1 37.401543291292136 10.75878770716541 15.455948481282322 -1 -1 0
3768 1 32.95097685685247 14.968228807497226 16.132643368138904 1 0 0
2593 1 29.087310181735027 1.1457723314806838 3.6098719515906095 0 1 0
3488 1 27.700767245985695 1.0924133044751136 6.317615185717719 0 1 0
1315 1 24.19113889211088 0.3946735678622163 8.350205073918064 0 0 0
3712 1 38.41584835019946 0.014605297713567056 6.974067928794068 0 1 1
2037 1 36.258456948118 1.7407207324260587 6.108431363642477 0 0 1
3493 1 41.82792191286988 2.949241733949229 6.050772481092601 0 1 0
1078 1 3.178283682948699 17.738783441593103 15.881601299082515 0 0 0
3088 1 45.07404386258991 1.0100357945706844 4.7506970910537145 0 0 0
574 1 48.849372128016086 1.2995946230170388 3.1336790430706363 0 0 0
3147 1 1.619789846478055 4.6103204694982205 5.398048679788795 0 0 1
724 1 4.745663607735263 4.1808788873911285 2.836625931229443 0 0 0
1923 1 4.7071852772390255 4.857968536498975 5.362835829862693 1 1 1
166 1 7.2748805426642775 6.387311892101233 4.947522061179994 0 0 0
2672 1 8.793274866443465 4.289875681159709 3.9192937030709984 1 0 0
116 1 11.433985915826108 4.350340411454553 3.8604556110742614 0 0 0
3970 1 16.417550515857755 4.3212104860794955 3.381771950181219 1 0 1
1570 1 15.552299291975078 4.301273318805358 6.089474334335299 0 0 1
270 1 19.170115911966903 5.086692255938108 3.4232819550247564 0 0 0
309 1 21.954482565807673 5.654672649120224 5.035780046770751 0 1 0
3985 1 24.66601541865021 3.6102153261746035 4.728527129302712 0 1 1
419 1 26.938235655562885 4.761807735597478 3.6936700868638592 0 0 0
1269 1 31.565928159464523 5.093851990893734 5.632103485552061 1 1 1
3177 1 34.626155955108665 6.296762018958455 3.2638395621743723 0 1 1
3589 1 37.68313748459594 3.4575978368971505 4.081909572465001 0 0 1
2105 1 41.44429024843988 7.274816717794487 5.3372872360490735 -1 0 1
1848 1 43.450540407876126 5.315845164582041 4.58103034929344 -1 0 1
2864 1 44.61785098188034 3.1021360034235808 3.1852684710459407 0 1 0
2386 1 47.261595357286254 3.738985157334933 2.9248600402490847 0 1 0
1709 1 49.50889947922508 6.1642283976615335 5.082695825836509 0 0 1
1880 1 0.6809107753956309 7.090881061290236 2.9686486313275173 1 0 0
1785 1 49.41805371682682 9.551667516084311 3.7028891050833304 -1 0 1
510 1 3.291856312156231 7.045977017908426 4.329379592554297 1 0 0
2242 1 8.175954576363674 10.307485632540915 5.2558932871403545 0 1 1
1017 1 11.131609297646104 8.49767667628561 4.585915878371625 0 0 1
920 1 12.010164064341733 6.672485974083289 2.8986379073293795 -1 0 0
1793 1 14.841183918479546 6.6765627145606965 2.722606364041603 0 0 0
1810 1 17.96486999855394 8.497083272950007 5.679840711737199 -1 0 0
720 1 19.23881962082421 5.9878016037500075 6.288066744664998 0 0 0
1590 1 28.74220402192594 6.103845983945762 5.505270158698068 0 0 1
1489 1 33.82768240296117 8.568999759409643 4.8241207676414835 1 0 1
2708 1 37.081442367346625 6.041741257323598 5.303708993544136 0 1 0
2939 1 37.96038958121322 7.9112588671876125 3.247930451888095 -1 1 1
2603 1 40.091678157453615 9.490519178967503 4.410804841552227 0 0 0
3651 1 45.50303128292925 7.547888413058984 3.6382982081630377 -1 1 1
3746 1 47.841877036006636 6.460047801174013 2.9233553594528323 -1 1 1
2683 1 2.6066063585769856 12.692207812046764 3.8797785857461937 0 0 0
1761 1 3.8546707984860333 11.085974108313113 5.905338757058924 0 0 1
3996 1 5.945776183411111 11.123316643035798 3.9673862229339187 0 1 1
3095 1 8.195645440348786 8.27136246022751 3.22367679061643 1 0 0
3106 1 12.574601774621412 13.297650799633956 4.753624834500759 1 0 0
3514 1 13.614711637830801 9.223889434252497 5.567660246410092 1 1 1
111 1 13.653067828452864 12.294605889016616 1.8075654603184241 0 0 0
1593 1 18.097281537848627 9.641498277477941 3.324672426039721 0 0 1
241 1 21.02083274047956 11.948362291407213 5.164570167630773 0 0 -1
3811 1 22.583327015064242 9.875136571531495 4.031379498556859 0 1 0
582 1 24.558542388212484 9.508291157962306 5.877439664570605 0 0 0
3458 1 26.691863046604166 9.290344793418598 4.357073609762848 0 0 1
3524 1 31.121741244589636 9.350309383564728 4.235450009405358 0 1 1
3001 1 28.969049914876255 9.043453746263475 5.867002150214413 1 1 0
588 1 35.80790985646471 10.269289487924866 5.622777806131593 0 0 0
2729 1 43.55411832784144 10.732407010270013 5.955393619673995 0 0 0
2574 1 42.20585517579728 10.925229107127365 3.537597817147596 0 0 0
2224 1 45.676301024726975 10.170693030699601 4.272597235286879 0 0 0
484 1 47.52767366333448 12.090750710794595 5.128856016745615 -1 0 0
3515 1 1.144710365436456 15.335882409954728 3.8758388579760625 0 1 1
1453 1 9.106188049172115 15.590400160525077 4.901834471888233 0 0 1
2495 1 14.823619833915252 10.615475919717877 3.6111791373458586 0 0 0
798 1 18.103843491400074 14.589508210673 3.8749622095144227 0 0 1
260 1 20.343328950509086 16.36620289619651 4.202227087333898 -1 0 0
3092 1 22.16093419456435 14.58202074646431 5.336095351197999 0 0 0
853 1 27.30398951655449 14.496091396182944 5.067367680194108 -1 0 0
2580 1 29.643831054123986 15.334946359438911 5.861572506862984 -1 1 0
4153 1 31.70644307456092 13.6596620615235 5.7411741177478115 0 0 1
2031 1 34.07262209461195 14.991160074314836 6.785818973297569 0 0 1
4125 1 35.41970106300793 13.162483548154782 4.816592712648898 -1 1 1
3885 1 37.865178564872785 14.111987755558731 4.587650522433327 0 0 1
1568 1 41.05010695983863 13.32543473425931 3.9435984830646156 0 0 0
971 1 45.023871354644555 15.31920806862863 2.602302419627005 -1 0 1
546 1 -0.14428666351162509 12.325037914546218 4.629060489981097 0 0 0
174 1 2.8822144621549683 17.181263493414303 3.2321371609253395 1 0 0
3760 1 5.358638692033794 16.118737982481544 3.224402154701653 0 0 1
1782 1 10.51635563712009 14.108522634729427 6.697171230371064 0 0 1
3933 1 6.335483714773386 16.38512069340844 5.824887695974794 0 0 1
3330 1 14.377574223840936 16.431236336310672 5.794561784703437 0 1 1
2484 1 15.234853779750608 19.015620962846416 4.908757643099951 0 1 0
401 1 19.13049161548719 18.455121273267185 5.554872923549097 0 0 0
3916 1 25.74330094328148 16.768231089873808 4.018382916869368 0 1 1
3990 1 25.61440715029982 17.948908438667036 6.42546254634063 0 0 1
737 1 30.74958582567378 17.271811967055015 4.019231205650945 -1 0 1
1502 1 33.408641307814854 16.602512418415618 4.440203977391407 0 0 1
2435 1 38.22336753196664 16.918347795741525 4.745498443049073 0 1 0
1685 1 40.80858695196942 17.281047587924018 3.3188291586900163 -1 0 1
1697 1 42.555098334205276 15.547478774835943 4.079284787477659 0 0 1
2399 1 46.9103846487015 16.79800793527893 4.697301274176099 0 1 -1
581 1 1.7860259201072868 19.709240763458357 4.3694498849902645 1 0 0
1424 1 3.023961288149396 21.93397942107498 5.949400755567077 1 0 1
3528 1 4.892866729574277 19.849566626544426 3.7241757695696314 0 0 1
1232 1 9.085214220845193 19.69008390399202 5.1278667246163385 1 0 0
16 1 6.282860803773762 19.044299550555834 5.773528338010765 1 -1 0
2902 1 11.533460182215748 19.42479928490953 6.4466747841139975 0 0 0
2866 1 12.914606176158935 20.026096669741698 4.063593908281248 1 0 0
1921 1 16.530651698888278 20.44797444332463 6.892289473840268 1 0 1
2323 1 21.152662556937138 20.397930862291993 5.525820861678742 0 0 0
519 1 23.780921639656018 20.004578617985842 6.6014527133854255 0 0 0
3456 1 30.086711829659347 19.530046930434672 4.95721841452156 0 0 0
1944 1 29.369850145476754 22.866925828074546 4.739192639687691 0 0 1
250 1 34.211131829157345 23.02835252583026 6.251688462945898 0 0 0
1374 1 34.660503812397586 19.016932645947282 3.596648168465476 -1 -1 0
1681 1 34.20977539943086 20.067519190783106 6.161736080161196 -1 0 0
1934 1 42.639314782518746 19.048456029974414 4.705102283275369 0 0 1
105 1 45.07701383643729 19.527507313555798 3.570222376912793 -1 0 0
4008 1 45.91227307690839 21.42411197912519 5.95805557016346 -1 1 1
350 1 48.16113601356302 19.456483084582533 4.013318061345232 0 0 0
3459 1 1.8286515633936715 24.368544389025473 5.166919235573303 1 0 0
399 1 5.377094646079673 22.398277901556188 4.368511371771926 1 0 0
1816 1 9.203753018559027 22.32773234725616 4.667965328332486 0 0 1
552 1 6.963549591626661 23.39348528364709 6.018808970050799 1 -1 0
3025 1 11.562846551320554 23.721640245847286 5.113116539951627 0 0 0
3357 1 13.523559574462906 22.440223599145742 4.021566051929042 -1 1 0
195 1 15.84891358998118 22.80053918303048 5.7326721040882935 0 0 0
3947 1 18.052095285300098 23.552168396904047 4.229872937303273 0 0 1
2777 1 20.56440441996506 23.300242049437337 5.4883679446773606 0 0 0
3511 1 29.062721200700807 14.93149349287005 0.5567080979507181 0 0 1
2020 1 25.113306677175537 23.255895349368096 3.2572887165250997 0 0 1
1207 1 19.831455235381878 8.204517410171642 15.063309455023997 0 0 0
384 1 32.12337327066777 23.573283779090147 4.379236654605669 0 -1 0
1909 1 36.84272258716151 23.588991249308826 5.194506302809923 -1 0 1
2952 1 41.522855480967756 24.29471820222092 7.133002885896054 0 1 0
2329 1 41.625376251612394 21.840277101189866 5.257432859794108 -1 0 0
3588 1 44.11875419475887 23.456006746147235 4.2786086011730164 0 1 1
101 1 44.22111942186845 23.060046093632693 7.4709373405374695 0 0 0
849 1 7.298885263345579 1.736462715461312 16.15907913721606 0 0 0
1181 1 -0.13762078008835482 0.9461282605954189 7.891852402325407 1 0 1
2936 1 40.68805748318564 24.665939674344003 0.8329234841869246 0 0 1
1306 1 4.179228225538826 1.532601209424926 8.771620504724668 0 0 1
2143 1 11.28040299615486 21.86209884221864 15.993796242991063 1 1 0
2474 1 8.409269374709934 1.6425837788205115 10.410414571260427 0 1 0
3372 1 12.11595099160483 1.3466456516243874 9.424182710202956 0 1 1
297 1 13.97006758444671 2.898019451120179 10.344127554205821 0 0 0
2353 1 16.377258016952297 1.195677389840561 9.830773622160308 0 1 0
2054 1 20.791126040812188 2.7168491556788785 8.299599715244515 0 0 1
2780 1 27.928499102512482 2.4349980174904706 8.633894648851765 0 0 0
1948 1 25.59305587614716 2.0656700014121347 10.212453749680789 0 0 0
3219 1 32.21526748103735 3.063077016133247 7.581078732641282 0 1 0
3130 1 34.934820514511046 3.1610960095940515 8.28175293675445 0 1 0
2687 1 41.61212822264939 2.444400962236019 16.416675641743574 0 1 -1
3749 1 38.869023910103735 1.7521744275748303 9.214852600381333 0 1 1
3894 1 44.0724164465472 1.7197234377755963 7.20252752564251 0 1 1
406 1 46.67414483582914 1.8239582870226103 9.220411341562508 -1 0 0
1001 1 1.5515773552054475 1.3639488348746147 10.440562001021132 1 1 1
227 1 48.75075006674763 3.2468649780499854 8.254668836805148 -1 0 0
1011 1 2.5751749144230005 5.1841746847341135 8.2554115088623 1 0 1
10 1 5.114964232177022 3.976628930102108 8.012610171758514 1 0 0
1158 1 10.02283895711287 2.869794591810791 8.10225973647912 0 0 0
650 1 11.198794080980434 5.493332792365468 8.24598212814537 0 0 0
548 1 12.86433892398484 4.135550064233981 6.1632190471233335 0 0 0
1852 1 15.582288054592997 6.745897396694169 8.484756135264064 1 0 1
1080 1 18.646798725693124 3.738781322442326 7.820644837751798 0 0 1
4140 1 18.682243218915566 4.417514000739406 10.546991442036624 1 0 0
1434 1 23.33092955140559 3.727296621662878 9.12780819246494 0 0 1
3877 1 24.994964499365004 4.837753336207679 7.316556899685317 -1 0 1
2726 1 27.457017214166882 5.055683544345049 7.855028883292709 0 1 0
3614 1 35.59059428941066 5.796646426342914 7.646511157201324 0 1 1
1277 1 32.31605999678559 3.292650565561512 10.38534394448194 0 0 1
2006 1 36.51550684679809 7.4114055513000014 10.128207120733348 0 0 0
3723 1 39.48783079869956 6.223769907986713 6.919609834645859 0 1 1
3162 1 40.35224525381499 3.878767101745286 8.005744250605035 0 1 0
663 1 44.42038855883703 4.0717795641732435 9.302894818351021 0 0 0
2478 1 41.96583266988094 4.627202661880873 10.252217317632965 0 0 0
3256 1 45.38286892869039 5.229080437113345 6.9367761609750165 -1 0 0
645 1 47.44336301239406 3.8900701363212056 6.000908420656025 0 0 0
1554 1 1.72946414584369 7.743609765965952 8.510907525852623 0 0 0
446 1 49.96343703179649 8.489587868547025 6.737408942289678 -1 0 0
1403 1 3.528910483892345 8.610565005570436 6.68687939967113 0 0 0
1919 1 5.629358581993916 8.040255766966203 8.23165109685998 0 0 0
571 1 9.051123898965782 4.810973777459693 10.207752417622865 0 0 0
2526 1 9.57290432148761 7.104871935556005 6.596907054594267 1 0 0
1814 1 14.25223759675015 9.136668181055372 8.655208627197336 0 0 1
164 1 15.570623047900435 7.072233671169222 5.629861458166765 1 0 0
2999 1 20.29271571734443 8.170145578614814 7.999244323146 0 1 0
747 1 23.605524842839266 7.187389444568013 7.0041859979203664 0 0 0
1634 1 25.268956975986132 9.098863590324145 9.221572850641072 0 0 1
2980 1 27.133946789541614 7.030146019520657 9.326892207010154 0 1 1
2365 1 33.07477375685012 6.994295293886846 6.985574370394738 0 1 0
947 1 32.07433660381048 7.574399252025862 9.34624193552303 0 0 0
3481 1 34.207659999553954 9.122901253197698 10.158038405182452 1 0 0
1221 1 38.957079847797345 8.264593938571629 8.774294020504142 -1 0 0
942 1 41.66148029123835 7.402772353419191 9.583459550985685 0 0 0
1626 1 45.60057147937525 7.817088605482676 6.805439874800934 -1 0 1
964 1 47.61978091416111 9.005218498238222 7.950849571578306 -1 0 0
3191 1 1.1169148379353235 10.922569506164573 7.002924452361516 1 0 0
4085 1 8.400233249867897 9.260496096703685 8.000249919442952 0 1 0
1460 1 17.24753827499367 10.726024267762162 7.151207950077998 0 0 1
409 1 16.2239859502667 10.401820468240969 9.630835883650406 0 0 0
870 1 19.90182589859272 11.155615097735932 7.746441587102865 0 0 0
1789 1 25.07679356646149 11.49856973597232 7.731217466875247 0 0 1
1344 1 29.557210433762688 10.682528391770635 7.943909274867593 -1 0 1
1408 1 34.37441520912515 10.733625236085306 8.108935950834299 0 0 1
802 1 31.881076906919255 11.82025563484893 7.6442221463989695 0 0 0
304 1 38.37492675779339 10.332503050977138 6.836845256575198 0 0 1
2701 1 43.07410091873503 8.306875706236662 7.195849353911539 0 1 0
3237 1 40.44167397064579 12.301528227643908 6.416879417717798 0 0 0
4155 1 43.036839646683816 12.024873493379765 8.189689671749676 -1 1 1
299 1 47.14530451938453 11.71606346572224 8.133175312810613 0 0 0
2892 1 5.204042320770476 12.623759158593876 7.6495293450136606 1 1 1
741 1 7.980546876323668 12.353675178788723 7.372736548429167 1 0 0
1838 1 13.166920574887438 11.674842798010015 7.016785104221061 0 0 0
2149 1 15.157088588759203 13.499537645311992 8.335974186178522 1 1 0
885 1 16.331756759965714 12.469653801222472 5.436061989315504 0 0 1
2686 1 19.715168135307376 13.067878388002946 10.050294080939205 0 0 0
2068 1 20.27899457537665 16.342987771603564 9.338145204281549 0 0 1
1305 1 22.80286249104146 12.438541547743599 9.088159579488766 0 -1 0
1582 1 22.302383259783895 14.94964319436095 7.974467349860626 0 0 1
3193 1 26.57257137782923 14.027549908755562 7.556183538337003 0 1 0
1340 1 28.69446692474755 13.29968235726178 9.176314312526147 0 0 1
3446 1 30.528100115434675 15.744143673660249 8.623604483296791 0 0 0
430 1 36.369973098570384 14.96327742408201 8.743216057799838 0 0 0
1150 1 35.66299584659133 12.567575150475955 9.77412347863035 0 0 0
323 1 38.52991686311639 13.973263794516573 7.390107209501497 -1 0 0
311 1 46.71897394385641 14.369840136565909 6.354340268903379 -1 0 0
3484 1 44.65271905901503 14.019997403551692 8.323612363081965 0 1 0
2991 1 50.14899699738809 12.709003990359065 8.814466009414595 -1 1 0
169 1 48.84300679185438 15.109559784356227 7.776979519383964 -1 0 0
1216 1 0.6525649527889906 16.090884848594165 6.474867063521594 1 0 0
4144 1 2.3416071652482877 16.331672369980982 8.523008076723274 0 0 0
33 1 4.738816588232456 15.328173174739371 7.768239537317715 0 0 0
2690 1 9.034395279763935 16.992625636423067 9.590184943773318 0 0 0
1841 1 6.207625804929535 16.913426117977508 9.325682411348865 0 0 1
1142 1 11.226933997303295 16.67675318796408 7.607327861790708 0 0 1
3734 1 13.761294161239043 15.934012668445142 8.752162642074406 1 0 1
51 1 15.58369392418298 17.751785223047058 9.700557053234991 0 0 0
2436 1 17.06724467677777 15.279881270287333 6.661486823699645 0 0 0
3722 1 18.15133637179378 17.574374681937787 8.105329631599352 0 1 1
3217 1 24.91458856324051 16.189781898073935 8.458806830719228 0 0 1
1640 1 28.86362283078651 18.117339134391774 9.413076147747423 0 0 1
4106 1 32.85033739778837 19.223327931504933 10.358801743071192 0 0 0
592 1 38.888758330957856 17.93546754608711 7.2400387988587775 0 -1 0
275 1 40.16582214931696 15.705622741831336 8.417117109688892 0 0 0
2901 1 42.67432530904017 15.636985669305643 7.158095537144117 -1 0 0
727 1 43.62708923485502 18.279553100211338 7.253672770573525 0 0 0
3671 1 40.379522909076 16.294824857921505 11.141679183640258 -1 1 1
3312 1 -0.23532581624172857 18.636533118108876 5.841596344132917 1 0 0
463 1 2.0672870236756085 18.979445678250702 9.252089157787585 0 0 0
322 1 3.4921884900097107 21.470989881343616 8.708739717827386 1 0 0
3702 1 5.839732679572441 19.527115484410707 8.359157423720685 0 1 1
1257 1 12.253874883651646 21.083299091181345 8.7360804912899 1 0 0
106 1 15.015357068039897 20.754060153555145 9.333112599176603 0 0 0
2099 1 19.29068696790183 20.51828023750371 8.18860983306256 0 0 1
403 1 21.363181506927504 18.654881078150712 9.922604423747996 1 0 0
2417 1 23.37013268703646 20.582722136983946 9.223470171707167 0 0 0
4065 1 28.039376578289435 19.285396631738696 7.073502399850031 0 0 0
950 1 27.872776941697268 22.143411924842447 6.779974562854763 0 0 0
621 1 32.622769966751214 17.43839552480572 8.14570730668018 0 0 0
762 1 31.62694665060898 19.963671001690123 7.004336519224978 0 0 0
1226 1 36.29147029598323 18.71019730618547 7.829517337063399 0 0 0
3000 1 36.17245018607269 21.25762859438461 9.390836152835424 0 0 0
1182 1 40.193242250258564 20.388836702992663 7.534144466598939 -1 0 1
674 1 38.742426178090625 22.017044105279457 9.184439832553096 0 -1 0
2221 1 42.3426224765468 19.788764439986906 8.904944217769778 -1 0 0
3391 1 46.2453592978369 18.615979426100456 6.750387693011931 -1 0 0
176 1 47.7602141950421 18.90632309816529 9.214324899014683 0 0 0
190 1 50.12224222497266 20.018447240633538 8.136489314925354 1 0 -1
3539 1 5.5003736336228215 23.54759428814301 8.55396147064834 0 0 1
3175 1 12.16994495408031 23.781896729368402 7.792293194995295 0 0 1
1721 1 46.590298216801756 22.708136229267556 14.642501865286446 -1 0 1
452 1 20.227249066643882 23.457247199975193 7.870842505235316 0 -1 0
1849 1 1.9640674641547426 13.714885135773452 0.07761518676153373 1 0 1
3080 1 25.208965833609227 22.472411707879967 6.1864035760235065 0 0 0
2773 1 22.583389336085 23.122633773753652 9.467113665395033 0 0 0
46 1 3.6286341037900662 23.610524237742922 14.71901227078386 0 1 0
787 1 28.259712699435145 23.75371582242537 8.854494821772992 0 0 0
2849 1 33.659715514300395 24.60322786077435 9.11849279673991 -1 0 1
3775 1 30.99101667691818 22.16186029589982 8.569475384352288 0 0 1
2606 1 29.30443785188308 10.751427635333263 -0.08349474097394921 0 0 0
1252 1 38.7751646088326 23.748813260680176 7.129323799358495 0 0 0
1977 1 47.16237730921719 3.114965035397501 15.114718594864168 -1 1 1
1628 1 9.676048872119939 -0.0617823010090546 16.09630858563224 0 0 0
3394 1 48.83999077194906 22.265918344719204 6.368712731848152 -1 1 0
855 1 48.45661873983946 24.270106152425992 8.344565287511738 -1 0 0
1072 1 0.40578049232245705 1.7338194348097538 12.935919892067048 1 0 0
996 1 4.369302793779821 1.5000430130848568 12.07975856110797 0 0 -1
2608 1 6.296723889956485 3.1548911854085513 12.00412217736473 0 1 0
1180 1 2.264678754644153 15.279234475550776 16.13587161527264 1 0 0
685 1 10.341081857935318 1.1837988226817855 13.669497716084296 1 0 1
999 1 13.855381109251299 1.865504341053993 12.777370034977283 0 0 0
1655 1 24.39403103487096 1.7694167929595115 16.062180131972408 0 0 0
775 1 16.881537940628853 2.4903760173120184 13.204680111361117 1 1 0
2549 1 18.635532624601225 0.8861566492429882 11.692613583872237 0 1 0
1051 1 48.3598882474932 7.234910997920662 0.04797791405518814 -1 0 0
2906 1 30.0446995048409 1.7700432118148046 10.244181471612839 0 1 1
1128 1 6.608040138437506 0.14282526648879273 9.158679857793347 0 0 0
3058 1 36.90842728899241 3.450341957055907 10.513365928834705 0 1 0
3455 1 36.1747588483072 1.3821083552294622 12.504382918762099 0 1 0
3209 1 39.371944364556576 24.376290358250895 13.979255433486886 -1 0 0