LAMMPS data file via write_data, version 29 Oct 2020, timestep = 800000

4175 atoms
1 atom types

-0.6341161524774037 50.63411615247523 xlo xhi
-0.6341161524774037 50.63411615247523 ylo yhi
-0.6341161524774037 50.63411615247523 zlo zhi

Masses

1 18.015

Atoms # atomic

190 1 1.022987182663599 0.7091757918274957 0.013303490094671355 1 0 0
45 1 3.0256005314230037 1.7749416675537417 1.6489397528031247 0 0 0
216 1 5.634623056299506 1.195705471441826 0.6441405998413992 0 0 0
2098 1 10.864015061841382 1.7839104096758658 0.7835886177384188 0 0 1
674 1 29.694016855564353 -0.6183148504391116 14.170453634531992 0 0 0
412 1 13.536402482552381 2.0067509436665145 1.2600562903220411 0 0 0
627 1 10.161511309168375 -0.2172926619932512 12.910773143054534 0 0 0
3810 1 19.451798284213474 0.33991595085529724 0.05104209742260979 0 1 1
576 1 27.186808965116395 0.614452546360386 1.7509523625600116 0 0 0
589 1 29.73514172248264 1.404815447018673 0.46957985537543934 0 0 0
1347 1 48.895566880310554 21.86591513932396 14.253664525269249 0 0 0
1407 1 37.31416813547537 2.1085199131338257 0.19382545597238532 0 0 1
4003 1 39.67689177725989 0.1708860605055068 0.5100821894602818 0 1 1
232 1 41.91727544003108 2.388660720906941 1.8920573652035455 0 0 0
580 1 44.568253430563765 1.3554960644105807 2.4096832318580517 0 0 0
223 1 30.549260055813445 24.673237239507827 14.310036216375899 0 0 0
3753 1 49.712743096332225 0.6659582258315873 0.6564687229881909 -1 1 1
2047 1 2.682154583115321 4.499093518004612 1.1540300190753907 0 0 1
379 1 5.278428107832476 5.612966742940497 1.6146200271661857 0 0 0
1740 1 6.851667216177266 3.1667268794840475 2.290350244426886 0 0 1
1505 1 9.578717819058827 3.797945409916654 1.9066847560664733 0 0 1
552 1 44.145487996257785 -0.07852675173766088 0.30449010756103634 0 0 0
181 1 20.902483314046645 2.9207297422792684 1.8598622832354015 0 0 0
646 1 23.35338665204137 2.352380838500593 2.9649515496432275 0 0 0
183 1 25.42100573735591 2.6592880729320294 1.2593069170015674 0 0 0
1512 1 26.33893093968503 5.203449922410913 2.1127160651974806 0 0 1
269 1 30.533546217935235 3.744248611722072 1.4253245702740727 0 0 0
604 1 33.247793254793045 4.020230772966261 0.9603422132943091 0 0 0
33 1 8.123655067033074 17.490903868900393 -0.2978137505074337 0 0 0
450 1 46.29046221261436 3.586301939751724 2.6969273596602767 0 0 0
553 1 47.268622917888685 4.666292294783699 0.31543500065934893 0 0 0
198 1 5.702300504649694 7.836874014935145 0.033901648941865536 0 0 0
642 1 11.584650502585053 9.088322450741323 2.486912562539889 0 0 0
686 1 13.549269133129712 7.173383383961538 1.7509922977097698 0 0 0
1783 1 16.37399748247727 8.107503335608559 1.506165029971811 0 0 1
2068 1 18.322434366923176 6.127817831665367 0.7301411711507717 0 0 1
592 1 20.681165106317593 7.49036282974258 0.1724523396498986 0 0 0
1597 1 22.211687232416377 8.110938724121446 2.3813337967048493 0 0 1
1918 1 24.7391817558579 7.227050768742488 1.3336556540961235 0 0 1
241 1 28.784113746240788 5.889061164725511 0.6965361728093433 0 0 0
3650 1 30.219595900195596 8.20225740614616 1.3730655377835066 0 1 1
2029 1 32.55437000498503 8.481696872519136 -0.1773680392865405 0 0 1
382 1 34.1813186702047 6.431214020482913 -0.28895631296273805 0 0 0
29 1 36.01324676943731 6.878839544977302 1.6212745325004136 0 0 0
2532 1 38.574079785827074 6.257059875702256 1.452429492535587 0 1 0
255 1 39.91442400057638 8.843825476143625 1.6213534227017443 0 0 0
16 1 43.03566420830067 6.363156835620243 0.01953843971102809 0 0 0
583 1 46.23319249404426 8.788254721203526 2.6095573720918135 0 0 0
312 1 47.18411856140346 8.45698307169388 0.11468083553261477 0 0 0
164 1 49.36887529617653 6.721811491143399 0.6166712935313952 0 0 0
174 1 50.45229049778174 7.558984960618215 3.065130411099693 0 0 0
541 1 0.042190965331830865 10.658035235639094 0.2270398232040738 0 0 0
343 1 3.6209688034898235 10.94422162200518 2.598800863218957 0 0 0
213 1 6.185399724222405 10.229052054656108 1.6054108570659031 0 0 0
1474 1 8.50855575054175 11.717290524531373 1.0217079636963937 0 0 1
1905 1 9.918647021311683 9.568087573404867 0.032906924231873025 0 0 1
465 1 24.527717846827464 18.92108706383624 -0.39636629677216495 0 0 0
127 1 19.159308745220066 11.455649873787676 1.8750199832376357 0 0 0
537 1 21.836908769661846 10.870360960588238 2.879768604431776 0 0 0
363 1 26.375522957777093 9.432018720894867 1.9502668268198287 0 0 0
1608 1 25.703078555163994 12.034257607647273 2.2708338474002168 0 0 1
2069 1 28.3361918833022 10.01094463819388 0.25736429711301456 0 0 1
545 1 33.690876494080406 10.61906885765779 1.1757689387586558 0 0 0
380 1 0.0016657793059006165 -0.48417995430910765 12.442600585444614 0 0 0
1492 1 36.039056610492054 9.948136775931864 2.232007672633498 0 0 1
472 1 38.24368389030821 10.88878982092314 0.5511137894795306 0 0 0
601 1 50.25388650452174 24.828365043527832 8.436335918922113 -1 0 0
108 1 44.0265111077461 10.314942873586219 2.1369203476111402 0 0 0
388 1 48.71809446677852 10.764250801863746 0.2325002407419725 0 0 0
381 1 47.690740902836524 12.39771287793692 2.061271008654337 0 0 0
2252 1 15.717578275954466 24.89979622914551 10.312939007848307 0 0 0
633 1 2.733175104429064 13.558441279902464 2.1259413595215646 0 0 0
1413 1 4.88399433989108 15.263392227073256 1.5595841403577881 0 0 1
562 1 34.066493504768445 17.066649244224777 -0.20331216631482896 0 0 0
23 1 10.204553373337813 13.783291134304383 2.051127464369634 1 0 0
55 1 14.422387975174733 12.565145956622178 2.3280150902641346 0 0 0
1005 1 12.003075139019314 15.113701775612482 0.3570889384917951 0 0 0
528 1 16.001122745587423 14.504770755032617 2.011471879485562 0 0 0
570 1 18.61431395974763 13.999089630571039 2.109250612652964 0 0 0
1808 1 20.14752725873401 15.4872410699957 0.2522424452133458 0 0 1
1786 1 23.357158658871708 12.120767095185808 0.7348003237490226 0 0 1
239 1 22.615526079163665 14.933265451968442 1.0168696791145824 0 0 0
1242 1 17.731427975384058 24.751279879605285 15.488245445521066 0 0 0
560 1 27.97284088635966 13.509470296219181 1.8954291151862837 0 0 0
676 1 30.086790493012003 12.144731333906662 0.7513167283058175 0 0 0
1689 1 35.47960259280291 14.843844085137157 0.11323172096057832 0 0 1
536 1 39.49716844232488 13.367675378075234 0.906131167062364 0 0 0
514 1 43.52489006249974 14.655513417345782 1.7481513651814131 0 0 0
1877 1 18.60931778224044 23.34280803464623 -0.564647149128436 0 0 1
56 1 49.353841269348706 14.747722757848377 2.250382537384084 0 0 0
2316 1 -0.3045142129775176 18.661915973355708 2.2391412266928183 0 0 0
344 1 4.4245142329360005 17.890313899281757 2.3223340748964674 0 0 0
1998 1 15.856697716501763 -0.5366803119022936 5.5328467854786 0 0 1
672 1 8.626340836218942 18.12287561418286 2.3019316891839137 0 0 0
1699 1 12.784219314069937 16.92520806584197 2.371364515728771 0 0 1
622 1 15.51241423908688 17.750705464783262 2.3293875682225704 0 0 0
1812 1 16.804320071950535 17.83518072663466 -0.4057530812737592 0 0 1
276 1 19.485721147154294 17.9487482358302 0.20932671853536 0 0 0
1640 1 28.87139002987616 17.444648370942037 -0.07300323815977705 0 0 1
1445 1 28.068075699541378 18.552640049341434 2.3337376081795664 0 0 1
1693 1 31.47175783290055 16.861735448252578 0.6011592634550296 0 0 1
1644 1 43.2865561760392 11.193285793123948 -0.32661399842500216 0 0 1
445 1 38.86210959572281 -0.6205514028817447 10.99940617644146 0 0 0
27 1 41.83981001266102 13.509610426858716 -0.3711720220660155 0 0 0
637 1 46.79840404034124 18.21426777765619 1.1516958414483482 0 0 0
564 1 50.39419685381103 21.469419890567117 2.0071003301266566 -1 0 0
1023 1 49.770839968051725 -0.4438385698169846 14.971353997192443 0 0 0
3822 1 7.238003106554867 24.99001145598176 1.2432194188021755 0 0 1
17 1 8.271267051259873 21.583167346448306 0.7607467260000278 0 0 0
3709 1 10.58662737385918 20.739907387758933 0.9060079843935014 0 0 1
1681 1 15.463448508249225 20.530188781285013 2.477061721238834 0 0 1
495 1 19.521422083787492 18.684028881524824 3.009083083490538 0 0 0
1632 1 21.79427546076525 20.141054530850496 2.9859460426871576 0 0 1
4021 1 22.150609464624086 20.120906221424388 0.13774304614267285 0 0 1
1842 1 25.48315026356889 19.49359054371086 1.9725876754946436 0 0 1
4158 1 19.009078900057094 23.950409212913975 7.165726858278898 0 0 1
653 1 30.177194306818517 20.585791559595712 2.9098818386920917 0 0 0
691 1 32.06571489836557 20.719040493861662 1.0745764369024762 0 0 0
2410 1 34.49795989425966 21.210311718892346 1.7110859878701046 0 0 0
273 1 35.75846631122153 18.914418451591164 0.8901190792672251 0 0 0
2371 1 32.35713431781519 -0.2656942245285734 13.427551282419783 0 1 0
471 1 39.700540383843 19.75156420279617 1.9886937925386223 0 0 0
292 1 42.654785532209644 19.382356782881754 1.8733907755423584 0 0 0
284 1 45.85481440941437 22.59894132832219 2.6977557972149366 -1 0 0
2491 1 0.5323137630907364 22.90656456149595 0.2544661369446899 1 0 0
359 1 40.6364159017673 -0.259802679819525 3.3032450035580996 0 0 0
86 1 28.191134570365236 21.546269205597923 16.163522589425614 0 0 0
41 1 14.27145463851982 22.726057847646402 0.9299910477658571 0 0 0
2668 1 11.62212552049148 22.975441103051956 1.6555014081171513 0 0 0
8 1 45.03855672690335 16.482135994821093 0.2922838369871539 0 0 0
286 1 18.492545467653567 23.36155012149541 2.2843318625454123 0 0 0
2105 1 23.381166453710303 24.154244737987487 2.025840402976471 0 0 1
3757 1 47.716296301939934 24.49305326987467 -0.5879229108990219 0 0 1
2021 1 25.979914031034905 22.132748365949027 2.455609659677372 0 0 1
2 1 28.6380391204921 22.87607675591372 1.8864794038087913 0 0 0
1956 1 3.8478733747169365 19.550267167195432 0.14021688200631988 0 0 1
25 1 42.890767507671846 10.001122698049796 15.81682176353031 0 0 0
1664 1 35.13418204204716 23.543591190652972 0.3716856882991555 0 0 1
261 1 37.95831311604626 24.22724932223494 0.9794057679906021 0 0 0
503 1 39.475152235484245 22.435545859489643 2.4042197172984356 0 0 0
63 1 43.49468595393095 21.91051207055486 1.419670983378822 0 0 0
6 1 25.70918445616154 24.83426454917393 6.1198284670631935 0 0 0
2208 1 47.95109182935242 22.13327480546759 0.7784964730584782 0 0 0
701 1 2.3720156383568547 1.61341015162018 4.325090722468355 0 0 0
2441 1 4.839294382166118 1.0436042996056691 5.24368700750653 0 1 0
2449 1 6.698022931343615 3.146562748109662 4.910512364324361 0 1 0
1875 1 9.848210566050362 -0.03927110801867939 5.136638737280868 0 0 1
3975 1 13.857671987651456 1.2894746138761872 5.729250119333032 0 1 1
540 1 18.63497278259496 1.0813653966369419 2.780770028700843 0 0 0
21 1 31.860386931251732 -0.36998426287134006 3.921129020752388 0 0 0
2230 1 49.081935362437555 24.787445406580645 4.297693821745463 -1 0 0
2182 1 24.727642914545246 -0.023815681312315706 5.924772757550644 0 1 0
74 1 27.11214853363491 0.4151586566655563 4.375096892858553 0 0 0
3803 1 33.6377196565928 -0.5463354910687318 -0.17374949518663485 0 1 1
58 1 32.57214871401763 2.009521921661857 4.772086393054552 0 0 0
313 1 38.131612045585825 0.607812115124273 4.332229561371419 0 0 0
2130 1 7.346458192869931 -0.19268089631037677 13.300801171393928 1 1 0
147 1 42.06347954185605 0.37022203101404383 5.470693000244506 0 0 0
2456 1 44.58808897969351 -0.32172866757044805 4.634209148307149 0 1 0
437 1 45.815456720827825 1.3966491159336436 6.103716674551019 -1 0 0
394 1 48.076572790835385 2.1998807391547346 4.475380031566752 0 0 0
64 1 49.126051768850175 -0.03311960622589949 3.1648338978529504 0 0 0
665 1 1.3737464405197106 3.8907386839975393 5.508339503350022 1 0 0
2005 1 1.5620233387320859 6.069122770471496 3.760045065169871 0 0 1
683 1 5.524086558648412 5.480608093502907 6.148450783767325 0 0 0
13 1 10.804470213815641 5.1405940058594926 3.9809978126429693 0 0 0
3599 1 13.388805978712547 5.454666909597902 3.9650843176583725 0 1 1
1446 1 14.515932415736994 3.146198652949985 3.5757338012879014 0 0 1
1417 1 17.203117788151573 3.1883682158586506 4.129073194085809 0 0 1
184 1 19.247659468669408 4.79167290573883 2.7688283194248426 0 0 0
49 1 17.328921779160627 6.05017656083803 6.033236896731659 0 0 0
474 1 23.848657712682254 3.855966644314866 5.175271629662498 0 0 0
532 1 26.439062182892574 4.700071747181698 4.99921448138522 0 0 0
106 1 28.182716874060397 2.835069085848595 5.5641234355368745 0 0 0
434 1 30.42486815692761 3.671448466264417 4.210147797987109 0 0 0
160 1 34.342812172519515 3.5680532656344033 3.3903774959419746 0 0 0
1771 1 36.67434285817105 2.375528219216625 3.1345626751965696 0 0 1
420 1 38.48958391129523 4.718225576300107 3.5403456986347352 0 0 0
3860 1 41.16509297057292 4.1406566782804815 3.6339217522664375 0 1 1
614 1 49.98296629217997 3.3557138991685216 6.10921550831819 0 0 0
1840 1 2.9502912862567237 8.538282675988306 4.444341225869777 1 0 1
597 1 5.014288504807336 7.042081054352081 4.017968706892512 1 0 0
80 1 6.828218548709893 8.913072005237144 3.824556785776183 0 0 0
400 1 9.578596965822722 7.730195572864957 3.393341838092761 0 0 0
2450 1 14.637148921721446 6.829232812779589 6.010580559822668 0 1 0
593 1 18.999716945771734 8.28544601393176 5.5601854783199265 0 0 0
459 1 20.847719114256677 6.625489878817133 4.236204019490638 0 0 0
188 1 31.459886221999305 6.2856374243531326 4.863528178561524 0 0 0
42 1 30.264180293444504 8.803847279971873 4.1459233840086 0 0 0
685 1 34.225563989734766 6.213931995818361 3.8583269016962323 0 0 0
123 1 42.77400740224264 6.328204249348188 2.768748587419144 0 0 0
289 1 42.12741499870029 8.893465347522822 3.46667624835914 -1 0 0
730 1 45.27168052511428 6.340459699949481 3.3819996999098327 0 0 0
594 1 48.35760537031274 8.704861601732206 4.468256547456164 0 0 0
458 1 0.8055051473759893 9.991324515541855 2.745440629973784 0 0 0
626 1 -0.07024433217639647 11.720225933475708 4.660409971636468 0 0 0
170 1 5.217085193641185 12.293726232679218 4.587057571753044 0 0 0
19 1 11.739764984807163 10.708845490455856 5.015829093105214 0 0 0
421 1 14.228883629450715 9.72399567641912 6.193371326631406 0 0 0
133 1 15.913968383723834 11.38465795653712 4.34208329627562 0 0 0
97 1 17.69715042518298 9.530566495733177 3.4941616102980975 0 0 0
153 1 22.356834726611872 11.809877010576137 5.304901108072123 0 0 0
649 1 27.666827502482583 8.987829250645262 4.511900405064971 0 0 0
600 1 27.359101669378912 11.146283140332152 6.5104164617191955 0 0 0
538 1 31.559053646435608 11.001550064249859 4.872725054144485 0 0 0
411 1 34.326233797327546 12.156004995015289 5.939052740164693 0 0 0
2025 1 36.28563873860026 10.328964358628152 4.9257060576211105 0 0 1
372 1 38.76265215050372 11.646120940252294 5.5258859317928355 0 0 0
337 1 40.695696917995306 9.96305054557844 5.750794552497026 0 0 0
401 1 48.56776024371241 11.33432600428702 4.323407478017891 0 0 0
154 1 0.5009155679341606 14.151458456108038 3.6274266315897785 0 0 0
409 1 6.152384833547463 14.785947633023774 3.984064137726646 0 0 0
142 1 8.85706551035757 15.788098030262827 3.6187304744984017 0 0 0
1716 1 12.196171657395027 13.119950058208849 3.6998334654266714 0 0 1
693 1 17.22029014917612 13.222138937663864 6.14124451719758 0 0 0
2490 1 19.088516352939905 14.577082511238777 4.7794004509760875 0 0 0
442 1 21.64879543086315 14.509415611568503 5.321376381799239 0 0 0
328 1 25.04819517777297 12.714465180948464 4.956399299621975 0 0 0
203 1 29.625366130301607 12.716586437728324 5.657749234642026 0 0 0
1501 1 31.968811072639234 12.35117183018376 2.697852799279131 0 0 1
1534 1 29.04473095935508 14.857211158251598 3.948869027630063 0 0 1
346 1 33.35338068826979 14.440627726471721 3.783109811180556 0 0 0
291 1 35.91591894343313 15.03845643743997 2.854803152197937 0 0 0
1567 1 38.43952864414341 13.664672899689728 3.4887224615291705 0 0 1
332 1 44.20158004101129 14.52344805971077 6.066639842732193 0 0 0
456 1 45.09041700304791 12.731493279081011 3.0182289974588574 0 0 0
666 1 45.271478145587096 12.231540618164498 5.802495724951013 0 0 0
325 1 1.2626191316817927 16.51689779440811 5.226101516455552 0 0 0
81 1 1.9216668282413956 18.34888077255684 3.6789752621688736 0 0 0
22 1 9.826202918701213 16.044343514682684 6.011508815281792 0 0 0
2696 1 13.84698874988058 15.341947704249293 4.417991580623151 0 0 0
117 1 15.695741432424835 17.456336172537426 5.469438207133781 0 0 0
651 1 18.30948478479732 17.135735138974905 5.319981233517039 0 0 0
1131 1 23.028290373202715 15.914183378556956 3.610502808808161 0 0 0
31 1 25.279089426699553 15.400283729252951 4.956616450327182 0 0 0
658 1 27.45654086569322 17.0655615482177 4.6252387231770795 0 0 0
201 1 31.460142906981723 16.254951737838244 3.2127645551410144 0 0 0
338 1 31.987521457316376 18.0648573442862 5.7842070877010325 0 0 0
339 1 36.40091362974643 17.63068711612735 3.0848174708067297 0 0 0
652 1 40.30922137927638 15.651193079569381 4.4978646163820555 0 0 0
294 1 38.9694060307174 17.947873008365224 4.1813122817334545 0 0 0
287 1 43.00267027796718 15.911863657573374 4.068801421822236 0 0 0
320 1 43.64560569438812 18.65289259366108 4.342848047642104 0 0 0
575 1 48.9007797579209 17.404832088603026 2.7977931293856733 0 0 0
275 1 48.00924154940965 18.336123955931605 5.237322949974917 0 0 0
331 1 2.5516481242439193 20.600503939585458 5.051582994751448 0 0 0
1734 1 6.64678736627524 22.571019617311876 3.1426309937864967 0 0 1
297 1 6.48411503089768 19.437122661194735 3.339427601882568 0 0 0
352 1 11.165349714209961 18.942627079243714 3.096881976431555 0 0 0
2453 1 11.28030716162977 19.857199873732444 5.968196894319401 0 0 0
3114 1 17.91631131844456 21.32727059503315 6.159858264731413 0 0 0
697 1 17.91842482251991 20.68948587778831 3.4654065369397626 0 0 0
492 1 23.875945889467488 18.6782263730753 4.063938276064233 0 0 0
4168 1 24.92777007281797 20.22796213518154 6.086863130869952 0 0 1
296 1 28.839344352176496 21.795348621050923 6.25360237381698 0 0 0
524 1 31.323783816012433 20.89869094845753 5.372047652785829 0 0 0
151 1 34.89626273108189 18.488889045578823 5.095124435822346 0 0 0
460 1 34.75138438184782 20.907666417844208 4.329375604951063 0 0 0
91 1 42.62974982413449 20.10092038442777 6.266483977581884 0 0 0
295 1 46.11591592306788 19.683412410894526 3.456797928424476 0 0 0
2293 1 49.14440600252793 20.82308121260101 6.02010985851217 0 0 0
2487 1 0.11137232440548661 21.855735261603883 4.609662615587771 0 0 0
1070 1 0.528827395592409 24.506031718690124 4.673763735882523 0 0 0
30 1 4.0496424408288725 22.283537843915532 3.3961221036057267 1 0 0
1536 1 10.779922753123374 24.249440807115004 5.735053568334141 0 0 1
623 1 12.093301888876404 22.226381772314408 4.391240514835912 0 0 0
390 1 14.945902962849779 22.139016149717822 4.963296281268637 0 0 0
3740 1 15.929099341293725 24.32687645533282 3.07507696601359 0 0 1
146 1 21.292507293022354 22.775426785203354 3.2146945865430463 0 0 0
235 1 21.44025194348742 23.819406535455872 5.760879639460405 0 0 0
90 1 26.41271246448511 22.30621026503221 5.248453428579273 0 0 0
105 1 33.220569953676126 22.84948334396962 5.694715716274975 0 0 0
40 1 37.192075937367264 22.13486389508533 4.098601237927873 0 0 0
10 1 41.86792663703953 23.528722485469622 2.957871622540617 0 0 0
46 1 42.96042184239605 22.726337620374235 5.391634987583104 0 0 0
457 1 47.52891366379371 22.799702023463897 5.069406857684651 -1 0 0
2814 1 38.68646202458711 4.300661510284111 -0.6233741588431072 0 1 0
2458 1 4.206289808805399 1.1545150440559604 8.309385039628765 0 1 0
2578 1 10.432204741805437 -0.5105668851549936 2.2882145240364093 0 1 0
3711 1 8.768922801665735 2.3147449589751603 6.6840574711167715 0 1 1
12 1 8.356167780016486 1.521812817801313 9.309207031717696 0 0 0
571 1 13.74686445029549 2.5361622340404852 8.400891785960859 0 0 0
416 1 16.517721810233127 2.5988039255043107 8.491686467475343 0 0 0
620 1 17.427350291655095 1.4979582134169638 6.085187953420722 0 0 0
109 1 19.827152448079683 0.19823187803961928 7.360787211407153 0 0 0
470 1 21.498438089327053 2.080354419446336 8.526492000179278 0 0 0
612 1 24.06898039634929 2.371896551590565 7.273096202267013 0 0 0
89 1 25.927214132346197 2.869572683971824 9.049049859721688 0 0 0
521 1 30.74652190527812 1.5084613637658881 8.886635273097008 0 0 0
441 1 35.05232311367663 -0.12274738343761515 7.338975462461315 0 0 0
2587 1 33.33061144659675 2.049848027774348 7.586594497775421 0 1 0
2638 1 37.58116867920687 1.0938747354814637 6.988824064718332 0 1 0
2786 1 47.25506692084029 0.1812346266389513 8.056507086070267 0 1 0
447 1 49.85657220870712 1.2196597571549124 7.874368174389717 -1 0 0
671 1 2.683255807452811 5.557373591850646 7.173633137120532 1 0 0
426 1 10.396247388395295 4.693177264401293 6.8209793043679285 0 0 0
530 1 13.085338493850314 5.161472976210844 7.737398105498803 0 0 0
2205 1 17.757997781641155 5.220868444917546 8.448882985064072 0 1 0
195 1 20.707208717036632 4.590323736164191 8.428393107503688 0 0 0
670 1 22.21229980003235 5.744025846696275 6.497863450521686 0 0 0
95 1 28.5060628238804 2.889483896558541 8.252971224400927 0 0 0
1704 1 28.699470700877953 5.736375197456542 8.286164649095918 0 0 1
2306 1 34.514378341356895 4.5916082692087095 8.21945674477507 0 1 0
645 1 38.087728367164175 5.69367110309367 6.214592444313719 0 0 0
2283 1 38.502508113817655 3.6386403650365597 7.9752430204240135 0 1 0
3784 1 41.21370146790749 4.2263941351853775 8.710444778885778 0 1 1
2394 1 41.514538382253654 2.933055687260198 6.177492725523091 0 1 0
242 1 44.49356129466237 4.079228460884264 9.597646552526326 0 0 0
226 1 44.12510086800801 3.5528825175888095 6.866077001886756 0 0 0
68 1 47.01534931933608 5.648905384541434 9.689462406756633 0 0 0
494 1 0.38712324249549446 7.418229683565938 7.895868727591694 0 0 0
256 1 2.7048780238588965 8.96526895006919 7.242150564819091 1 0 0
616 1 6.795218590932286 6.745740299582117 8.164132929901482 0 0 0
618 1 9.584112571181445 7.049852738954539 7.337410745810369 0 0 0
15 1 24.402718196288937 6.766283280591089 8.175974502477631 0 0 0
67 1 26.779245829214176 7.064559989541943 6.394543536003924 0 0 0
464 1 31.463414834804375 6.670676389547711 7.686151710162733 0 0 0
197 1 34.87628941991153 8.906475770936101 6.996321460204778 0 0 0
69 1 35.40891608438394 6.243932641809601 6.341630418669712 0 0 0
140 1 39.628431537933025 7.744338169400896 7.252583418841351 0 0 0
43 1 41.617516255306846 6.995900886528872 9.025085125870282 0 0 0
3364 1 43.78191541456243 7.992135419514858 7.614430222365215 0 1 0
2691 1 45.2870991551945 5.888621395073536 6.0623929825551075 0 1 0
3029 1 45.99244484004271 8.123452873880026 9.354601094622302 -1 1 0
167 1 47.92453873171347 5.487128307286362 6.955614984403005 -1 0 0
83 1 49.10370066403255 7.7108362186829815 6.821234176376725 0 0 0
263 1 1.2727706391619427 11.511614412538032 7.078287346177525 0 0 0
415 1 5.346815631147638 9.107912303288645 8.120707074315654 0 0 0
1969 1 6.921832924384124 10.522689555466494 6.2119288392812235 0 0 1
496 1 9.4325888999348 9.173976922365277 5.656062266221105 0 0 0
44 1 9.03803959876884 11.994472080919433 7.697806268670206 0 0 0
57 1 10.82986960245456 10.712491067682699 9.336903739607628 0 0 0
39 1 13.258167859375833 11.989765776493995 9.56222520664434 0 0 0
84 1 15.122028964594268 10.232281986053984 8.591542987345015 0 0 0
376 1 17.646831825446306 11.580478141336801 8.233719276291676 0 0 0
625 1 19.628695444406436 9.511918847083148 8.020971304917467 0 0 0
476 1 21.868382656756236 10.85817579812432 8.000393339820617 0 0 0
229 1 24.06921291876939 9.506968440578392 9.025912325189703 0 0 0
556 1 26.207820307886728 11.02012565516258 9.17337887620713 0 0 0
121 1 32.33981475151366 11.339924191464457 9.225616634330885 0 0 0
705 1 32.26753589542513 9.291797294289864 7.433098146863534 0 0 0
368 1 35.79426395488191 8.962986090187867 9.650193285129818 0 0 0
166 1 39.76424898454007 11.608686040049523 9.916765185324438 0 0 0
525 1 43.147152125587155 10.937360517301569 7.121373390898017 0 0 0
425 1 42.310537742034334 12.207274105302483 9.291115339559383 0 0 0
707 1 47.87624282081971 12.108767403186286 6.798513434147567 0 0 0
267 1 48.03077129198164 9.675343154195042 8.371219748695044 0 0 0
648 1 4.79805567657754 12.187871860446027 9.079603748055993 0 0 0
187 1 3.6680864238125945 12.95962299527896 6.831959348707735 1 0 0
950 1 3.2434470586271096 15.730013888416245 7.2347560027221975 0 0 0
62 1 7.280351583649298 13.740124244001956 8.944807530328658 0 0 0
178 1 10.839928088147936 13.415551188584592 6.168737931198685 0 0 0
856 1 12.819994206517784 14.267225139418306 8.146578466437816 0 0 0
2362 1 15.634598707113057 15.299940263532848 7.363978865450087 0 0 0
301 1 18.747119975800747 13.481005704036887 9.838637603304315 0 0 0
563 1 21.20862111590186 13.258142928893319 8.87305753210187 0 0 0
246 1 25.334894671583267 13.561489748055026 9.28196619251628 0 0 0
452 1 31.175748131376817 13.718095994320029 7.9681263822651385 0 0 0
435 1 33.114589113699964 15.204268082518276 6.527453251886884 0 0 0
303 1 35.95539657934075 13.072699620134324 7.97077198866412 0 0 0
202 1 38.69295303825476 13.077871597521076 7.925569052230374 0 0 0
489 1 40.25253142432775 15.0666298052405 7.173660262456844 0 0 0
428 1 42.56047906803808 14.794129446777932 8.31154878439355 0 0 0
519 1 48.84037877411325 14.728883897818788 7.000872085128055 0 0 0
2478 1 5.591895261338083 16.73904573159868 6.334736566356087 0 0 0
4018 1 6.130340478350576 19.68078018567485 6.263639327247133 0 0 1
189 1 7.5820538552734025 16.37636646102168 8.107299104606177 0 0 0
2334 1 12.205989318099942 17.01167000771111 6.423860095346529 0 0 0
171 1 11.80689878337274 18.26358157178419 9.17909834916373 0 0 0
778 1 17.702095020032804 15.796919996682977 9.050149491048616 0 0 0
1712 1 19.45344009923128 17.438723126842916 7.910618815052169 0 0 1
1187 1 21.832889574397225 15.803324931853275 7.956354026694331 0 0 0
159 1 24.58010134265449 15.842744320697001 7.653554041783179 0 0 0
128 1 25.67293015110534 18.35058021513266 8.029612466521852 0 0 0
11 1 27.90749003156209 18.849786294798342 6.795417591672035 0 0 0
518 1 29.701182482788223 17.841941785999058 8.789322592242602 0 0 0
2137 1 32.37305793182382 18.64380068695986 8.682490163557121 0 0 0
669 1 35.29654637623433 15.697763551108675 8.352128962275202 0 0 0
51 1 36.457549853222055 18.01470911908679 7.271954453767287 0 0 0
488 1 39.12809969865641 17.577977616805743 7.9375537004540195 0 0 0
613 1 46.58122895254465 16.307033016669756 6.62769173368289 0 0 0
515 1 45.85282154922046 17.63381175965362 8.931816582152594 0 0 0
318 1 50.21295258764545 17.466347142053465 6.515533655072756 -1 0 0
544 1 -0.5656679482820124 18.325629561288295 9.158704626392703 0 0 0
505 1 0.7382714608271361 20.77936582370611 9.404008677533145 1 0 0
110 1 2.726398580964709 21.510176507729838 7.580892051997173 0 0 0
517 1 5.223724918377673 20.73173036455945 8.585237450817077 0 0 0
513 1 8.792334743961607 20.445037950691134 7.061434845465117 0 0 0
251 1 13.172608572847363 20.79573178773483 7.745565324257139 0 0 0
2407 1 15.699558762431082 19.834943612256474 6.894010059570727 0 0 0
549 1 16.361618222213075 19.5358581218854 9.813270738341265 0 0 0
2800 1 20.076678679499434 20.206564411207307 7.624381709929173 0 0 0
543 1 22.61087272387548 21.536316855562266 7.002435930585892 0 0 0
577 1 32.476611076650265 21.307968003283786 9.646004238987574 0 0 0
329 1 36.636882134740375 20.583557285695512 8.205322983809063 0 0 0
587 1 38.21320685193232 21.84748057109932 6.568270946569932 0 0 0
559 1 39.910150575996745 19.620470859198463 6.265556774935637 0 0 0
490 1 43.6499697495574 19.64947053999388 8.572422612147099 0 0 0
688 1 45.23620030434977 22.0892035411108 9.002397267066826 0 0 0
2142 1 3.505855036183923 24.06652155348897 7.920316644192351 0 0 0
2682 1 6.737244807761904 22.541768498656747 9.812384919327968 0 0 0
713 1 48.46606690805786 3.4947310921304124 16.0526239039131 0 0 0
2802 1 9.148349204681903 23.17626692625563 7.677477571811538 0 0 0
3623 1 14.89104757226749 23.8003073859019 7.570847554029216 0 0 1
2190 1 31.07122528685761 22.77410867648645 -0.37164865639750255 0 0 0
245 1 13.826424672930225 11.521647526733215 -0.1263698996857996 0 0 0
1174 1 2.986552035729516 22.161955365102152 0.6898706472813871 0 0 0
2403 1 23.664204820844468 22.21430477120539 9.590711603902214 0 0 0
52 1 25.934736110201577 23.73094048005302 8.872037857642031 0 0 0
2408 1 28.064253736082872 21.46083284077857 9.057834231062918 0 0 0
2602 1 34.473961126329414 22.515063111753562 8.057928261339013 0 0 0
36 1 20.367550356202305 -0.06602769380340334 4.78618049793005 0 0 0
279 1 39.43749917973952 23.81700707984934 7.63669446316516 0 0 0
26 1 42.29409989257834 24.494856466216696 7.536462411407749 0 0 0
480 1 45.39415864449792 23.498787356819403 6.891105334838828 0 0 0
2659 1 49.51930890128987 21.99788897786316 8.751950648393045 0 0 0
2398 1 -0.002659836498354662 1.6710834751085812 10.372679804512158 1 1 0
659 1 2.6784560157735267 2.2395562301959266 10.257668103299945 1 0 0
2564 1 3.3461446764404297 2.0877823332761167 13.168578421514992 0 1 0
18 1 6.045161705017717 2.1922303350112733 12.810517712485789 0 0 0
2782 1 10.6375790291363 0.17419786891298783 10.119723937627072 0 1 0
2539 1 12.651572867400201 1.746753987016291 10.822544513333767 0 1 0
639 1 14.629508642220904 0.4768758278778511 12.338818979944183 0 0 0
427 1 17.022429680635213 1.0011272409532845 10.888238754077932 0 0 0
135 1 19.18287918042036 1.5489205246084894 12.404934810796782 0 0 0
2519 1 21.533703364410073 1.0961701810340736 11.139611251763538 0 1 0
413 1 23.79416217459527 1.7597418829330942 12.487766876718908 0 0 0
3154 1 26.09454169061299 1.0400704726233954 11.110456726559283 0 1 0
586 1 28.43656971922744 1.321725272586478 12.517826999452568 0 0 0
504 1 32.93809400929811 2.3485040240839035 12.953749499078686 0 0 0
35 1 35.498144559188866 2.072050256172216 11.951358677858023 0 0 0
1061 1 39.971521016226546 1.676822357570051 12.32095559701537 0 0 0
4133 1 43.46211244131145 -0.10995756464806805 9.986818734866095 0 1 1
290 1 42.15165982296424 2.249430892441126 10.600563013274618 0 0 0
3155 1 46.12580629531304 1.3572091840870124 10.307395311343807 0 1 0
73 1 3.087411866909801 4.9622508765317335 9.886630809863131 1 0 0
632 1 7.756018880603122 3.4455669003643434 11.175213284310097 0 0 0
4 1 5.9810585755353936 5.177226716945177 10.307283597510155 0 0 0
546 1 9.635150760255069 4.820899623958675 12.412536527621286 0 0 0