
# Create simulation box of size 50 x 50 x 50 Angstrom
#
lattice	            sc 1
Lattice spacing in x,y,z = 1.0000000 1.0000000 1.0000000
region 	            all block 0 50 0 50 0 50 units box
create_box          1 all
Created orthogonal box = (0.0000000 0.0000000 0.0000000) to (50.000000 50.000000 50.000000)
  1 by 2 by 3 MPI processor grid

# fill box with 4175 randomly distributed atoms
#
create_atoms        1 random 4175 63782 all
Created 4175 atoms
  create_atoms CPU = 0.001 seconds
mass                1 18.015

# Define potential
#
pair_style          sw
pair_coeff          * * ML_mW.sw mW
Reading sw potential file ML_mW.sw with DATE: 2019-02-27

# Run minimization
#
minimize            1.0e-8 1.0e-8 10000 1000
WARNING: Using 'neigh_modify every 1 delay 0 check yes' setting during minimization (../min.cpp:187)
Neighbor list info ...
  update every 1 steps, delay 0 steps, check yes
  max neighbors/atom: 2000, page size: 100000
  master list distance cutoff = 6.0032907
  ghost atom cutoff = 6.0032907
  binsize = 3.0016454, bins = 17 17 17
  1 neighbor lists, perpetual/occasional/extra = 1 0 0
  (1) pair sw, perpetual
      attributes: full, newton on
      pair build: full/bin/atomonly
      stencil: full/bin/3d
      bin: standard
Per MPI rank memory allocation (min/avg/max) = 4.255 | 4.258 | 4.261 Mbytes
Step Temp E_pair E_mol TotEng Press 
       0            0    7792709.3            0    7792709.3    5898794.3 
     630            0   -45180.336            0   -45180.336   -154.07449 
Loop time of 1.15948 on 6 procs for 630 steps with 4175 atoms

99.4% CPU use with 6 MPI tasks x no OpenMP threads

Minimization stats:
  Stopping criterion = max force evaluations
  Energy initial, next-to-last, final = 
      7792709.32924461  -45180.0188663597   -45180.336116598
  Force two-norm initial, final = 2.0191930e+08 4.9721331
  Force max component initial, final = 1.0948746e+08 0.73126211
  Final line search alpha, max atom move = 0.053306038 0.038980685
  Iterations, force evaluations = 630 1000

MPI task timing breakdown:
Section |  min time  |  avg time  |  max time  |%varavg| %total
---------------------------------------------------------------
Pair    | 0.8709     | 0.9856     | 1.0555     |   6.4 | 85.00
Neigh   | 0.023712   | 0.024578   | 0.025744   |   0.4 |  2.12
Comm    | 0.059417   | 0.12908    | 0.24536    |  17.9 | 11.13
Output  | 0          | 0          | 0          |   0.0 |  0.00
Modify  | 0          | 0          | 0          |   0.0 |  0.00
Other   |            | 0.02022    |            |       |  1.74

Nlocal:        695.833 ave         704 max         685 min
Histogram: 1 1 0 0 1 0 0 1 0 2
Nghost:        1494.17 ave        1515 max        1468 min
Histogram: 1 1 0 0 0 0 1 1 1 1
Neighs:        0.00000 ave           0 max           0 min
Histogram: 6 0 0 0 0 0 0 0 0 0
FullNghs:      19997.0 ave       20462 max       19320 min
Histogram: 1 1 0 0 0 0 0 2 0 2

Total # of neighbors = 119982
Ave neighs/atom = 28.738204
Neighbor list builds = 26
Dangerous builds = 0

# Add velocity/set timestep
#
velocity            all create ${TEMP} 120598 rot yes dist gaussian
velocity            all create 205 120598 rot yes dist gaussian
timestep            5.0

# Define output
#
compute	            1 all msd
thermo	            100
thermo_style        custom step temp press vol etotal ke pe c_1[4] density

# Neighbor lists
#
neigh_modify        delay 0 every 1 check yes

# Set fixes
#
fix                 1 all momentum 10 linear 1 1 1 rescale
fix                 2 all nve
fix                 3 all temp/csvr ${TEMP} ${TEMP} 500.0 928347
fix                 3 all temp/csvr 205 ${TEMP} 500.0 928347
fix                 3 all temp/csvr 205 205 500.0 928347
fix                 4 all press/berendsen iso ${PRES} ${PRES} 1000.0 modulus 20000
fix                 4 all press/berendsen iso 250 ${PRES} 1000.0 modulus 20000
fix                 4 all press/berendsen iso 250 250 1000.0 modulus 20000

# Run 0.5 ns equilibration
#
dump                1 all custom 1000 eq.${NAME}.dump id type x y z vx vy vz
dump                1 all custom 1000 eq.liquid_density_MLmW.dump id type x y z vx vy vz
run                 100000
Per MPI rank memory allocation (min/avg/max) = 3.506 | 3.508 | 3.511 Mbytes
Step Temp Press Volume TotEng KinEng PotEng c_1[4] Density 
     630          205    778.67162       125000   -42629.746    2550.5897   -45180.336 2.7295415e-33   0.99914793 
     700    131.28746    195.99398    125232.29   -41848.598    1633.4656   -43482.064    0.2348126   0.99729463 
     800    163.93214    72.333472    125175.75   -41148.751    2039.6275   -43188.378   0.55285313    0.9977451 
     900    179.88417    399.17528    125023.97   -40760.329    2238.1011   -42998.431   0.93894703   0.99895634 
    1000    188.19835    393.29124    125055.07   -40517.996    2341.5453   -42859.541    1.2829001   0.99870796 
    1100    197.29922    323.47675    125066.15   -40356.811    2454.7774   -42811.588    1.6516342   0.99861943 
    1200    200.32815     338.4813    125059.65   -40411.915    2492.4631   -42904.378    1.9675709   0.99867134 
    1300    199.90634    434.08094    125200.46   -40403.014    2487.2149   -42890.229    2.2486253   0.99754816 
    1400    200.49617     364.9326    125478.51   -40411.414    2494.5536   -42905.968    2.5895803    0.9953377 
    1500    200.63376    266.17948    125460.41   -40373.144    2496.2654    -42869.41    2.8018208    0.9954813 
    1600    206.50592    287.94736    125400.15   -40298.261    2569.3263   -42867.587    3.1591933   0.99595963 
    1700    204.72587    164.07227    125458.74   -40340.646     2547.179   -42887.825    3.4337324   0.99549453 
    1800    204.96466    331.46328    125487.33   -40447.194    2550.1501   -42997.344    3.7782862   0.99526772 
    1900    205.05913    350.72142    125521.26   -40451.333    2551.3254   -43002.658    4.0126402   0.99499873 
    2000    210.23691    353.74489    125658.67   -40432.166    2615.7468   -43047.913    4.3572475   0.99391065 
    2100    209.15087    152.28361    125792.03    -40413.99    2602.2344   -43016.224    4.5343347   0.99285695 
    2200    207.29052    359.44899    125892.84   -40456.839    2579.0882   -43035.927    4.6971106   0.99206195 
    2300     208.1108    294.02172    125726.31   -40445.233    2589.2941   -43034.527    4.8931436   0.99337597 
    2400    205.57452    344.73207    125650.86    -40462.87    2557.7379   -43020.608    5.1776065   0.99397245 
    2500    207.20725    308.36091     125833.5    -40419.18    2578.0522   -42997.232    5.4529314   0.99252971 
    2600    215.35125    118.63517    125917.19   -40391.798     2679.379   -43071.177    5.6385796   0.99187006 
    2700    205.83995    419.09602    125828.06    -40427.55    2561.0403   -42988.591    5.8905899   0.99257264 
    2800     213.2831    26.041224    125640.46   -40427.843    2653.6473    -43081.49    6.1425526   0.99405472 
    2900    206.11475    151.30861    125501.38   -40491.691    2564.4593    -43056.15      6.52174   0.99515634 
    3000    209.16254    466.75272    125507.19   -40534.587    2602.3797   -43136.967    6.7150898   0.99511024 
    3100    206.80905    117.30197    125886.49   -40509.921    2573.0978   -43083.018    6.9011012   0.99211196 
    3200     204.0546    326.31238    126030.24   -40573.151    2538.8272   -43111.979    7.1358514   0.99098034 
    3300    206.41285      265.875    126083.23   -40552.171    2568.1683   -43120.339    7.2452171   0.99056388 
    3400     205.8716    361.74431    126132.03   -40600.261    2561.4341   -43161.695    7.4462825    0.9901806 
    3500     204.3568    337.64137    126294.49   -40631.746    2542.5872   -43174.333    7.6594505   0.98890686 
    3600    205.23803    233.76188    126440.32   -40689.888    2553.5512    -43243.44    7.9367245   0.98776632 
    3700    205.00432    198.39342    126564.01    -40766.68    2550.6435   -43317.323    8.0966352   0.98680098 
    3800     207.2078    228.90223     126550.6   -40736.032    2578.0589   -43314.091    8.2358967   0.98690555 
    3900    206.39545    182.54761    126505.24   -40767.537    2567.9518   -43335.489    8.3853414   0.98725943 
    4000    202.76329    199.69833    126555.95   -40757.948    2522.7608   -43280.709    8.5486981   0.98686382 
    4100    204.64775    412.74102    126662.97   -40731.725    2546.2071   -43277.932    8.6468105      0.98603 
    4200    203.89898    261.37907     126636.2   -40735.316     2536.891   -43272.207    8.8604939   0.98623844 
    4300    202.41507    230.24678    126690.17   -40732.957    2518.4283   -43251.385    9.0290326   0.98581829 
    4400    205.14809    209.46136    126790.85    -40724.44    2552.4323   -43276.872    9.4206164   0.98503555 
    4500    204.07643    301.46767    126903.89   -40730.644    2539.0987   -43269.743    9.6250963   0.98415811 
    4600    205.09852    403.61043    127058.31    -40784.95    2551.8155   -43336.766    9.7546569   0.98296199 
    4700    206.19059    531.92148    127353.38   -40720.395    2565.4029   -43285.798    10.118155   0.98068453 
    4800    203.97735    246.33968    127399.75   -40782.031     2537.866   -43319.897    10.265269   0.98032762 
    4900    210.24537    274.31908    127508.86   -40681.273    2615.8521   -43297.125    10.390444   0.97948874 
    5000    212.11441    77.330656    127670.94   -40650.039    2639.1066   -43289.145    10.546841   0.97824525 
    5100    208.97633    227.41135    127576.62   -40734.489    2600.0628   -43334.552    10.684113   0.97896848 
    5200    203.53407    202.95557    127351.15   -40785.477    2532.3508   -43317.827    10.850845   0.98070174 
    5300    204.32819    223.77658    127439.21   -40759.018    2542.2312   -43301.249    11.106962   0.98002402 
    5400    209.50674    276.70817    127308.03   -40792.279    2606.6621   -43398.941     11.15997   0.98103392 
    5500    206.26537    136.48827    127345.62   -40807.261    2566.3333   -43373.594    11.260783   0.98074432 
    5600     205.0631    402.06855    127390.72   -40810.768    2551.3748   -43362.143    11.508691   0.98039705 
    5700    204.48611    289.13267    127406.69   -40810.356     2544.196   -43354.552    11.542791   0.98027423 
    5800    202.76284    394.88579    127417.79   -40842.225    2522.7552    -43364.98    11.683938   0.98018881 
    5900    203.49732    353.33587    127495.87   -40879.204    2531.8936   -43411.098    11.878761   0.97958854 
    6000    204.51272    307.61597    127790.61    -40884.15     2544.527   -43428.677    12.043861    0.9773292 
    6100    206.76479    210.15763    127619.18   -40844.981     2572.547   -43417.528    12.084315   0.97864201 
    6200    204.13153     373.1869    127590.27   -40921.117    2539.7844   -43460.901     12.21595   0.97886373 
    6300    202.93947    297.64365    127641.96   -40897.878    2524.9528   -43422.831    12.394703   0.97846734 
    6400    207.75987    343.94272     127737.6   -40895.414    2584.9277   -43480.341    12.557399   0.97773472 
    6500    207.42356    317.54949    127848.39   -40860.458    2580.7435   -43441.202    12.692828   0.97688745 
    6600    206.64571    264.97433    127792.48   -40940.765    2571.0655    -43511.83    12.903332   0.97731487 
    6700    200.12733    337.44637    127553.91   -40997.191    2489.9645   -43487.155     12.83265   0.97914277 
    6800    202.68839    366.31028    127746.82   -40926.419    2521.8289   -43448.248    12.990865   0.97766418 
    6900    208.28309    370.57397     127747.8   -40877.128    2591.4376   -43468.565    13.044865    0.9776567 
    7000      207.142    233.17517    127790.64   -40871.127    2577.2403   -43448.368     13.31954   0.97732896 
    7100    211.89609     223.4341    127808.88   -40908.611    2636.3902   -43545.001    13.526567   0.97718948 
    7200    205.73264    156.51641    127916.52   -40973.614    2559.7051   -43533.319    13.604856   0.97636715 
    7300    201.46184    331.15872    127931.58   -41039.644    2506.5683   -43546.213    13.771891   0.97625221 
    7400     201.1865    264.16727    128060.15   -41071.319    2503.1426   -43574.461    13.979875   0.97527208 
    7500    205.27788    329.41765    128011.78   -41048.182    2554.0471    -43602.23    14.152514   0.97564063 
    7600    199.53064    313.62293    128040.02   -41119.328    2482.5405   -43601.869    14.276139   0.97542541 
    7700    203.80198    342.18124    128255.27   -41035.487    2535.6841   -43571.171    14.411453   0.97378841 
    7800     205.9008    285.51697    128107.54   -41012.959    2561.7975   -43574.756    14.575318   0.97491136 
    7900    202.02322    221.06518    128177.46   -41071.114    2513.5529   -43584.667    14.559797   0.97437952 
    8000    204.40328    231.64919    128207.49   -41039.139    2543.1654   -43582.304    14.722978   0.97415129 
    8100    203.36297    335.91731    128302.14   -41113.285    2530.2219   -43643.507    14.715338   0.97343267 
    8200    204.90281    325.67575    128194.97   -41142.974    2549.3804   -43692.355    14.975955   0.97424645 
    8300    206.23196    279.56635    128263.81   -41119.107    2565.9177   -43685.024     15.15123   0.97372356 
    8400    204.27559    389.36171    128315.79   -41076.612    2541.5767   -43618.189    15.266002   0.97332909 
    8500     208.9867     317.9204    128304.04   -41014.797    2600.1919   -43614.989    15.325742   0.97341824 
    8600    203.89596    158.74276    128394.38   -41047.454    2536.8534   -43584.307    15.575655   0.97273331 
    8700     206.1201     410.9889    128239.36   -41036.782    2564.5259   -43601.308    15.684404   0.97390918 
    8800    206.80891    260.78928    128352.72   -41080.245     2573.096   -43653.341     15.60585   0.97304901 
    8900    205.17275    111.07827    128220.34    -41165.45    2552.7391   -43718.189    15.521854   0.97405369 
    9000    200.34452    164.72994    128230.63   -41128.511    2492.6667   -43621.178    15.671864   0.97397548 
    9100    201.70316    340.71647    128373.65   -41181.519    2509.5708   -43691.089    15.847907   0.97289037 
    9200    202.76762    128.62025    128335.13   -41091.485    2522.8147     -43614.3    15.881742   0.97318244 
    9300    201.83189    207.07602    128310.55   -41134.139    2511.1724   -43645.312    15.939265   0.97336881 
    9400    207.46288    309.68493       128520   -41103.168    2581.2326   -43684.401    16.110548   0.97178254 
    9500    204.52281    179.31829    128671.24   -41131.451    2544.6526   -43676.104     16.31556   0.97064027 
    9600    204.24655    126.91879    128628.13   -41113.204    2541.2154   -43654.419    16.487902   0.97096564 
    9700    207.42592    39.072016    128725.46   -41056.764    2580.7728   -43637.536    16.466063    0.9702315 
    9800      205.223    90.972997     128632.1   -41124.112    2553.3643   -43677.476    16.468314   0.97093567 
    9900     200.8014    417.28646     128557.7   -41197.742    2498.3512   -43696.093    16.444738   0.97149755 
   10000    203.44595     291.9822    128623.72   -41206.369    2531.2544   -43737.623    16.517312   0.97099889 
   10100      203.072    267.92549    128527.87   -41167.827    2526.6017   -43694.429    16.599014     0.971723 
   10200    201.77902     382.9019    128746.99   -41220.319    2510.5146   -43730.834    16.844351   0.97006924 
   10300    206.11206    219.12737    128850.48   -41227.876    2564.4258   -43792.302      16.8782   0.96929006 
   10400    204.58517    307.47676    128900.79   -41171.155    2545.4285   -43716.584    16.835079   0.96891179 
   10500    202.99572    554.10332    129102.95   -41152.038    2525.6527    -43677.69    16.831233   0.96739457 
   10600    206.50408    213.62379    129298.98   -41092.888    2569.3034   -43662.191    17.150086   0.96592791 
   10700    206.15418    335.23316    129176.31   -41074.216    2564.9499   -43639.166    17.231294   0.96684515 
   10800    205.60678    17.512018    129118.98   -41062.528    2558.1392   -43620.668    17.306375   0.96727446 
   10900     204.0068    330.57105    128858.96   -41086.853    2538.2324   -43625.086    17.368803   0.96922626 
   11000    207.47503    233.95151    129042.05   -41083.355    2581.3838   -43664.739    17.426636   0.96785114 
   11100    201.02904     381.2612    128918.28   -41122.188    2501.1835   -43623.372    17.446312   0.96878028 
   11200    207.77472    355.34226    129081.35   -41112.656    2585.1126   -43697.769    17.657313   0.96755642 
   11300    207.76966    224.85875    129266.35   -41115.633    2585.0496   -43700.683    17.765948   0.96617171 
   11400    202.09115    412.37377    129279.29   -41125.264    2514.3981   -43639.662    17.996211   0.96607501 
   11500    204.62816    282.09808    129255.36   -41141.744    2545.9634   -43687.708    18.043434   0.96625387 
   11600    204.98224    356.35442     129225.3   -41146.243    2550.3687   -43696.611    18.227912   0.96647865 
   11700    207.67099     137.8752    129019.13   -41039.063    2583.8219   -43622.884    18.176905   0.96802307 
   11800    209.02894    274.17164    129142.81   -41117.227    2600.7175   -43717.944    17.997559   0.96709596 
   11900    201.03936    302.90734    129185.94   -41130.452    2501.3119   -43631.764    18.343573   0.96677308 
   12000    203.57266    176.69373    129127.74    -41147.18    2532.8309   -43680.011    18.495928   0.96720884 
   12100    205.36924    212.27468    129098.08    -41121.71    2555.1838   -43676.893    18.669361   0.96743107 
   12200    206.07118    179.45517    129286.38    -41130.88    2563.9172   -43694.797    18.727106   0.96602201 
   12300    204.18874    215.57326    129168.18   -41141.178    2540.4961   -43681.674    18.728624   0.96690602 
   12400    208.56746    406.85354    129210.45   -41130.716    2594.9757   -43725.692    18.862598   0.96658972 
   12500    202.69641    292.93166    129244.73    -41215.03    2521.9287   -43736.959    18.864635   0.96633332 
   12600    210.17839    321.73797    129276.84   -41132.495    2615.0188   -43747.514    18.916951   0.96609331 
   12700    207.44979    283.61325    129521.87   -41130.604    2581.0698   -43711.674    19.116114   0.96426563 
   12800    206.66077    310.39842    129549.46   -41119.401    2571.2529   -43690.653    19.396216   0.96406033 
   12900    205.52892    202.95964    129309.12   -41173.814    2557.1706   -43730.984    19.188702   0.96585215 
   13000    206.23057    204.56798    129442.36   -41131.759    2565.9004   -43697.659    19.243638   0.96485796 
   13100    208.47819    396.81912    129547.77   -41146.108     2593.865   -43739.973    19.353596   0.96407291 
   13200    205.65121    248.47276    129447.41   -41078.796     2558.692   -43637.488     19.47389    0.9648203 
   13300    210.02735    340.75867     129374.4   -41119.262    2613.1395   -43732.402    19.668524    0.9653648 
   13400    203.05224     252.0361    129394.32    -41208.83    2526.3559   -43735.186    19.626508   0.96521614 
   13500    204.84858    192.75409    129144.04   -41238.473    2548.7057   -43787.179     19.73772   0.96708676 
   13600    203.72933    175.48423    129202.14   -41255.754    2534.7801   -43790.534    19.800625   0.96665188 
   13700    203.07492    296.64447    129323.47   -41246.339     2526.638   -43772.977    20.112014   0.96574496 
   13800    210.10477    278.52652     129370.1    -41159.68    2614.1027   -43773.782    20.163172   0.96539689 
   13900    209.03608    254.55189    129322.31   -41193.259    2600.8062   -43794.066    20.173863   0.96575361 
   14000     207.1247    211.42636     129178.1   -41174.991    2577.0251   -43752.016    20.240906   0.96683174 
   14100    203.64597    220.28354    129117.93   -41169.345     2533.743   -43703.088    20.274399   0.96728229 
   14200    202.24144     311.2045    128984.32   -41210.759     2516.268   -43727.027    20.348462   0.96828431 
   14300    201.67832    245.03689    129090.76   -41261.051    2509.2617   -43770.313    20.576048   0.96748593 
   14400    206.21045    170.19119    129117.15   -41232.667      2565.65   -43798.317    20.555761   0.96728817 
   14500     209.5201     228.8651    129263.51   -41192.287    2606.8283   -43799.116    20.774965   0.96619294 
   14600    209.48348    327.86247    129250.19   -41205.079    2606.3728   -43811.452    20.874257   0.96629252 
   14700    204.59511    300.46812    129245.69   -41250.318    2545.5521    -43795.87    20.854587   0.96632615 
   14800    201.50718    222.53962    129319.66   -41293.221    2507.1324   -43800.353    20.952248   0.96577343 
   14900    196.09775    353.46902    129265.87   -41355.105    2439.8288   -43794.934    21.040915   0.96617529 
   15000    199.74975    412.24758     129320.5   -41357.114    2485.2666    -43842.38    21.205671   0.96576718 
   15100    196.95109    152.24685     129289.8   -41381.802     2450.446   -43832.248    21.326183    0.9659965 
   15200    203.84562    344.85036    129383.81   -41312.719     2536.227   -43848.946    21.455847   0.96529458 
   15300    200.93673    290.40002    129492.48   -41312.358    2500.0349   -43812.393    21.640168    0.9644845 
   15400    202.06945    351.72877    129484.31   -41307.233    2514.1282   -43821.362    21.502527   0.96454538 
   15500    204.83617    219.74158     129686.2   -41301.733    2548.5514   -43850.285    21.572013   0.96304377 
   15600    204.87319    338.44104    129526.95   -41240.747     2549.012   -43789.759    21.731445   0.96422785 
   15700    203.23368    294.16215    129796.48   -41322.125    2528.6133   -43850.738    21.674125   0.96222558 
   15800    198.23189    181.28665    129747.34   -41333.058    2466.3816   -43799.439    21.703466   0.96259002 
   15900    203.76623     329.2094    129838.82   -41368.292    2535.2393   -43903.531    21.792577   0.96191178 
   16000     204.3715    401.19408    129798.86   -41314.475      2542.77   -43857.245     21.82979   0.96220795 
   16100     206.8088    366.17588    129940.43   -41270.878    2573.0947   -43843.972    21.978081   0.96115961 
   16200    207.36588    200.06367    129834.06   -41333.905    2580.0258   -43913.931    22.164366   0.96194706 
   16300    205.62227    430.55487    129797.63   -41358.805     2558.332   -43917.137    22.176419   0.96221702 
   16400    207.87851    123.25836    129763.64    -41281.15    2586.4038   -43867.554     22.10591    0.9624691 
   16500    208.94654    430.04951    129884.47   -41286.907    2599.6922   -43886.599    22.402052   0.96157374 
   16600    210.85096    257.38975     129908.1   -41267.985    2623.3868   -43891.372    22.192811   0.96139879 
   16700    200.41095    120.30271    129944.77   -41304.677    2493.4932    -43798.17    22.197007   0.96112747 
   16800     206.9719    252.50452    129957.24   -41291.931     2575.124   -43867.055    22.221071    0.9610353 
   16900    205.14034    198.06889    130187.63   -41255.653    2552.3359   -43807.988    22.273608   0.95933452 
   17000      206.881    301.78612    130204.15   -41284.558    2573.9929   -43858.551    22.568891    0.9592128 
   17100    207.95559    148.23908    130129.63   -41216.872    2587.3629   -43804.235    22.712303   0.95976217 
   17200    207.16737    249.85357    129986.48   -41229.959    2577.5559   -43807.515    22.630283   0.96081908 
   17300     208.9255    362.56942     130092.2   -41291.718    2599.4304   -43891.148    22.737496    0.9600383 
   17400    203.80786    112.17375    129920.89   -41324.744    2535.7573   -43860.501    22.715078   0.96130418 
   17500    207.28551    197.71576    130156.62   -41315.604    2579.0259    -43894.63    22.827773   0.95956309 
   17600    209.11101    229.79816    130190.54   -41295.555    2601.7385   -43897.293    22.817559   0.95931311 
   17700    209.40627    283.83201    130243.48    -41320.03    2605.4121   -43925.442    22.926391   0.95892314 
   17800    203.77816    308.40948    130328.39   -41328.944    2535.3877   -43864.332    23.083978   0.95829845 
   17900    205.43387    153.18924     130376.5   -41299.337    2555.9878   -43855.325    23.278539   0.95794482 
   18000    210.80152    190.24641    130369.11   -41251.779    2622.7716   -43874.551    23.214731   0.95799908 
   18100    205.74075    264.43185    130375.54   -41362.353    2559.8061   -43922.159    23.277842   0.95795187 
   18200    204.92155    210.64723    130455.99   -41370.272    2549.6136   -43919.885    23.301981   0.95736114 
   18300    210.49588    307.91133    130307.88    -41292.33    2618.9689   -43911.299    23.411785   0.95844928 
   18400    205.14058    191.18833    130267.33   -41363.338    2552.3388   -43915.677     23.32193   0.95874763 
   18500    205.07693    262.80638     130250.7   -41319.865    2551.5469   -43871.412    23.308878   0.95887002 
   18600    206.92071    459.93757    130071.84    -41378.93    2574.4871   -43953.417    23.435675   0.96018858 
   18700    205.37253    261.36297    130264.09   -41351.006    2555.2248    -43906.23    23.458574   0.95877145 
   18800    205.99081    281.50553     130414.1   -41323.727    2562.9174   -43886.644    23.530148   0.95766864 
   18900    209.50359    131.48983    130335.41   -41363.748     2606.623   -43970.371    23.615319    0.9582468 
   19000    205.29426     376.5452     130269.7   -41344.027    2554.2509   -43898.278    23.768311   0.95873016 
   19100    205.82725    222.63607    130302.67   -41392.711    2560.8823   -43953.593    23.867367   0.95848757 
   19200    205.08422    325.89883    130240.45   -41372.222    2551.6376    -43923.86    23.804297   0.95894552 
   19300    207.19774    413.70181    130328.14    -41319.73    2577.9338   -43897.663     23.81563   0.95830026 
   19400    203.98565    111.01439       130320   -41331.874    2537.9693   -43869.844    23.816574   0.95836012 
   19500    209.01967    267.84143    130306.88    -41319.39    2600.6021   -43919.992    23.981102   0.95845659 
   19600    206.36319    270.37937    130193.75   -41353.217    2567.5504   -43920.768    24.009024   0.95928947 
   19700    207.83216    378.58046    130123.86   -41345.171    2585.8273   -43930.998    24.096349   0.95980472 
   19800    203.73329    242.84111    130422.58   -41381.931    2534.8294   -43916.761    24.134364   0.95760636 
   19900    207.48918    173.94519    130438.67   -41396.138    2581.5598   -43977.697    23.938891   0.95748827 
   20000    204.66902    246.44039     130432.7   -41436.658    2546.4717    -43983.13    24.056294   0.95753206 
   20100    206.21608    185.12227    130567.78   -41416.978    2565.7201   -43982.698    24.230608   0.95654145 
   20200    206.58796    141.74989    130688.13   -41469.694     2570.347   -44040.041    24.410616   0.95566058 
   20300    209.92034    313.95905    130737.39   -41513.028    2611.8081   -44124.836    24.467899    0.9553005 
   20400    201.50199    198.83146    130690.16   -41508.306    2507.0678   -44015.374    24.614384   0.95564572 
   20500    203.19601    172.73633    130568.39   -41479.739    2528.1447   -44007.884    24.598786   0.95653695 
   20600    203.25706    260.33062    130638.19   -41510.311    2528.9043   -44039.215    24.535754   0.95602591 
   20700    202.87197    264.84548    130611.93   -41450.715     2524.113   -43974.828    24.538264   0.95621808 
   20800    205.30812    332.68987     130687.3   -41449.989    2554.4233   -44004.412     24.69148   0.95566664 
   20900    202.03717    323.87183    130812.35   -41496.197    2513.7265   -44009.923     24.64289   0.95475307 
   21000    201.81427    217.78899    130964.63   -41583.613    2510.9532   -44094.566    24.673439    0.9536429 
   21100    201.16621    127.69483     130897.5   -41590.998    2502.8901   -44093.888    24.716761   0.95413198 
   21200    200.39098    277.74901    130988.58   -41559.403    2493.2447   -44052.648    24.885258   0.95346853 
   21300    199.76803    347.84606    131123.76   -41560.628     2485.494   -44046.122     24.99627   0.95248557 
   21400    201.58713    145.79141    131028.43   -41523.895    2508.1271   -44032.022    25.022166    0.9531786 
   21500     202.4706    289.64822     131108.7   -41506.343    2519.1192   -44025.462    25.057409   0.95259499 
   21600    206.02372    142.46761    131203.28   -41449.303    2563.3268   -44012.629    25.015009   0.95190828 
   21700    203.13467    264.38889    130947.16   -41413.795    2527.3814   -43941.176    24.860217   0.95377011 
   21800    206.92134    243.39257    131054.45   -41400.167    2574.4949   -43974.662    25.087449   0.95298934 
   21900    200.20471    151.05863    130976.96   -41417.762    2490.9272   -43908.689     25.20907   0.95355316 
   22000    205.94807    286.59929    130952.47   -41459.109    2562.3856   -44021.495    25.140574   0.95373148 
   22100    204.74782    188.56468    130954.49   -41406.959    2547.4522   -43954.411    24.950493   0.95371674 
   22200    201.79965    188.89449    131036.56    -41452.25    2510.7713   -43963.022    25.055494   0.95311945 
   22300    204.57169    334.27409    130944.83   -41433.728    2545.2607   -43978.988    25.229774   0.95378708 
   22400    203.37475    151.21334    130902.23   -41412.823    2530.3685   -43943.192     25.25278    0.9540975 
   22500    209.00311    329.98783    130943.09   -41413.342    2600.3961   -44013.738    25.356089   0.95379978 
   22600    208.71815    240.88477    130946.55   -41389.471    2596.8506   -43986.321     25.27639   0.95377458 
   22700    207.84799    308.16201    130996.44   -41399.146    2586.0241    -43985.17    25.218308   0.95341132 
   22800    208.90695    299.70263    130956.46   -41383.798    2599.1997   -43982.998    25.499243    0.9537024 
   22900    210.18949    272.18798    130866.79   -41431.079    2615.1568   -44046.236    25.390161   0.95435586 
   23000    207.43038    130.46299    130974.31   -41414.934    2580.8283   -43995.763     25.61236   0.95357244 
   23100    204.75216    324.98482    131000.03   -41513.375    2547.5061   -44060.881    25.607857   0.95338519 
   23200     207.2645    322.25121    131029.81   -41454.428    2578.7644   -44033.193    25.480917    0.9531685 
   23300    203.34254    220.69839    130944.19    -41485.38    2529.9678   -44015.348    25.628261   0.95379179 
   23400    207.58429    89.501567    130843.35   -41412.386    2582.7433    -43995.13    25.714239   0.95452684 
   23500    202.45894    423.15285    130862.42   -41445.043    2518.9741   -43964.017     25.88307   0.95438778 
   23600    208.04147    239.24949    130984.48   -41435.337    2588.4314   -44023.768    25.962678   0.95349839 
   23700    204.73434    183.89908    130894.71   -41483.333    2547.2845   -44030.617    25.951995   0.95415232 
   23800     202.8204    308.04992    130781.14   -41533.363    2523.4713   -44056.834    25.935422   0.95498093 
   23900    202.17276    355.47807    130907.69   -41547.205    2515.4136   -44062.618    26.072215   0.95405771 
   24000    205.45367    395.90714    131013.82   -41484.479    2556.2343   -44040.713    26.256618   0.95328484 
   24100    205.27361    235.96109    131038.48   -41482.513    2553.9939   -44036.507    26.275979   0.95310545 
   24200    198.22064    355.95493    131061.48   -41536.991    2466.2416   -44003.232     26.14705   0.95293821 
   24300    203.07768    321.03496     131225.7   -41496.327    2526.6724       -44023    26.267865   0.95174564 
   24400    200.44239     331.9863    131123.65   -41535.576    2493.8844   -44029.461     26.34979   0.95248639 
   24500    205.05644    108.66248    131150.09   -41491.666     2551.292   -44042.958     26.42157   0.95229437 
   24600    206.71239    415.88393    131226.53   -41483.471    2571.8952   -44055.366    26.503215   0.95173968 
   24700    202.17781    190.77811    131345.29   -41509.235    2515.4763   -44024.712    26.586191   0.95087912 
   24800    199.51769    210.18596    131220.71   -41510.471    2482.3793   -43992.851    26.533346   0.95178184 
   24900    207.54938     208.8321    131208.69   -41474.157    2582.3089   -44056.466    26.497624   0.95186903 
   25000    207.21234    201.45581    131175.27   -41466.685    2578.1155   -44044.801    26.565222   0.95211158 
   25100    204.40666    247.41553    131280.23   -41473.441    2543.2075   -44016.649    26.630034   0.95135037 
   25200     202.4578    160.11891    131257.05   -41512.747      2518.96   -44031.707    26.667035   0.95151836 
   25300    203.18092    350.50129    131222.29   -41518.173    2527.9569    -44046.13    26.694845   0.95177041 
   25400    209.00614    211.36766    131264.03   -41511.519    2600.4338   -44111.953    26.849836   0.95146778 
   25500    208.32134    202.32808    131228.19   -41467.132    2591.9135   -44059.046    26.734593   0.95172762 
   25600    203.09692    155.24882    131283.33    -41561.04    2526.9118   -44087.952    26.864175   0.95132788 
   25700    203.89855    273.27398    131380.35   -41573.021    2536.8856   -44109.907    26.943275   0.95062536 
   25800    204.98504     355.5304    131284.94   -41560.232    2550.4036   -44110.635    27.046062    0.9513162 
   25900    204.85435    219.01836    131305.19   -41517.593    2548.7775    -44066.37     27.14251    0.9511695 
   26000    203.95112    241.75069    131406.99    -41456.26    2537.5397   -43993.799    27.230596   0.95043263 
   26100     207.3281    359.46754    131348.53   -41527.747    2579.5557   -44107.303    27.197373   0.95085565 
   26200    206.05254    422.67481     131410.4   -41521.342    2563.6853   -44085.028    27.133769   0.95040795 
   26300    204.54195    323.94572    131442.63   -41497.494    2544.8907   -44042.385     27.17644   0.95017493 
   26400     203.1774    317.20675    131564.96   -41483.847    2527.9131    -44011.76     27.14921   0.94929147 
   26500    205.48499    302.18272    131584.13   -41531.734     2556.624   -44088.358    27.188897   0.94915314 
   26600    204.86761    138.56465    131391.38   -41586.658    2548.9426     -44135.6    27.210117   0.95054555 
   26700    200.39521    219.93864    131310.75   -41608.997    2493.2974   -44102.294    27.373701   0.95112922 
   26800    202.41455    101.51362    131271.37   -41548.531    2518.4218   -44066.952    27.343753   0.95141458 
   26900    205.60106    277.98281    131166.09    -41550.53    2558.0681   -44108.599    27.322252   0.95217819 
   27000    202.64619    277.20073    131131.55   -41584.996    2521.3038     -44106.3    27.384625   0.95242902 
   27100    205.99603    236.55947    131202.24   -41593.603    2562.9822   -44156.586    27.177678   0.95191588 
   27200    201.96971    365.28809    131218.68   -41613.789    2512.8872   -44126.676    27.251713   0.95179655 
   27300    201.21383    163.12571    131199.18   -41634.495    2503.4826   -44137.977    27.327707   0.95193802 
   27400    206.04731    194.35726    131266.16   -41576.362    2563.6203   -44139.982    27.552199   0.95145232 
   27500    207.94064      253.828    131120.64   -41514.445    2587.1768   -44101.621    27.610519   0.95250825 
   27600    203.47707    192.48039    131137.99   -41547.829    2531.6416   -44079.471    27.640934   0.95238224 
   27700    206.10058    245.85635    131111.69   -41555.418    2564.2831   -44119.701    27.592503    0.9525733 
   27800    204.73166    313.88264    131057.46   -41495.764    2547.2511   -44043.015    27.555712   0.95296743 
   27900    204.82264    256.64235    131001.11   -41520.036     2548.383   -44068.419    27.594533   0.95337736 
   28000     206.4165    335.60435    131033.54   -41548.835    2568.2137   -44117.048    27.801231    0.9531414 
   28100    209.70349    323.90683    131021.17   -41529.075    2609.1101   -44138.185    27.715771   0.95323136 
   28200    203.59871    294.04253    130985.51   -41574.287     2533.155   -44107.442    27.885064   0.95349086 
   28300     203.9037    161.80679    130978.45   -41564.614    2536.9497   -44101.563    27.980919    0.9535423 
   28400    203.39836    353.76215    131065.61   -41601.692    2530.6622   -44132.354     28.00511   0.95290817 
   28500    204.30749    228.36832    130920.84   -41630.311    2541.9736   -44172.284    27.776464   0.95396187 
   28600    205.06905     358.7433    131042.67   -41597.763    2551.4488   -44149.212    27.760651     0.953075 
   28700    207.17197    179.02316     130996.8   -41606.502    2577.6132   -44184.115    27.809248   0.95340869 
   28800    203.62102    421.35359    131106.22   -41566.114    2533.4326   -44099.547     27.91924     0.952613 
   28900    204.04897    115.08676    131246.72   -41549.508    2538.7572   -44088.265    28.078704   0.95159326 
   29000    202.85588    306.31941    131244.93   -41623.748    2523.9128   -44147.661    28.277477   0.95160621 
   29100    207.77689    253.37333    131219.72   -41573.316    2585.1396   -44158.455    28.150852   0.95178904 
   29200    205.39455    327.91936    131169.33   -41539.799    2555.4987   -44095.298    27.988148    0.9521547 
   29300    205.66642    257.79955    131275.83   -41601.057    2558.8813   -44159.938    28.050445   0.95138225 
   29400    203.78684    213.31202    131305.82    -41649.01    2535.4957   -44184.506    28.282061   0.95116492 
   29500    201.71295    367.29473    131368.35   -41673.513    2509.6925   -44183.206    28.387709   0.95071218 
   29600    204.29162    92.783589    131340.06   -41599.952    2541.7762   -44141.728     28.21688   0.95091696 
   29700    198.86931    175.13441    131292.19   -41642.614    2474.3122   -44116.926    28.220853   0.95126367 
   29800    207.03159    251.76976    131356.19   -41629.648    2575.8666   -44205.515    28.118376   0.95080023 
   29900    203.82976    111.37584    131493.96   -41663.355    2536.0297   -44199.384    28.305457   0.94980402 
   30000    204.92158     359.9394    131456.12   -41643.657    2549.6141   -44193.271    28.258188    0.9500774 
   30100    202.56504     253.5509    131526.31    -41650.64    2520.2942   -44170.934    28.312579   0.94957042 
   30200    203.37195    196.77432    131536.51    -41668.61    2530.3336   -44198.944    28.452222   0.94949675 
   30300    207.44844    259.05382    131392.14   -41645.598     2581.053   -44226.651    28.521449   0.95054005 
   30400    206.27188    167.49475    131319.87   -41637.482    2566.4143   -44203.896    28.525479   0.95106316 
   30500    207.47033    332.94805    131476.02   -41645.597    2581.3253   -44226.923    28.339759   0.94993364 
   30600     207.2934    324.32354    131548.82   -41643.675     2579.124   -44222.799    28.267902   0.94940788 
   30700    203.68949    214.55092     131527.7   -41647.493    2534.2845   -44181.778    28.266316   0.94956039 
   30800    205.15585    205.68875    131556.52   -41594.688    2552.5288   -44147.217    28.599887   0.94935234 
   30900    202.10193     190.8382    131588.45   -41711.083    2514.5322   -44225.616    28.589318   0.94912198 
   31000    202.58444    288.95291     131611.6   -41750.166    2520.5356   -44270.702    28.603981   0.94895502 
   31100    200.36253    220.09707     131468.6     -41735.1    2492.8908   -44227.991     28.50464   0.94998725 
   31200    204.62111    198.25743    131485.31    -41746.35    2545.8756   -44292.225    28.620564   0.94986653 
   31300     201.3443    231.10643    131510.93   -41708.467    2505.1058   -44213.573    28.723198   0.94968148 
   31400    200.41187    251.23004    131558.89   -41674.333    2493.5046   -44167.838     28.77134   0.94933525 
   31500    199.91947    195.99352    131734.96   -41717.148    2487.3783   -44204.526    28.656012    0.9480664 
   31600    206.99407    224.82923    131676.28   -41652.743    2575.3998   -44228.143    28.624148   0.94848889 
   31700    202.73199    322.10493     131566.7   -41682.872    2522.3714   -44205.243     28.65043   0.94927891 
   31800    203.84252    350.15333    131780.12   -41621.106    2536.1884   -44157.294    28.844336   0.94774154 
   31900     205.6697    302.37933    131665.98   -41622.753     2558.922   -44181.675    28.919334   0.94856308 
   32000    209.25863    211.73436     131650.3   -41618.021    2603.5751   -44221.596      28.7862   0.94867607 
   32100    209.26738    118.67911    131574.44   -41635.659     2603.684   -44239.343    28.754816   0.94922303 
   32200    207.91751    239.26181    131625.59   -41631.672    2586.8891   -44218.562    29.016934   0.94885419 
   32300    209.63769    341.29324    131597.26    -41608.78    2608.2914   -44217.072    28.920353   0.94905846 
   32400     208.5885    256.46813    131676.54   -41679.457    2595.2375   -44274.695    29.103775   0.94848705 
   32500    204.36554    240.27596    131533.65   -41695.655    2542.6958   -44238.351    29.006203    0.9495174 
   32600    207.86232    275.23448     131448.5   -41635.483    2586.2025   -44221.686    28.866279   0.95013247 
   32700    204.27576    299.74962    131416.77   -41691.223    2541.5788   -44232.802    29.057199   0.95036187 
   32800    197.65419    295.27696    131615.59   -41727.762    2459.1938   -44186.956    29.211711   0.94892627 
   32900    199.41126    219.94381    131587.52   -41720.874    2481.0551   -44201.929    29.186548   0.94912869 
   33000    204.81261    284.08327     131545.3    -41774.97    2548.2582   -44323.228    29.019796   0.94943333 
   33100    204.49998    258.13097    131465.33   -41709.054    2544.3685   -44253.423    28.969948   0.95001088 
   33200    202.66073    346.85814    131555.56   -41745.185    2521.4848    -44266.67    28.957262   0.94935926 
   33300    206.21366    106.24908    131610.95   -41675.619    2565.6899   -44241.309    29.058364   0.94895975 
   33400    201.65086    358.37167     131616.2   -41753.878    2508.9201   -44262.798    29.140836   0.94892184 
   33500    202.12199    155.34566     131516.1   -41716.071    2514.7818   -44230.853    29.270183   0.94964414 
   33600    203.79434    200.43739    131635.61   -41693.088     2535.589   -44228.677    29.129424   0.94878199 
   33700    206.21316    319.57227    131584.82   -41687.772    2565.6837   -44253.456    29.202791   0.94914814 
   33800    205.28936    272.39423     131539.6   -41693.129      2554.19   -44247.319    29.289583   0.94947447 
   33900    205.19955    213.87314    131506.91   -41698.617    2553.0725    -44251.69    29.225245   0.94971047 
   34000    206.50142    231.33061    131528.78       -41667    2569.2703   -44236.271    29.182262   0.94955255 
   34100    209.10766    177.50946    131569.62   -41700.738    2601.6968   -44302.434    29.313935   0.94925784 
   34200    209.52016    205.42834     131571.5   -41711.802    2606.8291   -44318.631    29.303216   0.94924428 
   34300    203.48463    316.15578    131630.94   -41758.472    2531.7356   -44290.207     29.21399   0.94881562 
   34400    208.15829    230.77419    131571.82   -41696.259    2589.8848   -44286.144     29.29784   0.94924193 
   34500    205.68302    275.92541    131648.39   -41709.258    2559.0878   -44268.346    29.282085   0.94868988 
   34600    206.64994    349.86396    131673.73   -41701.768    2571.1181   -44272.886    29.317822   0.94850727 
   34700    203.54655     229.3466    131620.85   -41773.843    2532.5061   -44306.349    29.460811   0.94888835 
   34800    201.42086     343.4139    131680.46   -41757.823    2506.0585   -44263.882    29.608356    0.9484588 
   34900     202.9957    363.36533    131747.71   -41762.059    2525.6525   -44287.712    29.568721   0.94797465 
   35000    199.56726    247.99983    131770.28   -41835.209    2482.9961   -44318.205    29.498941   0.94781227 
   35100    203.07004    364.64488    131805.12    -41777.66    2526.5773   -44304.237    29.501444   0.94756179 
   35200     203.2759    236.85675       131747   -41779.417    2529.1386   -44308.556    29.494948   0.94797978 
   35300     201.0443    204.35443    131816.83   -41765.178    2501.3733   -44266.551    29.477422    0.9474776 
   35400    205.10344    283.68619    131779.62   -41788.022    2551.8767   -44339.899    29.535164   0.94774508 
   35500    205.05042    350.32672    131785.78   -41681.574     2551.217   -44232.791    29.531892   0.94770082 
   35600    205.59415    255.73984     131813.4   -41733.558     2557.982    -44291.54    29.669182   0.94750226 
   35700    201.28765    350.28204    131832.65   -41703.189     2504.401    -44207.59    29.732874   0.94736389 
   35800    204.49613    312.71904    131826.92   -41734.468    2544.3207   -44278.789    29.744705   0.94740509 
   35900    205.29384    163.22669    131872.92   -41691.999    2554.2456   -44246.245     29.70148    0.9470746 
   36000    208.99497    290.02514    131960.55   -41662.992    2600.2948   -44263.286    29.665818   0.94644566 
   36100    208.00397    205.46826    132042.19   -41682.489    2587.9648   -44270.454    29.722027   0.94586049 
   36200    202.95847    170.51044    131851.77   -41707.069    2525.1892   -44232.259    29.741197   0.94722653 
   36300    204.73855    190.25742    131774.91   -41761.828    2547.3368   -44309.165    29.741339   0.94777902 
   36400    204.21645     207.6137    131752.12   -41712.377    2540.8409   -44253.218    29.913355   0.94794293 
   36500    205.18969    208.60581     131572.4   -41694.556    2552.9498   -44247.506    29.765464   0.94923773 
   36600    201.04173    338.54569    131629.44   -41804.384    2501.3414   -44305.725    29.735108   0.94882644 
   36700    202.57798    358.58738    131754.34   -41755.534    2520.4552   -44275.989    29.873646   0.94792697 
   36800     204.9998    243.47114    131713.69   -41749.981    2550.5872   -44300.568    29.871325   0.94821948 
   36900    199.93413    289.85114    131791.93    -41772.03    2487.5607   -44259.591    29.985055   0.94765659 
   37000    209.83579    220.96197    131928.66   -41718.882    2610.7562   -44329.639    29.916186   0.94667442 
   37100    206.37159    325.54415    131947.17   -41707.483    2567.6549   -44275.137    29.988722   0.94654161 
   37200    204.00151    271.85186    131710.14   -41763.536    2538.1667   -44301.703    29.797917   0.94824507 
   37300    205.42429    181.57808    131868.99   -41766.521    2555.8687   -44322.389    29.989277   0.94710281 
   37400    200.29967    427.47962    131879.38   -41790.722    2492.1087   -44282.831    30.008579   0.94702822 
   37500    207.72187      281.047    131955.99   -41801.022     2584.455   -44385.477     30.17553   0.94647837 
   37600    208.17889    238.88136    131947.41    -41750.69    2590.1412   -44340.831    30.284227    0.9465399 
   37700    205.98949    340.63681    132197.43   -41765.141    2562.9009   -44328.042    30.235965   0.94474979 
   37800    198.44039    66.118466    132049.39   -41854.341    2468.9758   -44323.317    30.413389   0.94580893 
   37900    199.38025    272.66653    132054.62   -41815.727    2480.6693   -44296.396    30.395203   0.94577147 
   38000    201.73005    301.26863    132079.21   -41783.787    2509.9053   -44293.692    30.397874   0.94559541 
   38100    204.01842    273.64771    132285.88   -41750.995     2538.377   -44289.372    30.426111   0.94411808 
   38200    203.73211    266.97914     132358.2   -41767.581    2534.8148   -44302.396    30.525657   0.94360221 
   38300    207.78908    229.68279    132079.68   -41717.646    2585.2912   -44302.938    30.511841   0.94559205 
   38400    208.60672    286.69483    132167.73   -41778.927    2595.4642   -44374.391    30.384893   0.94496207 
   38500     203.3824    257.38262    132181.62   -41792.823    2530.4637   -44323.287    30.490732   0.94486277 
   38600    204.09557    177.32328    132142.61   -41748.022    2539.3369   -44287.359    30.705703   0.94514173 
   38700    202.85634     259.7864     132004.6   -41751.402    2523.9186    -44275.32    30.775436   0.94612987 
   38800    205.61305    167.12643    131991.16   -41778.655    2558.2172   -44336.872    30.804314   0.94622617 
   38900    204.06655    205.58793    131851.66   -41730.856    2538.9758   -44269.832    30.449449   0.94722732 
   39000    206.73892    382.36294    131833.76   -41775.088    2572.2252   -44347.313    30.608273    0.9473559 
   39100    203.02828    67.491816    131958.94   -41742.804    2526.0578   -44268.862    30.557739    0.9464572 
   39200     204.1894    298.60963    131878.55   -41765.852    2540.5043   -44306.356     30.56288   0.94703413 
   39300    202.29185    231.07175    131927.95   -41754.945    2516.8952    -44271.84    30.596886   0.94667952 
   39400    209.39819    277.88668    131919.86   -41723.452    2605.3116   -44328.764    30.616646    0.9467376 
   39500    207.99853    273.18446    131897.49   -41707.272    2587.8971   -44295.169    30.604425   0.94689815 
   39600    203.52386    306.78022    132042.21   -41743.782    2532.2237   -44276.006    30.613569   0.94586036 
   39700    207.22643    257.34411    132080.18   -41696.572    2578.2907   -44274.862    30.547756   0.94558845 
   39800    207.81737    258.11939    132026.25    -41752.94    2585.6431   -44338.583    30.627488    0.9459747 
   39900    203.90308     178.6514    131929.77   -41794.476    2536.9419   -44331.418    30.744927   0.94666651 
   40000    200.75224    122.77912    131852.36   -41816.081    2497.7395    -44313.82    30.773439   0.94722225 
   40100    206.01653    254.32323    131939.54   -41725.133    2563.2373   -44288.371    30.855918   0.94659636 
   40200    205.16166    157.17522    132080.17   -41744.212    2552.6011   -44296.813    31.043585   0.94558851 
   40300    208.02518     159.9809    132065.43   -41726.097    2588.2287   -44314.326    30.925758   0.94569402 
   40400     210.0222    307.93644    131970.04   -41656.752    2613.0755   -44269.828    30.939122   0.94637763 
   40500    206.30325    234.87611    131908.98   -41677.147    2566.8047   -44243.952    31.026342   0.94681569 
   40600    206.64436     249.5721    131946.98   -41711.886    2571.0487   -44282.935    31.089358     0.946543 
   40700    204.99082    331.91358    131986.89   -41756.562    2550.4756   -44307.037    31.050766   0.94625678 
   40800     203.3141    155.39334     131957.3   -41796.638    2529.6139   -44326.252    31.100633   0.94646895 
   40900    201.79311    368.04397    132039.46   -41816.671      2510.69   -44327.361    31.139428   0.94588007 
   41000    202.46329    246.98714    132208.35   -41730.428    2519.0282   -44249.456    31.323623   0.94467173 
   41100    206.72615    267.31378    132123.34   -41714.358    2572.0664   -44286.425    31.142708   0.94527958 
   41200    205.73884    141.55247    132208.46   -41728.483    2559.7824   -44288.266    31.065915   0.94467098 
   41300    198.94086    227.59951    132096.43   -41865.463    2475.2025   -44340.666     31.22145   0.94547211 
   41400    202.68902    201.43543    132135.55   -41820.562    2521.8368   -44342.399    31.374552   0.94519216 
   41500    202.79671    252.37825    132081.41    -41821.27    2523.1767   -44344.447    31.458754   0.94557962 
   41600    203.65804    262.76231    132210.35   -41795.936    2533.8932   -44329.829    31.464705   0.94465743 
   41700     203.3952     136.5782     132105.2   -41768.338     2530.623   -44298.961    31.492498   0.94540932 
   41800    202.55905    300.93912       131949   -41783.716    2520.2196   -44303.936    31.215731   0.94652851 
   41900    207.32811    182.66511    132040.19    -41750.52    2579.5559   -44330.076     31.40421   0.94587483 
   42000    207.38673    252.92632    132008.96   -41744.859    2580.2851   -44325.144    31.540816   0.94609857 
   42100    202.68685    226.31807    132074.79   -41745.548    2521.8097   -44267.358    31.405646   0.94562705 
   42200    206.00061     107.4567    132003.88   -41709.399    2563.0393   -44272.438    31.548666   0.94613498 
   42300    208.84912    237.65368    132166.85   -41691.633    2598.4802   -44290.113    31.611575   0.94496835 
   42400     202.0848    214.80265    132148.21   -41721.765    2514.3191   -44236.084    31.725695   0.94510168 
   42500    205.02346    330.26637    132146.95   -41706.561    2550.8817   -44257.443    31.753448   0.94511065 
   42600    208.40661    99.311916    132183.61   -41716.219    2592.9744   -44309.193     31.60737   0.94484853 
   42700    204.70277    254.40343    132028.12   -41720.174    2546.8916   -44267.066    31.544237   0.94596126 
   42800    205.26418    180.79937    132154.41   -41665.153    2553.8767    -44219.03    31.572276   0.94505734 
   42900    203.37417    304.45293    132124.99   -41730.209    2530.3613    -44260.57    31.693954   0.94526772 
   43000    205.29821     331.4866     132066.7   -41762.721    2554.3001   -44317.021    31.666814   0.94568494 
   43100    204.55806    170.52712    132066.07   -41736.915    2545.0912   -44282.006     31.96926   0.94568948 
   43200     207.3784    147.05917    132041.11   -41699.096    2580.1815   -44279.277    31.922665   0.94586824 
   43300    204.71858    378.74509    132088.93   -41710.316    2547.0883   -44257.404    31.695879   0.94552578 
   43400    207.00517    254.73006    132054.86    -41672.08    2575.5379   -44247.618    31.793869   0.94576976 
   43500    207.42446    306.75356    132019.27   -41675.103    2580.7546   -44255.858    31.619569   0.94602474 
   43600      211.729    269.49289    132011.86   -41601.385    2634.3112   -44235.696    31.659027   0.94607784 
   43700    211.38924    361.50372    132124.83   -41630.819    2630.0841   -44260.903    31.954892   0.94526887 
   43800    210.37814    209.78359    132169.85   -41642.136     2617.504    -44259.64    31.919984   0.94494694 
   43900    205.57922    181.50101    132131.69   -41681.396    2557.7963   -44239.192     32.04701    0.9452198 
   44000    202.98419    75.501162    131964.83   -41709.095    2525.5093   -44234.605    32.003938   0.94641496 
   44100    208.63165    305.05544    131973.33   -41725.284    2595.7743   -44321.058    32.069155   0.94635403 
   44200    202.31942    254.02286    132037.15   -41771.962    2517.2382     -44289.2    32.103488   0.94589663 
   44300    206.76586    256.50345    132029.35   -41778.861    2572.5604   -44351.421    32.009775   0.94595247 
   44400    204.98213    117.75338    131952.79   -41744.321    2550.3674   -44294.689    31.838144   0.94650136 
   44500    205.75057    244.12332     132009.1   -41769.589    2559.9283   -44329.518    31.930866   0.94609759 
   44600    199.75858     247.5918    131954.25   -41824.421    2485.3765   -44309.797    32.162172   0.94649082 
   44700    204.39448    215.54887    132037.31   -41801.421    2543.0559   -44344.477    31.969951   0.94589544 
   44800    205.06702    236.78985    132110.82   -41757.609    2551.4236   -44309.032    32.038835   0.94536911 
   44900    209.37667    419.38608    132099.74   -41723.492    2605.0439   -44328.536     32.10481   0.94544841 
   45000    205.54043    157.97311    132036.54   -41727.989    2557.3137   -44285.302    31.965509   0.94590096 
   45100    210.40105    271.55774    131993.19    -41680.46     2617.789   -44298.249    32.220756   0.94621161 
   45200    206.19821    172.18255    132000.68   -41754.114    2565.4977   -44319.611    32.211051   0.94615791 
   45300    202.24465    423.21925    131961.96   -41763.522     2516.308    -44279.83    32.448095   0.94643557 
   45400    201.06452     264.2515    132018.69   -41746.137    2501.6248   -44247.762    32.338017   0.94602887 
   45500    204.93067     106.1971    131933.86   -41748.547    2549.7272   -44298.274    32.466744   0.94663714 
   45600    205.42941    197.29916    131836.15   -41738.018    2555.9324    -44293.95    32.320524   0.94733874 
   45700    203.99674    226.17621    131823.71    -41738.49    2538.1073   -44276.597    32.380854   0.94742812 
   45800    207.19348    236.97038     131963.7   -41688.634    2577.8808   -44266.515    32.504373    0.9464231 
   45900    205.43093    261.40602    131851.16   -41628.991    2555.9514   -44184.943    32.456997   0.94723086 
   46000    209.62669     238.4269    131911.44   -41627.144    2608.1545   -44235.299    32.500346   0.94679803 
   46100    209.21174    130.76816    131974.46   -41588.307    2602.9918   -44191.299     32.58878   0.94634595 
   46200    211.19018    132.88126    132111.15   -41584.374    2627.6073   -44211.981    32.590318   0.94536678 
   46300    207.43143    211.49426    132108.74   -41605.447    2580.8413   -44186.288    32.664204   0.94538401 
   46400    207.07288     303.7551     132048.2    -41639.13    2576.3803    -44215.51     32.66678   0.94581744 
   46500    209.93075    254.38868    132112.45   -41652.212    2611.9377    -44264.15    32.618506   0.94535749 
   46600    208.65405    236.82143    132122.04   -41645.011    2596.0531   -44241.064    32.509004   0.94528885 
   46700    203.88535    225.71306    132058.28   -41729.316    2536.7214   -44266.037    32.519846   0.94574524 
   46800    202.43857    158.27468     131873.3   -41775.111    2518.7207   -44293.832    32.505366   0.94707183 
   46900    205.62391    293.08179    131842.45   -41696.238    2558.3524   -44254.591    32.669302    0.9472935 
   47000    206.44066    238.57455    131886.71   -41679.867    2568.5143   -44248.381    32.604097   0.94697558 
   47100    211.26707    108.42766    132047.31   -41664.645    2628.5639   -44293.208    32.815727   0.94582382 
   47200    206.60398    229.42512    132151.47   -41731.636    2570.5463   -44302.182    32.728476   0.94507832 
   47300     209.0412    194.98192    132230.06    -41750.86      2600.87    -44351.73     32.71412    0.9445166 
   47400    204.23361    257.01568    132267.61   -41712.037    2541.0544   -44253.092    32.852482   0.94424848 
   47500    209.64134    268.99628    132123.66   -41657.415    2608.3369   -44265.752    32.824553   0.94527727 
   47600     208.3804    198.01522     132133.6    -41631.05    2592.6484   -44223.699    32.899969   0.94520612 
   47700    207.62294    186.59711    132137.35   -41680.763    2583.2241   -44263.987    33.087707   0.94517932 
   47800    209.07568    351.84951    132022.66   -41693.994    2601.2989   -44295.292    33.050324   0.94600045 
   47900    205.54623    384.17883     131857.5   -41768.424    2557.3858   -44325.809    32.796141   0.94718534 
   48000    203.60509    155.55333    131934.53   -41774.473    2533.2343   -44307.707    32.833003   0.94663234 
   48100    205.62269    304.79343    132053.74   -41742.562    2558.3372   -44300.899    32.927514   0.94577779 
   48200    206.79849    260.93666     132189.6   -41782.151    2572.9664   -44355.118    33.080812   0.94480573 
   48300    205.90088    216.48806    132288.24   -41759.394    2561.7984   -44321.192    33.155175   0.94410121 
   48400    208.86226     381.0569    132365.93   -41676.219    2598.6436   -44274.862    33.398869    0.9435471 
   48500    209.95977     141.3034     132208.9   -41740.447    2612.2987   -44352.746    33.250091   0.94466778 
   48600    209.67561    292.56008    132246.31   -41746.308    2608.7633   -44355.072    33.122895   0.94440058 
   48700    204.05983    283.20639    132179.16   -41718.128    2538.8922    -44257.02     33.15378   0.94488035 
   48800    205.76493    253.90279    132240.23    -41738.73    2560.1069   -44298.837    33.046562     0.944444 
   48900    206.33774    245.17308    132226.68   -41737.488    2567.2338   -44304.722    33.140629   0.94454076 
   49000    204.10508    204.81059    132233.86   -41775.232    2539.4552   -44314.687    33.324415   0.94448951 
   49100    206.02544    228.75497    132140.45   -41782.952    2563.3481   -44346.301    33.381946   0.94515716 
   49200    203.72404    326.27193    132138.94   -41800.922    2534.7144   -44335.636    33.516371   0.94516792 
   49300    205.62778     262.9674    132261.81   -41751.255    2558.4005   -44309.655    33.386731   0.94428987 
   49400    205.98058     160.6818    132329.94   -41736.262      2562.79   -44299.052    33.482551   0.94380374 
   49500    205.75915    270.26961    132173.39   -41750.089     2560.035   -44310.124    33.274461    0.9449216 
   49600    204.65683    205.92597    132181.87   -41756.255      2546.32   -44302.575    33.310672   0.94486094 
   49700    205.39025    275.65899    132077.51    -41763.18    2555.4452   -44318.625    33.301719   0.94560753 
   49800    204.49895    240.19596     132070.9   -41806.573    2544.3558   -44350.928    33.308861   0.94565488 
   49900    204.31147    132.99706    132067.72   -41697.351    2542.0231   -44239.375    33.363442   0.94567763 
   50000      206.057    161.74735    131906.77   -41729.074    2563.7408   -44292.815    33.410466   0.94683154 
   50100    205.90446    320.36061    132053.89   -41746.485    2561.8429   -44308.328    33.389916   0.94577667 
   50200    204.08054    181.42984    132125.76   -41795.987    2539.1499   -44335.137    33.552821    0.9452622 
   50300    207.69178    352.76375    132139.96   -41771.081    2584.0806   -44355.162     33.38896   0.94516067 
   50400    205.96453    271.15578    132154.44   -41784.483    2562.5904   -44347.073    33.382314   0.94505711 
   50500    204.22152    293.66955    132170.07   -41822.757    2540.9039   -44363.661    33.475842   0.94494531 
   50600     199.8237    236.47217    132282.86   -41831.638    2486.1868   -44317.825    33.632187   0.94413966 
   50700    204.07576    174.33019    132289.01   -41839.828    2539.0905   -44378.918    33.648279   0.94409577 
   50800    202.81871    112.49573    132150.14   -41844.081    2523.4504   -44367.531    33.661022   0.94508784 
   50900    203.59163    257.21419       132001   -41760.012     2533.067   -44293.079     33.53921   0.94615562 
   51000    202.83472    211.25805    132014.75    -41798.37    2523.6495   -44322.019    33.541079   0.94605711 
   51100    204.62101    260.08189    132108.32   -41829.388    2545.8744   -44375.263    33.474607   0.94538702 
   51200    205.92216     305.9704    132114.93   -41809.516    2562.0632    -44371.58    33.524343    0.9453397 
   51300    204.27282    273.55663    132235.27   -41865.016    2541.5422   -44406.558    33.574797   0.94447943 
   51400    203.60926    360.34108    132196.14   -41857.015    2533.2863   -44390.301    33.698402     0.944759 
   51500    204.55989    220.50853    132180.36   -41853.993    2545.1139   -44399.107    33.695512   0.94487175 
   51600    205.44151    246.73049    132267.89   -41803.719     2556.083   -44359.802    33.786135   0.94424648 
   51700    200.66258    342.76937    132195.67   -41790.107     2496.624   -44286.731    33.768097   0.94476231 
   51800    204.52128    396.59057    132216.95   -41820.017    2544.6335    -44364.65    33.790243    0.9446103 
   51900    202.01734     375.5368    132265.52   -41863.208    2513.4798   -44376.687    33.909891    0.9442634 
   52000    203.68351    278.23128       132263    -41880.96      2534.21    -44415.17     33.83211   0.94428143 
   52100    200.07338     232.4913    132234.87    -41825.91    2489.2932   -44315.203    33.892709   0.94448224 
   52200    206.81514    309.78178    132311.22    -41859.51    2573.1735   -44432.684    33.960435   0.94393728 
   52300    202.82923    198.41635    132248.29   -41845.931    2523.5812   -44369.512    33.887431    0.9443864 
   52400    201.97306    362.35906    132351.69   -41795.482    2512.9288   -44308.411    33.926748    0.9436486 
   52500    207.23446    332.35045    132338.95    -41785.92    2578.3907   -44364.311    33.859581   0.94373944 
   52600    205.76619    137.48233    132218.35   -41809.299    2560.1226   -44369.422    33.888859   0.94460032 
   52700    207.81558    304.90567    132227.91   -41834.849    2585.6208    -44420.47    33.975048   0.94453201 
   52800    205.53023    282.95444    132144.22   -41793.553    2557.1868    -44350.74    33.959338   0.94513021 
   52900    205.16951    164.17329    132014.76   -41794.596    2552.6987   -44347.294    33.933744   0.94605703 
   53000    206.05069    272.42134    132033.81   -41775.788    2563.6623    -44339.45    34.096437   0.94592054 
   53100    205.91089    238.47786    132004.45   -41814.582    2561.9229   -44376.505    33.932953   0.94613094 
   53200     207.2586    345.38405    132329.94    -41808.66     2578.691   -44387.351    33.956031   0.94380374 
   53300    200.99928    234.48828    132193.72   -41803.592    2500.8132   -44304.406    34.029964   0.94477625 
   53400    200.79255    160.66188    132116.47    -41874.43    2498.2411   -44372.671    34.412442   0.94532873 
   53500    201.55666     439.2317    132281.94   -41880.449     2507.748   -44388.197    34.554115   0.94414621 
   53600    201.56953     423.3438     132468.4   -41879.226    2507.9082   -44387.134    34.559987   0.94281722 
   53700    201.31024    180.26041    132473.28   -41910.879    2504.6821   -44415.561    34.539883   0.94278253 
   53800    206.31925    105.28544     132381.7   -41812.468    2567.0038   -44379.471    34.522985   0.94343474 
   53900     204.3716    186.73026    132245.49   -41858.369    2542.7713    -44401.14    34.369106   0.94440643 
   54000    205.30757    295.04825     132172.5   -41839.762    2554.4165   -44394.178    34.458508   0.94492799 
   54100    204.54074    179.26763    132105.65   -41858.411    2544.8756   -44403.287    34.362067   0.94540615 
   54200    202.97517    350.89123    132159.05    -41832.86     2525.397   -44358.257    34.545981   0.94502412 
   54300    205.84071    250.37177    132201.71   -41807.147    2561.0498   -44368.197    34.539341   0.94471918 
   54400    203.10574    245.06764    132316.67   -41845.462    2527.0216   -44372.484    34.553783   0.94389839 
   54500    203.95531    303.62865    132341.74   -41839.182    2537.5919   -44376.773    34.605073   0.94371955 
   54600    209.84625     256.9585     132419.8   -41748.316    2610.8863   -44359.202    34.599617    0.9431633 
   54700    208.68967    215.40031    132368.57   -41767.798    2596.4962   -44364.294    34.743586   0.94352833 
   54800    205.54131    279.72842     132388.5   -41836.296    2557.3246   -44393.621    34.776414   0.94338622 
   54900    205.13723    206.33524    132384.49   -41879.113    2552.2971    -44431.41    34.780643   0.94341482 
   55000    203.61886    296.89967    132307.96   -41942.993    2533.4058   -44476.399    34.710261    0.9439605 
   55100    202.49174    335.29114    132491.76   -41909.235    2519.3822   -44428.617    34.659978   0.94265103 
   55200     203.7734    298.99147    132422.46    -41916.34    2535.3284   -44451.669    34.539378   0.94314433 
   55300    202.10316    277.69556    132438.86   -41874.098    2514.5476   -44388.645    34.762235   0.94302751 
   55400    206.11486    273.76036    132514.25   -41850.857    2564.4607   -44415.318    34.839223   0.94249099 
   55500     209.8749     226.8628    132542.19   -41805.214    2611.2428   -44416.457    34.914525   0.94229233 
   55600    204.73437     242.9871    132498.87   -41854.736    2547.2848    -44402.02    34.980848   0.94260043 
   55700    204.72156    325.64777    132426.89   -41851.068    2547.1254   -44398.193    34.980992   0.94311275 
   55800    207.20924    141.75665    132317.26   -41852.889    2578.0768   -44430.966    34.943004   0.94389416 
   55900    207.87174     179.6395    132296.49   -41816.125    2586.3196   -44402.445    34.798919   0.94404234 
   56000    205.37742    195.29638    132389.36   -41810.352    2555.2855   -44365.638    34.946719   0.94338016 
   56100     205.0121    180.48751    132436.18   -41782.993    2550.7402   -44333.734    35.090697   0.94304663 
   56200    203.45508    202.91861    132444.68   -41785.032     2531.368     -44316.4     35.15941   0.94298612 
   56300    207.17809    321.44049    132395.37     -41819.4    2577.6894   -44397.089    35.189799   0.94333733 
   56400    205.84806    74.456899    132378.89   -41801.449    2561.1413   -44362.591    35.101578   0.94345476 
   56500    200.40228    274.74492    132433.51   -41875.052    2493.3853   -44368.438    35.091607   0.94306565 
   56600    204.86698    120.39301    132482.48   -41883.874    2548.9348   -44432.809    35.145943   0.94271705 
   56700    201.60901    288.11172    132478.84   -41910.291    2508.3994   -44418.691    35.289502   0.94274293 
   56800     204.3543    347.22177     132482.2   -41845.892     2542.556   -44388.448    35.280138   0.94271901 
   56900    205.19683    279.83326     132510.2   -41830.519    2553.0386   -44383.558     35.02575   0.94251984 
   57000    208.70249    354.25545    132544.63   -41779.609    2596.6558   -44376.265    34.937498   0.94227498 
   57100     206.7476    117.10512    132529.57   -41838.317    2572.3332    -44410.65    35.163051   0.94238209 
   57200    199.57092    362.45708     132544.8   -41882.059    2483.0416     -44365.1    35.288507   0.94227377 
   57300    199.61828    116.80545    132401.54   -41922.131     2483.631   -44405.762    35.208729   0.94329334 
   57400    198.94405    267.83439    132169.56   -41926.121    2475.2422   -44401.363    35.117181   0.94494897 
   57500    201.93014    354.02583    132240.33    -41967.34    2512.3948   -44479.734    35.144447   0.94444326 
   57600    200.68809    217.00083    132369.01   -41913.434    2496.9414   -44410.375    35.302161   0.94352513 
   57700    196.15238    173.41177    132273.46   -41945.301    2440.5085   -44385.809    35.278981   0.94420671 
   57800      196.836    236.27198     132104.2   -41966.566     2449.014    -44415.58    35.334121   0.94541653 
   57900     202.4786    247.67908    132201.17   -41931.301    2519.2187   -44450.519    35.179841   0.94472305 
   58000    201.23812    154.22068    132259.39   -41932.662    2503.7848   -44436.447    35.095361   0.94430718 
   58100    203.21623    278.74199    132170.69   -41872.135    2528.3962   -44400.531    35.278926   0.94494089 
   58200    208.22432    331.14092    132139.96    -41827.14    2590.7064   -44417.846    35.226733   0.94516066 
   58300    207.41585    235.77065    132151.19   -41777.907    2580.6475   -44358.555    35.404552   0.94508032 
   58400    205.12498    127.18683    132278.48   -41786.839    2552.1448   -44338.984    35.502032   0.94417088 
   58500     208.0448    270.33392    132165.22   -41795.813    2588.4728   -44384.286    35.336547   0.94498004 
   58600    208.40067    292.82696    132134.66   -41757.624    2592.9005   -44350.524    35.375473   0.94519856 
   58700    209.66141    269.66556    132146.81   -41765.755    2608.5865   -44374.342    35.518614   0.94511166 
   58800    204.76002     321.0079    132039.86   -41809.396     2547.604       -44357    35.505909   0.94587718 
   58900    200.49727    63.020018    132200.58   -41861.425    2494.5672   -44355.992    35.308886   0.94472725 
   59000    202.68743    217.87668     132060.3    -41849.53     2521.817   -44371.347    35.246084   0.94573076 
   59100    207.52674    228.81303    132095.38   -41860.842    2582.0272   -44442.869    35.568547   0.94547961 
   59200    204.75669    240.27316    132113.45   -41877.295    2547.5625   -44424.858    35.584337   0.94535032 
   59300    204.86677    304.01095    131961.23   -41873.906    2548.9321   -44422.838    35.471327    0.9464408 
   59400    201.09646    172.49189    131955.97    -41914.86    2502.0223   -44416.882    35.605061   0.94647849 
   59500    204.44979     343.9815    131929.69   -41877.397    2543.7441   -44421.142    35.451372   0.94666703 
   59600    201.72604    341.78898    132010.12   -41870.811    2509.8555   -44380.667    35.460073   0.94609027 
   59700    206.78215    240.89401    132112.39     -41896.8    2572.7631   -44469.563    35.558054   0.94535792 
   59800    202.46614    248.74688    132090.79   -41886.373    2519.0637   -44405.437    35.674962   0.94551246 
   59900    204.88518    346.13707    132211.46   -41856.736    2549.1611   -44405.897    35.688133   0.94464948 
   60000    201.56489    320.27681     132223.8   -41905.015    2507.8504   -44412.865    35.641897   0.94456137 
   60100    206.03724    206.89732    132268.91   -41865.889    2563.4949   -44429.384    35.757345   0.94423924 
   60200    206.34852    240.24946    132233.31   -41858.512    2567.3678    -44425.88    35.812999   0.94449345 
   60300    207.43259    154.18055    132187.29   -41813.531    2580.8557   -44394.387     35.79101   0.94482224 
   60400    208.99024    90.738476    132154.68   -41764.016    2600.2359   -44364.252    35.710329   0.94505538 
   60500    206.39363    267.76369    132042.93   -41793.811    2567.9291    -44361.74      35.7375   0.94585516 
   60600    204.38993    241.48924    132103.44   -41850.595    2542.9993   -44393.594    35.725674   0.94542192 
   60700    204.63621    268.23759    132033.19   -41872.984    2546.0635   -44419.047    35.747683     0.945925 
   60800    206.08039    378.80215    132129.92   -41828.265    2564.0319   -44392.297    35.839051   0.94523246 
   60900    205.53782    239.58923    132337.48   -41818.732    2557.2813   -44376.013    35.947455   0.94374996 
   61000    204.94117    326.44179     132332.1   -41857.207    2549.8577   -44407.065    35.902647   0.94378832 
   61100    205.04155    267.67917    132367.31   -41897.767    2551.1067   -44448.873    35.930955    0.9435373 
   61200    199.40703    261.45372    132325.94   -41890.444    2481.0026   -44371.447     35.94266   0.94383225 
   61300    202.84365    208.74913    132361.07   -41889.287    2523.7606   -44413.047    35.874861   0.94358172 
   61400    202.26881     280.4435    132331.88   -41919.974    2516.6085   -44436.582    36.003797   0.94378987 
   61500    203.46501    242.41375    132442.42   -41923.058    2531.4916   -44454.549    35.922302   0.94300221 
   61600    200.62779    212.60076    132322.13   -41894.214    2496.1912   -44390.405    35.941791   0.94385946 
   61700    201.97503     291.4879    132584.44   -41967.012    2512.9534   -44479.966    36.074542   0.94199206 
   61800     201.8526    240.34695    132619.28   -42037.685    2511.4302   -44549.115    35.859811   0.94174461 
   61900    203.72688    193.91739    132639.52   -41979.724    2534.7497   -44514.474    36.156088   0.94160088 
   62000    205.17768    335.10621     132598.4   -41936.361    2552.8004   -44489.162    36.131557   0.94189287 
   62100    202.88125    207.96409     132657.6   -41949.979    2524.2284   -44474.208    36.238623   0.94147256 
   62200    206.51806    329.93313    132893.44   -41906.103    2569.4773    -44475.58    36.355789   0.93980177 
   62300    204.21704    137.93397       132695   -41950.351    2540.8482     -44491.2    36.228659   0.94120723 
   62400    205.74307    208.51283    132605.83   -41897.953     2559.835   -44457.788    36.366926    0.9418401 
   62500    204.98185    397.36632    132657.79   -41914.884    2550.3639   -44465.248    36.298122    0.9414712 
   62600    205.88883    259.67108    132627.73   -41924.813    2561.6485   -44486.462     36.46303    0.9416846 
   62700     206.0513    180.07998    132802.54   -41958.496    2563.6699   -44522.166     36.23815   0.94044506 
   62800    204.62963    198.70143    132578.31    -41937.41    2545.9816   -44483.392    36.271667   0.94203563 
   62900    205.75562    195.18344     132578.4   -41893.984    2559.9911   -44453.975    36.574877     0.942035 
   63000     205.8497    280.04154    132459.63   -41852.731    2561.1616   -44413.892    36.413696   0.94287968 
   63100    208.07588    237.25882    132607.82   -41842.784    2588.8595   -44431.644    36.312975   0.94182597 
   63200    204.62088    262.46825    132617.89   -41874.352    2545.8728   -44420.225    36.391946   0.94175445 
   63300    204.12145    274.13853    132650.12   -41911.818    2539.6589   -44451.477    36.519575   0.94152566 
   63400    205.89138    390.05168    132638.95   -41831.722    2561.6802   -44393.403    36.547319   0.94160496 
   63500    204.44351    293.41726    132682.78   -41919.403    2543.6659   -44463.069    36.473065   0.94129393 
   63600    204.10333    162.87387    132684.82    -41922.65    2539.4335   -44462.083    36.589646   0.94127943 
   63700    203.88642    423.84628    132710.87   -41926.797    2536.7347   -44463.532    36.519578   0.94109468 
   63800    201.67069    226.98675    132604.08   -42032.179    2509.1668   -44541.345     36.51015   0.94185257 
   63900    201.19963    265.61007    132778.85   -42024.682     2503.306   -44527.988    36.644532   0.94061284 
   64000    203.50481    199.88946    132813.18    -42010.56    2531.9867   -44542.546     36.59258   0.94036971 
   64100    204.63998    293.79562    132816.41   -41933.284    2546.1104   -44479.394    36.541844   0.94034681 
   64200    206.36223     370.9277    132820.34   -41932.588    2567.5385   -44500.127    36.619683   0.94031898 
   64300    207.49391    156.93521    132739.56   -41857.941    2581.6187   -44439.559    36.744591   0.94089127 
   64400    210.47372    323.17679    132749.34   -41882.823    2618.6932   -44501.516    36.651307   0.94082197 
   64500    208.11815    287.59722     132786.7   -41872.083    2589.3854   -44461.468    36.691893   0.94055726 
   64600    204.84119    180.59841    132615.23   -41922.382    2548.6138   -44470.996    36.697259   0.94177337 
   64700    203.81195    287.24211    132596.82   -41933.624    2535.8082   -44469.432    36.667406   0.94190409 
   64800    209.76836    232.40744    132696.24   -41940.321    2609.9172   -44550.238      36.5535   0.94119838 
   64900    205.41665    187.95569    132705.88   -41922.129    2555.7736   -44477.903    36.430833   0.94113008 
   65000    205.06168     244.1986       132632   -41894.859    2551.3571   -44446.216    36.395922   0.94165426 
   65100    204.87827    240.20606    132619.04   -41912.391    2549.0752   -44461.466    36.636402   0.94174632 
   65200    203.41624    254.59769    132557.07   -41903.949    2530.8848   -44434.834    36.624177   0.94218654 
   65300    207.09551    233.50042    132720.52   -41911.859    2576.6618   -44488.521    36.618594   0.94102621 
   65400    205.32459    249.55918    132662.36   -41852.608    2554.6282   -44407.236     36.69487   0.94143878 
   65500      206.372    409.23335     132621.5   -41910.738      2567.66   -44478.398    36.579079   0.94172882 
   65600    202.20716    78.561448    132533.67   -41931.276    2515.8415   -44447.118    36.520568   0.94235295 
   65700    206.06929    356.08873    132596.16   -41977.632    2563.8937   -44541.525    36.540715   0.94190879 
   65800    204.80052    251.54291    132528.76   -41989.515    2548.1079   -44537.623    36.600021   0.94238782 
   65900    204.67871    335.99159    132568.52   -41960.113    2546.5922   -44506.705    36.763635   0.94210516 
   66000     205.3965    240.11262    132727.26   -41863.729    2555.5229   -44419.252    36.737786   0.94097843 
   66100    207.38749    273.21407    132561.84   -41826.322    2580.2946   -44406.617    36.568184   0.94215269 
   66200    210.07357    339.51194    132632.26   -41800.561    2613.7147   -44414.276    36.705544   0.94165246 
   66300    209.74564     342.5369    132737.73    -41840.44    2609.6345   -44450.074    36.739758   0.94090425 
   66400    208.15398    240.56609    132699.73   -41888.924    2589.8313   -44478.755    36.762513   0.94117364 
   66500    205.50116     120.8219    132691.97   -41908.266    2556.8251   -44465.091     36.90811    0.9412287 
   66600    208.26201     277.3572    132769.32   -41924.001    2591.1753   -44515.177    37.039479   0.94068034 
   66700     204.6247    303.87699    132690.64   -41948.287    2545.9202   -44494.208    36.884226   0.94123817 
   66800    205.79792    291.81272    132779.34   -41896.945    2560.5174   -44457.462     36.91371   0.94060937 
[...]
   84600    205.84983    329.25223     133059.3   -42054.068    2561.1632   -44615.232    39.869719   0.93863034 
   84700     202.0828    262.13244    133109.41   -42064.849    2514.2942   -44579.143    39.988439   0.93827694 
   84800    205.40904    130.57566    133149.26   -42042.275     2555.679   -44597.954    40.009754   0.93799616 
   84900     203.8851    260.38467    133098.08   -42029.162    2536.7182    -44565.88    40.045001   0.93835683 
   85000     204.5552    301.88616    133102.48   -41982.481    2545.0556   -44527.536     39.94484    0.9383258 
   85100    203.25535    273.87998    133277.17   -41985.143     2528.883   -44514.026    39.963164   0.93709592 
   85200    208.26435    238.47777    133273.97   -41997.876    2591.2045    -44589.08    40.021467   0.93711838 
   85300    202.64509    273.90426    133391.35   -42053.431    2521.2901   -44574.721    40.104096   0.93629379 
   85400    205.13501    249.93204    133408.02   -42050.468    2552.2695   -44602.738    40.149505    0.9361768 
   85500    206.00019    198.13724    133513.66   -42022.094     2563.034   -44585.128    40.355692   0.93543607 
   85600    207.48595    117.58823    133562.43   -42006.445    2581.5196   -44587.965    40.514698   0.93509448 
   85700     204.0392    220.71333    133586.89   -42042.937    2538.6356   -44581.573    40.384305   0.93492326 
   85800    203.96484    276.85212    133496.64   -42053.264    2537.7104   -44590.974    40.090383   0.93555533 
   85900     206.8071    342.23965    133668.22   -41964.692    2573.0735   -44537.765    40.254177   0.93435438 
   86000    204.17272    264.69869    133448.24   -42015.965    2540.2968   -44556.262    40.417211    0.9358946 
   86100    204.41142    276.61821    133386.13   -42008.774    2543.2667    -44552.04    40.322409   0.93633044 
   86200     205.5931     131.2349    133599.32   -41985.935     2557.969   -44543.904    40.400541   0.93483627 
   86300    206.94938    351.81819    133685.87   -42017.212    2574.8437   -44592.056     40.33268   0.93423108 
   86400    207.60588    176.97115     133678.9   -42037.208    2583.0118   -44620.219    40.237807   0.93427977 
   86500    207.09308    237.22738     133625.1   -42029.919    2576.6316    -44606.55    40.244178   0.93465592 
   86600    206.23271    244.91932    133593.16   -41974.225     2565.927   -44540.152    40.191839    0.9348794 
   86700    207.39887     292.6224    133618.55   -41966.612    2580.4362   -44547.048    40.289435   0.93470176 
   86800    206.24597    345.90157    133501.25   -42023.329     2566.092   -44589.421     40.39962     0.935523 
   86900    210.56369    362.48396    133464.28   -41991.053    2619.8126   -44610.866    40.376499   0.93578217 
   87000     205.9201    115.23665    133588.52   -41997.675    2562.0375   -44559.712    40.293543   0.93491183 
   87100    201.44097    283.80666    133618.17   -42026.799    2506.3086   -44533.108    40.320619   0.93470443 
   87200    208.52937    278.90671    133674.85   -42020.184    2594.5018   -44614.686    40.267037    0.9343081 
   87300    204.45301    281.68822    133597.05    -42026.29    2543.7841   -44570.074    40.440481   0.93485217 
   87400    206.12086    131.01622    133592.09   -42036.362    2564.5353   -44600.897    40.389071   0.93488686 
   87500    202.25508    125.39433     133471.6   -42045.683    2516.4377    -44562.12    40.225778   0.93573086 
   87600    200.75093    301.18686    133407.52   -42040.588    2497.7232   -44538.311    40.371899   0.93618033 
   87700    203.89239    155.65666    133382.09   -42046.044     2536.809   -44582.853    40.315558   0.93635879 
   87800    206.99737    339.60815    133498.45   -42023.384    2575.4409   -44598.825    40.387014    0.9355426 
   87900    205.93963    252.10241    133418.35   -42040.052    2562.2805   -44602.333    40.253721   0.93610431 
   88000    202.21951    228.69641    133406.89     -42068.2    2515.9952   -44584.195    40.173863    0.9361847 
   88100    206.93949    256.79302    133422.99   -42011.669    2574.7206   -44586.389     40.33953   0.93607172 
   88200    205.09446     345.1276    133434.51   -41984.163     2551.765   -44535.928    40.401006   0.93599092 
   88300     205.5522    235.24445    133367.14    -42022.49    2557.4601    -44579.95    40.441299   0.93646372 
   88400    200.45441    112.73343     133325.7   -42130.781     2494.034   -44624.815    40.338093   0.93675478 
   88500    205.48082    254.14566    133236.21    -42034.14     2556.572   -44590.712    40.242007   0.93738402 
   88600    207.14908    254.57182    133183.67   -41986.475    2577.3284   -44563.804    40.214185   0.93775382 
   88700    208.06582    333.59869    133208.66   -41961.594    2588.7344   -44550.328    40.166253   0.93757787 
   88800    210.90414    195.21584    133190.73   -41903.886    2624.0485   -44527.935    40.278101   0.93770408 
   88900     208.4682    180.83089    133003.07   -41950.401    2593.7407   -44544.142    40.250824   0.93902711 
   89000    207.06192    238.43805    133033.53   -41918.836    2576.2439    -44495.08    40.208284   0.93881213 
   89100    205.16659    163.50602     132968.3   -42007.304    2552.6624   -44559.966    40.254959   0.93927271 
   89200    206.37644     280.3032    133058.72   -42038.865    2567.7152    -44606.58    40.245199   0.93863443 
   89300    204.14993    194.26261    133048.67   -42048.813    2540.0132   -44588.826    40.342246   0.93870532 
   89400    205.37886    288.10986     133047.4     -42067.9    2555.3034   -44623.203    40.421208   0.93871422 
   89500    201.87611    163.95703    133178.52    -42095.16    2511.7226   -44606.882    40.388864   0.93779007 
   89600    199.89107    260.92574    133190.58   -42140.494    2487.0249   -44627.519    40.435305   0.93770515 
   89700    203.26272    258.89795    133256.71   -42102.085    2528.9747    -44631.06    40.318702   0.93723979 
   89800    201.89499    214.87492    133241.19   -42071.214    2511.9575   -44583.171    40.336513   0.93734897 
   89900    199.34015    176.78239    133152.28   -42128.647    2480.1704   -44608.818    40.518586   0.93797488 
   90000    202.68755     285.6288    133156.89   -42045.549    2521.8184   -44567.367    40.345158   0.93794238 
   90100    202.88433    257.09815     133379.7   -42056.415    2524.2667   -44580.682    40.487483   0.93637554 
   90200    202.78198    103.41087    133311.58   -42088.326    2522.9933   -44611.319    40.591169     0.936854 
   90300    206.32468    267.17556    133292.67   -42089.108    2567.0713   -44656.179    40.432487   0.93698691 
   90400    202.56838    278.77964     133154.6   -42067.086    2520.3357   -44587.422    40.372768   0.93795851 
   90500    200.31759    255.09421    133084.39   -42040.252    2492.3316   -44532.583    40.347438   0.93845337 
   90600    208.79135    241.80296    133100.72   -41957.534    2597.7613   -44555.296    40.479626   0.93833818 
   90700    205.28382     200.8878    133153.85   -41965.061     2554.121   -44519.182    40.319572   0.93796382 
   90800    205.79179     282.0156    133102.97   -42003.454    2560.4411   -44563.895    40.432786   0.93832234 
   90900    202.37547    315.29403    133107.45   -42098.099    2517.9356   -44616.035    40.446206   0.93829079 
   91000    202.12749    249.91961    133006.74   -42107.265    2514.8502   -44622.116    40.422518   0.93900119 
   91100    200.43963    291.71715    133075.04   -42091.734    2493.8501   -44585.584    40.357677   0.93851926 
   91200    199.82961    283.90252    133086.67   -42046.928    2486.2602   -44533.188    40.311823   0.93843729 
   91300    204.98491    128.86777    133008.84   -41950.446     2550.402   -44500.848    40.251935   0.93898639 
   91400    208.75136    330.56285    133070.72   -41931.926    2597.2638    -44529.19    40.499355   0.93854975 
   91500    205.73581    196.98017    133046.71   -41940.057    2559.7446   -44499.802    40.564182   0.93871911 
   91600    208.17355    296.98091    133098.96   -41972.262    2590.0747   -44562.337    40.623476    0.9383506 
   91700    203.27145    228.81165    133094.98    -42037.59    2529.0833   -44566.673    40.596567   0.93837867 
   91800    201.62227     242.9574     133034.2   -42009.976    2508.5643    -44518.54    40.471851   0.93880739 
   91900    208.15881    324.92112    133047.34   -42023.474    2589.8913   -44613.365    40.693928   0.93871469 
   92000    208.94196    431.72458    133022.88   -42027.178    2599.6352   -44626.813    40.607786   0.93888728 
   92100    203.50519    292.82689    133049.78    -42078.89    2531.9914   -44610.881    40.455368    0.9386975 
   92200    202.00818    202.71665    133084.61   -42026.568    2513.3658   -44539.934    40.420711   0.93845177 
   92300    207.31273    227.09339     133031.6   -41957.684    2579.3645   -44537.048    40.565444   0.93882577 
   92400    205.81103     149.1738    133001.38   -41963.632    2560.6805   -44524.313    40.740382   0.93903909 
   92500    205.50835    233.02524    133032.46   -42011.319    2556.9145   -44568.233    40.727225   0.93881967 
   92600    202.94452    212.67978    133073.82   -41986.893    2525.0156   -44511.908    40.716791   0.93852792 
   92700    204.29421    154.68522    132973.94   -41977.656    2541.8083   -44519.465    40.711067   0.93923281 
   92800    205.41221    149.36692    133022.24   -42014.902    2555.7184    -44570.62    40.648863   0.93889178 
   92900    207.05766    275.96911    132959.89   -41973.461    2576.1909   -44549.652    40.799841    0.9393321 
   93000    206.25716    284.00061    133139.76   -41998.391    2566.2312   -44564.622     40.76203   0.93806308 
   93100    204.90042    236.80722    133182.58     -41935.4    2549.3507    -44484.75    40.845084   0.93776147 
   93200    208.89262    174.19961    133044.05   -41954.777    2599.0213   -44553.798    40.876899   0.93873786 
   93300    205.08045    203.84276    133004.26   -41975.691    2551.5906   -44527.282    40.786369   0.93901876 
   93400    201.69236    220.81448     132945.9   -41999.097    2509.4364   -44508.533    40.798798   0.93943093 
   93500    203.91274    366.37719    132965.66   -42037.537    2537.0621   -44574.599    40.881925   0.93929132 
   93600     201.0131    290.37791    132992.99   -42097.704    2500.9851   -44598.689    40.991488   0.93909828 
   93700    202.10576      323.174    132916.39   -42064.954    2514.5799   -44579.534    40.954332   0.93963953 
   93800    203.96831    356.99057    132831.14   -42032.428    2537.7535   -44570.181    40.934359   0.94024253 
   93900     207.0099    280.77569    132999.04   -42005.448    2575.5967   -44581.045    41.014492   0.93905557 
   94000    205.49204    203.40777    133009.15   -42005.968    2556.7117    -44562.68    41.101165   0.93898419 
   94100    203.64771    400.44684    133004.37   -42001.563    2533.7647   -44535.328    41.026153   0.93901797 
   94200    205.58534    163.08312    133035.24   -41993.213    2557.8725   -44551.085    41.131586   0.93880004 
   94300    205.06388    251.72678    132929.58   -41945.317    2551.3846   -44496.702    41.109988   0.93954624 
   94400    208.31758    243.56077    132925.94   -41920.817    2591.8668   -44512.684    41.144357   0.93957202 
   94500    207.51672    248.38696    132919.59   -41854.536    2581.9025   -44436.439    41.208048   0.93961689 
   94600    207.18832    273.10395    132831.99   -41894.815    2577.8165   -44472.632    41.062729   0.94023657 
   94700    207.21368    204.83542    132857.51   -41933.727    2578.1322    -44511.86    41.112444   0.94005592 
   94800    205.32462    216.59558     132841.5   -41929.667    2554.6286   -44484.296    41.148668   0.94016921 
   94900    205.66046     100.9108    132997.06   -41907.859    2558.8072   -44466.666    41.329922   0.93906959 
   95000    205.67408    341.72542    132956.46   -41899.837    2558.9766   -44458.814    41.460049   0.93935635 
   95100    206.07665    204.29454    132850.11   -41904.017    2563.9853   -44468.002    41.453622   0.94010832 
   95200    208.91673    274.96885    132840.66   -41925.947    2599.3213   -44525.269    41.477962   0.94017519 
   95300    206.81315    324.21633    132851.92   -41843.334    2573.1488   -44416.483    41.490462   0.94009548 
   95400    209.46964    318.08379    132917.46   -41898.418    2606.2005   -44504.619    41.288271   0.93963192 
   95500    203.47471    236.52728    132970.74   -41900.843    2531.6122   -44432.455    41.544656   0.93925543 
   95600     203.9081    299.76508    133003.73   -41885.133    2537.0045   -44422.137    41.554644   0.93902246 
   95700    206.13634    141.91917    133068.75   -41935.318     2564.728   -44500.046     41.66543   0.93856361 
   95800    204.47896    250.09507    133146.11   -41987.273    2544.1071    -44531.38    41.633728   0.93801831 
   95900    204.08102    310.75806    133122.39   -41941.726    2539.1558   -44480.882    41.618025   0.93818546 
   96000     201.2874    288.80783    133238.49   -42017.034    2504.3979   -44521.432    41.737073   0.93736792 
   96100    204.94039    196.42558    133368.29   -41978.045    2549.8481   -44527.893    41.906046    0.9364557 
   96200    201.40073    193.56757    133238.73   -42021.097    2505.8079   -44526.905    41.878243   0.93736628 
   96300    205.37798    198.86265    133242.94   -41977.774    2555.2925   -44533.066    41.722612   0.93733663 
   96400    206.48035    351.54757    133259.13   -41969.582    2569.0082    -44538.59    41.657097    0.9372228 
   96500    205.60269    224.51979    133243.41   -42017.834    2558.0883   -44575.922    41.841302   0.93733332 
   96600    204.18682    323.69776    133158.98    -42011.66    2540.4722   -44552.133    41.912354   0.93792767 
   96700    203.77333    241.04288    133185.18   -42087.149    2535.3276   -44622.476     41.93092   0.93774315 
   96800    198.22201    289.25727    133159.09   -42123.624    2466.2587   -44589.882     41.87738   0.93792686 
   96900    201.59296    348.83736    133180.92   -42057.887    2508.1997   -44566.087    41.794098   0.93777315 
   97000    202.65178    256.11608       133150   -42063.534    2521.3734   -44584.907    41.892823   0.93799093 
   97100    202.95582    204.11365    133145.68    -42048.47    2525.1562   -44573.626    41.906977   0.93802134 
   97200    201.85594    288.84384    133196.41   -42056.008    2511.4717   -44567.479    41.885546   0.93766407 
   97300    202.39941    230.85066    133184.99     -42053.8    2518.2334   -44572.033    41.911597    0.9377445 
   97400    204.60296    331.51198    133283.14   -42063.446    2545.6498   -44609.096    42.049672    0.9370539 
   97500     205.0388    226.66171    133087.61   -41971.484    2551.0725   -44522.556    41.909647   0.93843066 
   97600    205.07416    202.21455    133095.92   -42043.577    2551.5124   -44595.089    41.820691   0.93837203 
   97700    209.31998    270.67707    133097.35   -41970.126    2604.3385   -44574.464    41.836406   0.93836194 
   97800    207.61365    283.91065    133241.97   -41952.759    2583.1086   -44535.868    41.870173   0.93734344 
   97900    207.05956    342.26179    133128.66   -41918.669    2576.2146   -44494.884    41.740715   0.93814126 
   98000    206.48975    335.60569    133171.44   -41943.519    2569.1251   -44512.644    41.878411    0.9378399 
   98100    205.00357    315.33951    133192.84   -42014.829    2550.6342   -44565.463    41.895264   0.93768924 
   98200    204.29377    237.18522    133189.11   -41990.916    2541.8029   -44532.719    41.990316   0.93771546 
   98300    201.98993    373.09716    133116.28   -42004.055    2513.1387   -44517.193    41.965063   0.93822854 
   98400    199.69126    103.79807    133141.46   -42013.884    2484.5389   -44498.423    41.818023   0.93805108 
   98500    204.87288    222.40661    133064.51   -42019.405    2549.0082   -44568.414    41.724279   0.93859355 
   98600    204.88538    280.05381    133000.26   -42048.588    2549.1636   -44597.751    41.890795   0.93904694 
   98700    202.24595      386.662    133004.58   -42100.567    2516.3241   -44616.891    41.985914   0.93901648 
   98800    200.76035    142.82925    133132.67   -42069.996    2497.8405   -44567.836    41.880486   0.93811303 
   98900    199.96607    172.57404    132959.42   -42073.822    2487.9581    -44561.78    41.814513    0.9393354 
   99000    196.20925    238.57327    133015.04    -42097.44     2441.216   -44538.656    41.875555   0.93894261 
   99100     204.9987    365.19663     133024.5    -42029.05    2550.5735   -44579.623    41.913398   0.93887582 
   99200      206.344    256.81708    132928.87   -42019.852    2567.3116   -44587.164    42.042606   0.93955131 
   99300     207.8671    272.93853    133033.21   -41976.152    2586.2619   -44562.414    42.068535   0.93881436 
   99400    208.98918    353.83823    132944.63    -41952.06    2600.2228   -44552.282    42.004793   0.93943993 
   99500    211.18589    314.06496    132920.44    -41846.81     2627.554   -44474.364    41.943998   0.93961085 
   99600      208.514    240.33523    132956.93   -41876.167    2594.3106   -44470.478    42.076633     0.939353 
   99700    209.73429    275.32767     132956.3   -41879.945    2609.4933   -44489.438    42.004501   0.93935747 
   99800    209.75758     93.38273    132822.53    -41904.68    2609.7831   -44514.463    42.055191   0.94030349 
   99900    207.33556    269.78513    132750.42   -41958.326    2579.6485   -44537.974    42.118879   0.94081429 
  100000    204.55119     283.3571    132728.72       -41972    2545.0057   -44517.005    42.071249   0.94096808 
  100100    208.13101    353.09356    132714.82   -41911.079    2589.5454   -44500.624    42.124812   0.94106662 
  100200    207.23847    238.39684    132808.69   -41921.368    2578.4406   -44499.809    42.187571   0.94040149 
  100300    211.63008    162.66259    132678.44    -41907.87    2633.0805    -44540.95    42.098118   0.94132465 
  100400    204.65485    250.90168    132651.31   -41947.213    2546.2954   -44493.508    42.097223   0.94151721 
  100500    210.52127    226.47178    132680.38   -41869.946    2619.2848   -44489.231    42.238244   0.94131093 
  100600    207.76047     272.2109    132641.72   -41956.665    2584.9352     -44541.6    42.131996   0.94158527 
  100630    204.18608    182.04581     132628.2   -41941.801    2540.4631   -44482.264    42.198152   0.94168127 
Loop time of 76.7997 on 6 procs for 100000 steps with 4175 atoms

Performance: 562.502 ns/day, 0.043 hours/ns, 1302.088 timesteps/s
98.4% CPU use with 6 MPI tasks x no OpenMP threads

MPI task timing breakdown:
Section |  min time  |  avg time  |  max time  |%varavg| %total
---------------------------------------------------------------
Pair    | 58.535     | 61.35      | 65.432     |  27.5 | 79.88
Neigh   | 4.6501     | 4.6919     | 4.7266     |   1.3 |  6.11
Comm    | 4.1027     | 8.1815     | 10.962     |  74.9 | 10.65
Output  | 0.16047    | 0.16127    | 0.16507    |   0.4 |  0.21
Modify  | 1.7303     | 1.7865     | 1.861      |   4.0 |  2.33
Other   |            | 0.6284     |            |       |  0.82

Nlocal:        695.833 ave         707 max         685 min
Histogram: 1 1 0 1 1 0 0 0 0 2
Nghost:        1453.00 ave        1460 max        1443 min
Histogram: 1 1 0 0 0 0 0 2 0 2
Neighs:        0.00000 ave           0 max           0 min
Histogram: 6 0 0 0 0 0 0 0 0 0
FullNghs:      19160.3 ave       19518 max       18793 min
Histogram: 1 0 1 0 2 0 0 0 0 2

Total # of neighbors = 114962
Ave neighs/atom = 27.535808
Neighbor list builds = 5054
Dangerous builds = 0

undump              1
unfix               2
unfix               3
unfix               4


################################################
#######         Run Simulation         #########
################################################

reset_timestep      0
log                 log.run_${NAME}
log                 log.run_liquid_density_MLmW
