
# Create simulation box of size 50 x 50 x 50 Angstrom
#
lattice	            sc 1
Lattice spacing in x,y,z = 1.0000000 1.0000000 1.0000000
region 	            all block 0 50 0 50 0 50 units box
create_box          1 all
Created orthogonal box = (0.0000000 0.0000000 0.0000000) to (50.000000 50.000000 50.000000)
  1 by 2 by 3 MPI processor grid

# fill box with 4175 randomly distributed atoms
#
create_atoms        1 random 4175 63782 all
Created 4175 atoms
  create_atoms CPU = 0.000 seconds
mass                1 18.015

# Define potential
#
pair_style          sw
pair_coeff          * * ML_mW.sw mW
Reading sw potential file ML_mW.sw with DATE: 2019-02-27

# Run minimization
#
minimize            1.0e-8 1.0e-8 10000 1000
WARNING: Using 'neigh_modify every 1 delay 0 check yes' setting during minimization (../min.cpp:187)
Neighbor list info ...
  update every 1 steps, delay 0 steps, check yes
  max neighbors/atom: 2000, page size: 100000
  master list distance cutoff = 6.0032907
  ghost atom cutoff = 6.0032907
  binsize = 3.0016454, bins = 17 17 17
  1 neighbor lists, perpetual/occasional/extra = 1 0 0
  (1) pair sw, perpetual
      attributes: full, newton on
      pair build: full/bin/atomonly
      stencil: full/bin/3d
      bin: standard
Per MPI rank memory allocation (min/avg/max) = 4.255 | 4.258 | 4.261 Mbytes
Step Temp E_pair E_mol TotEng Press 
       0            0    7792709.3            0    7792709.3    5898794.3 
     630            0   -45180.336            0   -45180.336   -154.07449 
Loop time of 1.11069 on 6 procs for 630 steps with 4175 atoms

98.5% CPU use with 6 MPI tasks x no OpenMP threads

Minimization stats:
  Stopping criterion = max force evaluations
  Energy initial, next-to-last, final = 
      7792709.32924461  -45180.0188663597   -45180.336116598
  Force two-norm initial, final = 2.0191930e+08 4.9721331
  Force max component initial, final = 1.0948746e+08 0.73126211
  Final line search alpha, max atom move = 0.053306038 0.038980685
  Iterations, force evaluations = 630 1000

MPI task timing breakdown:
Section |  min time  |  avg time  |  max time  |%varavg| %total
---------------------------------------------------------------
Pair    | 0.88501    | 0.97146    | 1.0317     |   5.0 | 87.46
Neigh   | 0.024093   | 0.02438    | 0.024677   |   0.2 |  2.20
Comm    | 0.034896   | 0.095386   | 0.18237    |  15.9 |  8.59
Output  | 0          | 0          | 0          |   0.0 |  0.00
Modify  | 0          | 0          | 0          |   0.0 |  0.00
Other   |            | 0.01947    |            |       |  1.75

Nlocal:        695.833 ave         704 max         685 min
Histogram: 1 1 0 0 1 0 0 1 0 2
Nghost:        1494.17 ave        1515 max        1468 min
Histogram: 1 1 0 0 0 0 1 1 1 1
Neighs:        0.00000 ave           0 max           0 min
Histogram: 6 0 0 0 0 0 0 0 0 0
FullNghs:      19997.0 ave       20462 max       19320 min
Histogram: 1 1 0 0 0 0 0 2 0 2

Total # of neighbors = 119982
Ave neighs/atom = 28.738204
Neighbor list builds = 26
Dangerous builds = 0

# Add velocity/set timestep
#
velocity            all create ${TEMP} 120598 rot yes dist gaussian
velocity            all create 225 120598 rot yes dist gaussian
timestep            5.0

# Define output
#
compute	            1 all msd
thermo	            100
thermo_style        custom step temp press vol etotal ke pe c_1[4] density

# Neighbor lists
#
neigh_modify        delay 0 every 1 check yes

# Set fixes
#
fix                 1 all momentum 10 linear 1 1 1 rescale
fix                 2 all nve
fix                 3 all temp/csvr ${TEMP} ${TEMP} 500.0 928347
fix                 3 all temp/csvr 225 ${TEMP} 500.0 928347
fix                 3 all temp/csvr 225 225 500.0 928347
fix                 4 all press/berendsen iso ${PRES} ${PRES} 1000.0 modulus 20000
fix                 4 all press/berendsen iso -600 ${PRES} 1000.0 modulus 20000
fix                 4 all press/berendsen iso -600 -600 1000.0 modulus 20000

# Run 0.5 ns equilibration
#
dump                1 all custom 1000 eq.${NAME}.dump id type x y z vx vy vz
dump                1 all custom 1000 eq.liquid_density_MLmW.dump id type x y z vx vy vz
run                 100000
Per MPI rank memory allocation (min/avg/max) = 3.506 | 3.508 | 3.511 Mbytes
Step Temp Press Volume TotEng KinEng PotEng c_1[4] Density 
     630          225    869.67124       125000   -42380.908    2799.4278   -45180.336 2.7295415e-33   0.99914793 
     700    143.29189   -494.74914    126025.62   -41514.243    1782.8236   -43297.067   0.26823936   0.99101666 
     800    177.76611   -716.46572    126313.37   -40724.382    2211.7484    -42936.13   0.62454306   0.98875907 
     900    198.59381    -404.7986    126479.86   -40283.399    2470.8846   -42754.284    1.0443968   0.98745756 
    1000    205.98293    -662.0373    126761.03   -39995.723    2562.8192   -42558.543    1.4590237   0.98526725 
    1100    215.75413   -690.07076    126866.66   -39795.011    2684.3916   -42479.403    1.8189241   0.98444692 
    1200    218.41239   -524.42811     127103.5   -39819.891    2717.4653   -42537.356    2.2530149   0.98261253 
    1300    217.34478   -700.42248    127212.92   -39813.391    2704.1823   -42517.574    2.6777082   0.98176732 
    1400    216.25286    -398.1948    127450.55   -39847.184    2690.5967    -42537.78    3.0472034   0.97993688 
    1500    221.80789   -704.21288    127735.11   -39811.855    2759.7119   -42571.567    3.4217176    0.9777538 
    1600      227.189   -665.55839    127866.78   -39717.806    2826.6631   -42544.469    3.7085477     0.976747 
    1700    227.81291   -405.35417    127948.93   -39743.506    2834.4257   -42577.931    4.0914177   0.97611987 
    1800     225.2858   -521.46638    128152.85   -39843.126    2802.9837   -42646.109    4.4005934   0.97456664 
    1900    220.67594   -661.07439    128312.63   -39840.368    2745.6283   -42585.996     4.723765   0.97335305 
    2000     223.0535   -774.68426       128138   -39797.298    2775.2096   -42572.507    5.1057072   0.97467958 
    2100    225.74508   -282.72843    128399.08   -39740.303     2808.698   -42549.001    5.4858151   0.97269773 
    2200    227.44798   -549.36524    128487.61   -39775.063    2829.8853   -42604.948    5.8205654   0.97202754 
    2300    226.27042   -358.87463    128803.05   -39744.835    2815.2342   -42560.069    6.1690148     0.969647 
    2400    226.11262   -560.65281     129104.9   -39778.643    2813.2709   -42591.914    6.5550314   0.96737993 
    2500     231.4607   -596.59975    129341.49   -39751.368    2879.8111   -42631.179    6.7001463   0.96561043 
    2600     236.5302   -491.30255       129362   -39721.685    2942.8854    -42664.57    7.0512458   0.96545729 
    2700    229.84514   -517.04993    129662.65   -39779.102    2859.7105   -42638.813    7.5066755   0.96321874 
    2800    233.41213   -450.64158    129821.53   -39771.151    2904.0906   -42675.242    7.7628832   0.96203989 
    2900    225.23782   -732.34063    129667.09   -39857.873    2802.3867    -42660.26    8.0306962   0.96318572 
    3000    228.82613   -535.93844     129980.8   -39895.202    2847.0321   -42742.234    8.2286543   0.96086111 
    3100    229.06222   -591.31087    130286.65   -39901.429    2849.9695   -42751.399    8.5543137   0.95860544 
    3200    227.56072   -704.93953       130117   -39966.491     2831.288   -42797.779    8.8214142    0.9598553 
    3300    227.98703    -704.9996    129908.66   -39988.186    2836.5921   -42824.778    9.0813061   0.96139469 
    3400    226.44196    -620.3742    130025.74   -40048.613    2817.3685   -42865.981    9.2846107     0.960529 
    3500    225.11596    -572.3225    130285.69   -40069.403    2800.8705   -42870.273    9.6499426   0.95861252 
    3600    222.53621   -451.06671    130371.25    -40112.39    2768.7735   -42881.163    9.8380192   0.95798336 
    3700    223.81375   -623.47178    130293.89   -40177.017    2784.6686   -42961.685    9.9773295   0.95855214 
    3800    225.32818   -751.81479    130324.74   -40123.609    2803.5109   -42927.119    10.171352    0.9583253 
    3900    222.85889   -765.16896    130380.06   -40161.123    2772.7883   -42933.912    10.433954   0.95791864 
    4000     226.9167   -521.95227    130393.53   -40163.943    2823.2751   -42987.218    10.627614   0.95781968 
    4100    224.33012   -527.90326    130400.84   -40150.283    2791.0932   -42941.377     10.86094   0.95776602 
    4200    225.98008    -718.0382    130347.43   -40177.188    2811.6218    -42988.81    11.080434   0.95815846 
    4300    221.61825   -537.92309    130512.65   -40181.571    2757.3523   -42938.924    11.080268   0.95694549 
    4400    227.79534   -596.81816    130701.84   -40175.879    2834.2072   -43010.086    11.221759   0.95556035 
    4500    224.98131   -636.40965    130587.51    -40185.91    2799.1953   -42985.105    11.360645   0.95639694 
    4600    223.75143    -707.7534    130526.82     -40249.7    2783.8932   -43033.593     11.54192   0.95684161 
    4700    227.84917   -483.17701    130664.15     -40170.1    2834.8769   -43004.977     11.76397   0.95583595 
    4800    223.84404   -737.42721    130664.64   -40232.977    2785.0454   -43018.022    11.900992   0.95583235 
    4900    226.16587   -711.44255    130506.08   -40123.058    2813.9334   -42936.992    12.169455   0.95699368 
    5000    229.37813   -608.39562    130698.46   -40098.783       2853.9   -42952.683    12.504024   0.95558504 
    5100    227.12644   -570.95844    130559.52   -40179.332    2825.8847   -43005.217    12.647485   0.95660197 
    5200    219.72256    -551.3754    130563.12   -40218.228    2733.7663   -42951.995    12.763132    0.9565756 
    5300    224.57034   -514.76891    130729.92   -40181.804     2794.082   -42975.886    12.867487   0.95535503 
    5400    223.70524   -464.66555     131103.7   -40215.001    2783.3185   -42998.319    13.112776   0.95263132 
    5500     222.4448    -784.7271    130953.19   -40206.979    2767.6363   -42974.615    13.345842    0.9537262 
    5600     224.9351   -758.16617    130930.34   -40220.659    2798.6203   -43019.279    13.467554   0.95389268 
    5700    221.28558   -478.82352    130954.16   -40217.842    2753.2133   -42971.055     13.63225   0.95371913 
    5800    225.04551   -637.26033    130720.12   -40250.994     2799.994   -43050.988    13.961234   0.95542669 
    5900    220.83511   -591.31865    130761.76   -40275.316    2747.6086   -43022.925    14.166017   0.95512244 
    6000    223.51893   -693.71845    130709.24    -40276.09    2781.0004    -43057.09    14.294641    0.9555062 
    6100    226.21404   -590.85393    130716.37   -40229.418    2814.5328   -43043.951    14.423387   0.95545407 
    6200    224.92761   -595.40393    130656.48   -40301.746     2798.527   -43100.273    14.793948   0.95589209 
    6300    226.33097   -618.47804    130765.63   -40268.829    2815.9875   -43084.817    15.113274   0.95509417 
    6400    225.28508   -604.72136    130724.09   -40262.186    2802.9747   -43065.161    15.264872    0.9553977 
    6500    229.34462   -549.64084    130879.82   -40213.192    2853.4831   -43066.675     15.44723   0.95426087 
    6600    228.01824   -653.01024    130851.42     -40294.7    2836.9804    -43131.68    15.388647   0.95446799 
    6700    220.29988   -587.54698    130929.72   -40366.306    2740.9493   -43107.255    15.522467   0.95389717 
    6800    224.68195    -749.6971    130917.08   -40290.072    2795.4706   -43085.543    15.742925   0.95398927 
    6900    230.33035   -577.04926    131271.69   -40226.418    2865.7475   -43092.166    15.926101    0.9514122 
    7000    228.26316   -779.44083    131303.23   -40221.024    2840.0277   -43061.052    16.182767   0.95118369 
    7100    229.66222   -662.12927    131046.87   -40261.206    2857.4347    -43118.64    16.210971   0.95304448 
    7200    223.40776   -696.75307    131086.83   -40315.194    2779.6173   -43094.812    16.454288   0.95275389 
    7300    221.29693      -531.41    131036.68   -40370.755    2753.3545    -43124.11    16.527107   0.95311857 
    7400    222.54669   -482.47438    131239.75   -40393.688    2768.9039   -43162.592    16.755987   0.95164375 
    7500    221.35216   -667.04075    131101.27   -40365.149    2754.0417    -43119.19     16.82038     0.952649 
    7600    220.90364   -620.10934    130982.65   -40441.984    2748.4613   -43190.445    16.968547   0.95351173 
    7700    223.60072   -588.77758    130857.11   -40324.681    2782.0181   -43106.699    17.054644   0.95442652 
    7800    224.50875   -825.83301    130810.21   -40293.504    2793.3156    -43086.82    16.990821    0.9547687 
    7900    221.17103   -429.62485    131005.04   -40350.328     2751.788   -43102.116    17.287164   0.95334878 
    8000    226.47495   -631.41146    130940.46   -40328.195     2817.779   -43145.974    17.497653   0.95381895 
    8100    218.75961   -634.20944    130922.66   -40397.331    2721.7855   -43119.116    17.723055   0.95394863 
    8200    219.88738   -629.38923    130780.08   -40406.071     2735.817   -43141.888    17.701414   0.95498863 
    8300    224.44914   -571.66531    130821.76   -40398.505     2792.574   -43191.079    17.741327   0.95468437 
    8400    226.92231   -366.74202    130853.67   -40351.536    2823.3449   -43174.881    17.886082   0.95445154 
    8500    227.26264   -527.85376     131126.8   -40282.249    2827.5792   -43109.828    18.160209   0.95246352 
    8600    227.10129   -637.34329    131291.03   -40301.938    2825.5718   -43127.509    18.406747   0.95127211 
    8700      226.808   -586.66378    131350.63   -40291.439    2821.9227   -43113.362    18.552721   0.95084041 
    8800    224.97934   -605.26228    131318.72   -40339.362    2799.1707   -43138.532    18.553106   0.95107151 
    8900    222.69345    -592.0932    131414.89   -40431.182    2770.7299   -43201.912    18.809022   0.95037548 
    9000    223.06255    -503.2287    131309.67   -40377.976    2775.3222   -43153.298    19.022953   0.95113707 
    9100    223.47499   -654.66614    131220.51   -40457.128    2780.4538   -43237.582    19.143048   0.95178329 
    9200     223.5994   -686.87082    131262.82   -40370.014    2782.0017   -43152.016    19.253608   0.95147649 
    9300     219.6031   -498.90327    131336.95   -40404.213    2732.2801   -43136.493    19.373945   0.95093945 
    9400     223.1249   -482.77954    131161.34   -40361.434     2776.098   -43137.532    19.367116   0.95221266 
    9500     225.9879   -679.94461    131303.34   -40371.228    2811.7191   -43182.947    19.632284    0.9511829 
    9600      225.706   -537.89691    131262.55   -40344.938    2808.2117   -43153.149    19.652812   0.95147845 
    9700    224.92302     -555.501    131321.54   -40269.235      2798.47   -43067.705    19.940179    0.9510511 
    9800    228.07699   -490.23906    131399.36   -40351.326    2837.7114   -43189.037    20.031353   0.95048783 
    9900    216.51506   -547.53408    131155.13   -40440.076     2693.859   -43133.935    20.143409    0.9522578 
   10000    224.47679   -531.43096    131453.93    -40459.83     2792.918   -43252.748     20.20373   0.95009327 
   10100    221.64542   -554.63613    131497.23   -40436.656    2757.6904   -43194.346    20.201718   0.94978041 
   10200    220.67421   -508.86785     131197.3   -40489.807    2745.6067   -43235.413    20.327332   0.95195171 
   10300    220.11619   -495.96238    131243.28   -40477.348    2738.6639   -43216.012    20.613246   0.95161819 
   10400    223.69954   -780.32283    131088.63   -40418.049    2783.2476   -43201.296    20.858448   0.95274085 
   10500    225.02293   -690.93663    131093.85   -40387.977     2799.713    -43187.69    20.994817   0.95270293 
   10600    228.14773   -358.18889    131250.86    -40332.09    2838.5915   -43170.681    21.083264    0.9515632 
   10700    230.08633   -693.38985    131313.34   -40324.991    2862.7113   -43187.703    21.212514   0.95111046 
   10800    228.27416   -484.14956    131172.38   -40315.457    2840.1645   -43155.622    21.241341   0.95213255 
   10900    226.07681   -720.30194    131283.35   -40347.682    2812.8253   -43160.507    21.514986   0.95132774 
   11000    230.18048   -581.60139    131286.39   -40346.012    2863.8828   -43209.895    21.465193   0.95130571 
   11100    222.13629    -526.9702    131356.59   -40389.708    2763.7977   -43153.506     21.57722   0.95079727 
   11200    226.75463   -593.48595    131437.69   -40390.558    2821.2586   -43211.817    21.640251   0.95021062 
   11300    228.74788   -636.45454    131353.53    -40383.79    2846.0586   -43229.849    21.653147   0.95081942 
   11400    226.13851   -561.36794       131394   -40403.062     2813.593   -43216.655    21.765346   0.95052662 
   11500    220.68206   -610.28115    131100.69   -40423.618    2745.7044   -43169.323    22.091056   0.95265323 
   11600    225.08719   -631.87501    131253.85   -40425.681    2800.5126   -43226.194    22.316006   0.95154157 
   11700    226.34485   -471.53613    131481.91   -40321.193    2816.1603   -43137.353    22.627826   0.94989106 
   11800    220.43337   -601.66036    131428.47   -40376.565    2742.6103   -43119.175    22.854335    0.9502773 
   11900    223.37321   -722.64922       131357   -40376.824    2779.1874   -43156.011    23.006467   0.95079432 
   12000    224.19956   -560.13544    131218.14   -40377.604    2789.4687   -43167.073    23.046308   0.95180049 
   12100    229.39882     -623.545    131058.94   -40341.067    2854.1575   -43195.225    22.989352   0.95295669 
   12200    225.26882   -687.08474    131195.31   -40338.722    2802.7724   -43141.494    23.163584   0.95196611 
   12300    226.58968   -684.56765    131103.82   -40372.507    2819.2064   -43191.713    23.446138   0.95263042 
   12400    227.44016   -741.82617    131142.64   -40354.352     2829.788    -43184.14    23.674535   0.95234844 
   12500     221.0491   -562.94374    131095.77    -40453.44    2750.2711   -43203.711    23.799857   0.95268898 
   12600    223.32422   -633.43854    131170.12   -40360.335    2778.5779   -43138.913     23.87714   0.95214892 
   12700    226.46346   -534.48631    131257.02   -40338.275     2817.636   -43155.911    24.181405   0.95151859 
   12800    226.90431   -553.00038    131430.93   -40304.189    2823.1211    -43127.31    24.270331    0.9502595 
   12900    223.41468    -541.1254    131191.46   -40364.226    2779.7033    -43143.93    24.352699   0.95199403 
   13000     227.8649   -374.96229    131208.43   -40310.581    2835.0725   -43145.653    24.603535   0.95187095 
   13100    229.24604   -763.26626     131140.8   -40319.092    2852.2565   -43171.348    24.851438    0.9523618 
   13200    232.25247    -700.0781    130976.89   -40251.212    2889.6622   -43140.874     24.83038   0.95355368 
   13300    227.30163   -401.86287    130885.45    -40298.24    2828.0644   -43126.304    24.715299   0.95421979 
   13400    220.45335   -543.04175     130650.6   -40366.741    2742.8587   -43109.599     24.95756   0.95593507 
   13500    223.05096   -471.81934    130932.41   -40375.957     2775.178   -43151.135    25.177638   0.95387758 
   13600    227.65492   -531.02846    131033.69   -40396.221      2832.46   -43228.681    25.047185   0.95314032 
   13700    222.16409   -728.47219    130867.86   -40395.417    2764.1436    -43159.56     25.40442   0.95434811 
   13800    228.71003   -428.29711     131012.3   -40308.731    2845.5876   -43154.319    25.475921    0.9532959 
   13900    228.82732   -507.24228    131158.47   -40350.898    2847.0468   -43197.945    25.630207   0.95223352 
   14000    222.68183   -554.92967    131245.89   -40333.981    2770.5853   -43104.567    25.993803   0.95159928 
   14100     222.1205   -684.63894    131321.38    -40344.18    2763.6013   -43107.782    26.317579   0.95105221 
   14200    225.29965   -690.50402    131239.05   -40402.823    2803.1559   -43205.979    26.617584   0.95164887 
   14300    223.52866   -646.31725    131000.31    -40445.96    2781.1215   -43227.082    26.641499   0.95338316 
   14400    224.36934   -614.40723    130963.27   -40419.862    2791.5812   -43211.443    26.787257   0.95365284 
   14500    223.89476   -644.31513    130871.78   -40355.958    2785.6765   -43141.634    26.736142   0.95431953 
   14600    227.28761   -430.94175    131120.15   -40364.224      2827.89   -43192.114    27.003366   0.95251178 
   14700    220.52256   -739.92097    131279.79   -40397.187    2743.7199   -43140.907    27.065694   0.95135352 
   14800     224.0599   -577.93964    131071.32    -40432.95    2787.7311   -43220.681    27.047778   0.95286664 
   14900    219.56324   -716.39878    131089.37   -40497.752    2731.7842   -43229.536    27.196613   0.95273544 
   15000    221.25779   -669.74285    131054.81   -40485.848    2752.8676   -43238.715    27.373863   0.95298674 
   15100     223.9835   -579.47469    131436.67   -40514.747    2786.7806   -43301.528     27.45904   0.95021804 
   15200    219.70744   -564.42397     131309.9   -40441.357    2733.5782   -43174.935    27.436281   0.95113535 
   15300    223.32133   -648.44532    131300.29   -40446.386    2778.5419   -43224.928    27.650189   0.95120499 
   15400    221.27583   -542.31536    131366.82   -40436.261     2753.092   -43189.353    27.806466   0.95072326 
   15500    223.70027   -584.40026    131387.93   -40406.187    2783.2567   -43189.444    27.942232   0.95057054 
   15600    222.98365   -465.28053    131303.66   -40339.806    2774.3406   -43114.147    28.033396   0.95118061 
   15700      223.921   -751.84118    131405.02   -40429.252    2786.0029   -43215.255    28.185732   0.95044688 
   15800    222.36907    -728.4789    131465.73   -40436.489     2766.694   -43203.183    28.263919     0.950008 
   15900    221.52276   -703.80187    131286.69   -40482.586    2756.1643    -43238.75    28.600458   0.95130356 
   16000    221.67364   -555.68714     131372.5   -40425.175    2758.0415   -43183.217    28.711289   0.95068214 
   16100    228.70242   -550.75877    131474.39   -40368.747    2845.4929    -43214.24    28.820199   0.94994538 
   16200    221.42931    -518.7705    131557.16   -40411.833    2755.0016   -43166.835    28.912127   0.94934776 
   16300    224.74663    -402.5954    131576.89   -40437.801    2796.2754   -43234.076    28.926056    0.9492054 
   16400    230.55039   -527.12592     131825.2   -40330.392    2868.4852   -43198.878    29.153415    0.9474174 
   16500    227.90133   -601.55478    131900.09   -40339.794    2835.5258   -43175.319    29.522367    0.9468795 
   16600    231.48704   -503.69489    131746.11   -40348.003    2880.1389   -43228.142    29.660131   0.94798618 
   16700    224.95113   -498.85928    131831.98     -40399.5    2798.8198   -43198.319    29.712507   0.94736866 
   16800    226.82497   -674.54802     131986.8   -40400.929    2822.1339   -43223.063     29.87667   0.94625744 
   16900    224.02778   -666.44632    132073.63   -40392.564    2787.3315   -43179.896    30.144774   0.94563535 
   17000    225.21478   -578.68106     132072.8   -40413.858    2802.1001   -43215.958     30.41137   0.94564125 
   17100    230.85275   -536.54565    132057.84    -40347.22    2872.2471   -43219.467     30.15941    0.9457484 
   17200      230.119   -371.63002    132152.18   -40363.676    2863.1179   -43226.793    30.328889   0.94507326 
   17300    223.14058   -546.76043    132173.01   -40426.205     2776.293   -43202.498    30.426451   0.94492429 
   17400    223.38538   -495.68954    132182.84   -40446.408    2779.3389   -43225.747    30.498136   0.94485402 
   17500    223.12746   -761.33127    132170.18   -40438.597    2776.1297   -43214.726    30.771012   0.94494458 
   17600    230.06367   -579.97859    132205.82   -40418.128    2862.4294   -43280.557    30.784083   0.94468982 
   17700    226.37788   -484.38291    132349.52   -40453.215    2816.5711   -43269.786    30.921371   0.94366411 
   17800    224.98902   -710.67107    132266.33   -40463.174    2799.2911   -43262.465    30.819478   0.94425765 
   17900    232.73459   -491.97329     132239.8   -40429.038    2895.6608   -43324.699    31.235753   0.94444709 
   18000    228.76163   -682.49194     132176.4   -40391.383    2846.2296   -43237.613    31.413719   0.94490011 
   18100     224.9398   -754.22498    132136.69   -40491.847    2798.6787   -43290.526    31.076498   0.94518407 
   18200     232.1625    -466.3632    132030.71   -40489.412    2888.5429   -43377.955    31.263251   0.94594271 
   18300    227.93612   -636.14282    132051.93   -40401.173    2835.9587   -43237.132    31.459891   0.94579069 
   18400    224.73716   -593.37788    132082.46   -40466.248    2796.1575   -43262.406    31.653502   0.94557212 
   18500    225.46762    -435.6975    132101.19   -40431.717    2805.2459   -43236.963    31.773854   0.94543806 
   18600    224.81146   -610.45962    132247.65   -40481.473     2797.082   -43278.555    31.933628   0.94439103 
   18700    227.04532   -672.87703    132275.01   -40440.533    2824.8755   -43265.408      32.1365   0.94419564 
   18800    225.32665   -583.91329    132224.18   -40408.267    2803.4919   -43211.759    32.306899   0.94455861 
   18900    228.46266    -705.5891    132139.36   -40451.026    2842.5098   -43293.536    32.510454   0.94516493 
   19000    226.33473   -825.26798    132030.48   -40421.181    2816.0343   -43237.215    32.532834   0.94594442 
   19100    225.03015   -670.76595    132047.19   -40479.804    2799.8029   -43279.607    32.774813   0.94582471 
   19200    222.94065   -537.85337    131918.09   -40457.798    2773.8055   -43231.603    32.782287   0.94675033 
   19300    224.43494    -639.3383    131980.61   -40388.436    2792.3973   -43180.833    32.903559   0.94630184 
   19400    227.43421   -515.68967     131973.5   -40400.391    2829.7139   -43230.105    32.918098   0.94635278 
   19500    229.35388   -627.63995    132021.68   -40397.437    2853.5983   -43251.035    33.168852   0.94600745 
   19600    225.21387   -589.50249    131899.33   -40440.476    2802.0887   -43242.565    33.192875   0.94688493 
   19700    229.21337   -532.71811    131830.29   -40415.359    2851.8501   -43267.209     33.51563   0.94738082 
   19800    227.64971   -465.40015     131770.2   -40454.544    2832.3951   -43286.939    33.481467   0.94781287 
   19900    226.78663   -483.11473    132099.62   -40450.775    2821.6569   -43272.432    33.654526   0.94544926 
   20000    224.40593   -700.05144    132301.88   -40500.218    2792.0364   -43292.254    33.786687   0.94400389 
   20100     229.1982    -748.5373    132153.62   -40459.364    2851.6613   -43311.026    33.958356   0.94506294 
   20200    227.95925   -491.03947    132030.56   -40506.711    2836.2465   -43342.957    34.003484   0.94594384 
   20300    219.59232   -467.02329    131958.28   -40547.351     2732.146   -43279.497    33.991027   0.94646196 
   20400    221.92798   -631.64434    132095.73   -40549.796     2761.206   -43311.002    33.969988   0.94547712 
   20500    226.07825   -566.85822     132093.7   -40521.206    2812.8433   -43334.049    34.068557   0.94549163 
   20600     225.4685   -641.13353    132274.99   -40576.552    2805.2568   -43381.808    34.297361   0.94419581 
   20700    227.02909   -503.72041    132373.77   -40529.238    2824.6735   -43353.911    34.393546   0.94349121 
   20800    225.42996    -404.5348    132483.68   -40539.493    2804.7773    -43344.27    34.600854   0.94270848 
   20900     223.6157   -730.95958    132526.18   -40594.699    2782.2045   -43376.904    34.811714   0.94240621 
   21000    223.01929   -520.55859       132534    -40695.64    2774.7839   -43470.424    34.812565   0.94235057 
   21100     218.2788   -800.87065    132593.42   -40710.831    2715.8032   -43426.634    35.030381   0.94192826 
   21200    222.61083   -658.86515    132723.05   -40679.994    2769.7019   -43449.696    35.180864    0.9410083 
   21300    220.66916   -480.03554    132636.26   -40691.398    2745.5439   -43436.942    35.281906   0.94162405 
   21400    221.73627   -572.32882    132833.57   -40650.022    2758.8207   -43408.843    35.508401   0.94022533 
   21500    223.91491   -700.96989     132923.9   -40639.249    2785.9271   -43425.177    35.688685   0.93958644 
   21600     231.9062    -500.4823     133049.5   -40586.216    2885.3541    -43471.57    35.805912   0.93869943 
   21700     224.8892   -582.82691    133157.44   -40559.071    2798.0492    -43357.12    35.784354   0.93793851 
   21800    227.86324   -441.70063    132991.45   -40554.561    2835.0519   -43389.613    35.999219   0.93910919 
   21900     225.6477   -763.96918    133037.48   -40572.532    2807.4863   -43380.018     36.09685   0.93878426 
   22000    224.54727   -471.59918    132972.75   -40613.995    2793.7949    -43407.79    36.268474   0.93924125 
   22100    225.31891   -580.99258    133119.68   -40554.586    2803.3956   -43357.981    36.135012   0.93820455 
   22200    223.83104    -534.5153    133078.83   -40597.018    2784.8837   -43381.901    36.072269   0.93849252 
   22300    228.86774   -612.27357    133114.79   -40577.951    2847.5498   -43425.501    36.060395   0.93823903 
   22400    227.26736   -517.92915    133112.41   -40546.169     2827.638   -43373.807    36.326371   0.93825583 
   22500    228.01225   -646.84382    133047.98   -40555.467    2836.9058   -43392.373    36.563297   0.93871015 
   22600    227.38329   -567.64013    133147.53   -40522.429    2829.0804   -43351.509    36.645024    0.9380083 
   22700    225.28352   -652.03996    133113.05   -40539.801    2802.9552   -43342.756    36.674495    0.9382513 
   22800    229.41631   -586.99391     133181.9   -40502.424    2854.3751   -43356.799    36.659204   0.93776627 
   22900     224.7229   -523.99813    133227.59   -40543.254    2795.9801   -43339.235    36.729098   0.93744464 
   23000    223.38578   -571.17235    133155.94   -40518.513    2779.3437   -43297.857    36.812457   0.93794905 
   23100    223.43597   -681.86159    132956.66   -40635.665    2779.9682   -43415.634    36.957828   0.93935492 
   23200    224.18354    -711.6332    132905.26   -40577.934    2789.2695   -43367.203    37.099982   0.93971822 
   23300     219.3236    -518.1236    132852.31   -40629.177    2728.8026    -43357.98    36.948605   0.94009276 
   23400    229.09984    -586.7395    132925.35    -40551.61    2850.4376   -43402.048    37.127093   0.93957618 
   23500    227.80052   -598.56131    132713.09   -40593.643    2834.2715   -43427.915    37.001481   0.94107892 
   23600    223.16305    -640.3383    132562.79   -40552.721    2776.5726   -43329.294    37.116452    0.9421459 
   23700    225.62813    -589.1792     132672.6   -40599.916    2807.2428   -43407.159    37.038519   0.94136612 
   23800    223.41987   -565.77313    132612.93   -40658.078     2779.768   -43437.846    37.279023   0.94178969 
   23900    221.80612   -693.11332     132794.6   -40667.739    2759.6898   -43427.429    37.774939   0.94050127 
   24000    223.40813    -505.9125    132833.52    -40604.78    2779.6219   -43384.402     37.69649   0.94022574 
   24100    223.46021   -649.55801    132923.59   -40608.939    2780.2699   -43389.209    37.932987   0.93958858 
   24200    224.92705   -636.02813    132721.98   -40668.024    2798.5201   -43466.544    38.038594   0.94101588 
   24300    226.13211   -564.13171    132673.92   -40644.312    2813.5134   -43457.826    38.084403   0.94135674 
   24400    218.70346   -668.38633    132670.86    -40687.75    2721.0868   -43408.837    38.289113   0.94137847 
   24500    221.99293   -708.45181    132564.85   -40635.241    2762.0141   -43397.255    38.384239   0.94213129 
   24600    222.89711   -426.88804    132500.21   -40608.459    2773.2638   -43381.723    38.389069   0.94259092 
   24700    220.44828   -745.00185    132488.26   -40634.885    2742.7957    -43377.68    38.461064    0.9426759 
   24800    221.20876   -564.99221     132669.5   -40632.552    2752.2575   -43384.809    38.458062   0.94138815 
   24900    222.20516     -635.911    132735.42   -40585.826    2764.6546   -43350.481    38.606821    0.9409206 
   25000    226.06445    -633.3776    132633.09   -40560.063    2812.6715   -43372.734    38.586972   0.94164652 
   25100    222.76458   -572.29404    132291.27   -40577.662    2771.6149   -43349.277    38.777198   0.94407959 
   25200    228.91749   -530.18277    132287.34   -40614.669    2848.1688   -43462.838    38.786269   0.94410767 
   25300    225.43139   -551.43873    132389.19   -40616.153    2804.7951   -43420.948     38.91624   0.94338137 
   25400    222.74013   -457.40694    132596.25   -40592.361    2771.3107   -43363.672    39.167276   0.94190817 
   25500    227.26813   -771.45832       132562    -40545.08    2827.6476   -43372.728    39.248402   0.94215156 
   25600    225.24952   -666.35853    132252.29   -40631.505    2802.5323   -43434.038    39.290907   0.94435785 
   25700    224.67228     -548.627    132496.95   -40643.537    2795.3504   -43438.888     39.54711   0.94261409 
   25800    224.35066   -624.96525    132679.61    -40624.05    2791.3487   -43415.399    39.574559   0.94131639 
   25900    226.15045   -598.94537    132902.69    -40572.06    2813.7415   -43385.801    39.849902   0.93973637 
   26000    228.61193   -639.56555    132634.77   -40517.944     2844.367   -43362.311    39.900116   0.94163461 
   26100    225.01548   -579.83393    132581.46   -40606.913    2799.6204   -43406.533    39.841628   0.94201327 
   26200      221.473   -604.88403    132554.68   -40605.431    2755.5452   -43360.976     39.72748   0.94220353 
   26300     227.9262   -622.67982    132407.15   -40574.293    2835.8352   -43410.129    39.825754   0.94325338 
   26400    225.91312   -702.46752    132480.77   -40559.751    2810.7887    -43370.54    39.951949   0.94272919 
   26500    225.94426   -757.16496    132493.34   -40613.619    2811.1761   -43424.795    40.201747   0.94263979 
   26600    221.60656   -766.54118    132373.56   -40659.749    2757.2069   -43416.956    40.220593   0.94349274 
   26700    225.22653   -675.36207    132442.85   -40679.113    2802.2462   -43481.359    40.563184   0.94299913 
   26800    222.98855   -718.68748    132497.17    -40601.07    2774.4015   -43375.471    40.737061   0.94261252 
   26900    227.51721   -552.74591    132626.05   -40613.147    2830.7467   -43443.893    40.865428   0.94169652 
   27000    224.50408   -646.12861    132740.15   -40664.559    2793.2576   -43457.817     40.70179   0.94088707 
   27100    222.19414   -609.45477    132576.02   -40676.131    2764.5175   -43440.649    40.786642   0.94205189 
   27200    218.64285   -683.26081    132364.47    -40688.19    2720.3327   -43408.522    40.733349    0.9435575 
   27300    219.66349   -668.75612       132320   -40714.267    2733.0314   -43447.298    40.682976    0.9438746 
   27400    226.49685   -548.36646    132265.37   -40653.381    2818.0514   -43471.432    40.923956   0.94426446 
   27500    224.22902   -638.71184    132362.38    -40581.54    2789.8353   -43371.375    40.944561   0.94357243 
   27600    227.93633   -504.81373    132423.33   -40616.263    2835.9613   -43452.225    41.123675   0.94313815 
   27700    225.66559   -580.01812    132319.58   -40627.101    2807.7089    -43434.81    41.191404   0.94387761 
   27800    229.36683   -709.41072    132228.58   -40566.145    2853.7594   -43419.905    41.370434   0.94452721 
   27900    226.29716    -462.1612    132239.39   -40579.298    2815.5669   -43394.865    41.644532   0.94444998 
   28000    227.55191   -447.77209    132321.74   -40600.041    2831.1784    -43431.22    41.739204   0.94386225 
   28100    224.67058   -569.81806    132558.73    -40583.16    2795.3291   -43378.489    41.844841   0.94217479 
   28200     219.3958   -636.38863    132508.84   -40636.631    2729.7009   -43366.332    42.080487    0.9425295 
   28300      222.324   -573.63591    132384.95   -40620.557    2766.1332   -43386.691    41.849904   0.94341156 
   28400    224.11146    -550.1447    132234.21    -40647.84    2788.3727   -43436.212    41.868226   0.94448703 
   28500    221.27808   -617.37336    132270.23   -40666.247      2753.12   -43419.367    42.115855   0.94422981 
   28600    221.22432   -441.37506    132482.71   -40614.569    2752.4511    -43367.02    42.331371   0.94271538 
   28700    224.25053   -732.11705    132732.35   -40624.074    2790.1029   -43414.176    42.651648   0.94094238 
   28800    226.16009   -551.75001     132634.1   -40595.318    2813.8615    -43409.18    42.747242   0.94163936 
   28900    227.05596   -730.88422    132724.56   -40570.754    2825.0079   -43395.762    43.006552    0.9409976 
   29000    227.57119   -561.49688    132879.59   -40657.935    2831.4182   -43489.354    42.812562   0.93989971 
   29100    226.11953   -644.80367    132729.06   -40617.116    2813.3569   -43430.473    42.707499   0.94096568 
   29200    227.91869   -564.37714    132957.82   -40594.336    2835.7418   -43430.078     43.07537   0.93934672 
   29300    223.74388   -695.79054    132964.96   -40673.752    2783.7993   -43457.551    43.041797   0.93929626 
   29400    224.45928   -457.63357    132937.35    -40728.09    2792.7002    -43520.79    43.158603   0.93949133 
   29500    221.43579   -530.35028    133051.05   -40761.117    2755.0822     -43516.2    43.294948    0.9386885 
   29600    226.31847   -546.80855    132961.34   -40684.338    2815.8321    -43500.17    43.551438   0.93932184 
   29700    223.01805   -569.78157    132852.75   -40728.364    2774.7685   -43503.132    43.522769   0.94008964 
   29800    220.96821   -647.58655    132831.72   -40707.731    2749.2646   -43456.995    43.537719   0.94023849 
   29900    224.18858    -684.6176    132701.93   -40729.277    2789.3322   -43518.609    43.467329   0.94115807 
   30000    223.68044   -474.78171    132823.52   -40697.582    2783.0099   -43480.592    43.659004    0.9402965 
   30100    228.57078   -418.31622    132997.39   -40693.868    2843.8551   -43537.723    43.919556    0.9390672 
   30200     225.5903   -617.78872    132941.18   -40713.161    2806.7723   -43519.933    43.923429   0.93946427 
   30300    222.63893   -499.75421    132872.83    -40680.55    2770.0516   -43450.602    44.140242   0.93994752 
   30400    224.26519   -407.68638    132886.68   -40654.516    2790.2854   -43444.801    44.019468    0.9398496 
   30500    226.21919    -703.7616    132740.06   -40641.561    2814.5968   -43456.157     43.97254   0.94088768 
   30600    226.45382   -651.76785    132765.06    -40641.93    2817.5161   -43459.446    44.180808   0.94071053 
   30700    225.51886   -593.41763    132800.86   -40669.797    2805.8834   -43475.681    44.503293   0.94045693 
   30800    222.95527   -537.54591    132648.73     -40608.1    2773.9874   -43382.087    44.515208   0.94153554 
   30900     225.0195    -522.8755    132846.46   -40713.881    2799.6703   -43513.551    44.689874   0.94013413 
   31000    225.57006   -584.98171     132811.9   -40748.694    2806.5203   -43555.215    44.648846    0.9403788 
   31100    221.30003   -652.60383    133000.13   -40742.282    2753.3931   -43495.675    44.700066   0.93904789 
   31200    222.01045   -488.12411    133072.28   -40747.527    2762.2321   -43509.759    44.931732   0.93853878 
   31300    221.01566   -592.96821    133041.36    -40707.02     2749.855   -43456.875    44.715455   0.93875684 
   31400    227.26436   -787.74443    133122.95   -40677.307    2827.6007   -43504.907    44.763604   0.93818151 
   31500    221.98996   -565.00291    133079.13   -40749.781    2761.9772   -43511.758    44.914897   0.93849045 
   31600    229.23389   -444.13398    132993.92   -40699.546    2852.1053   -43551.651    45.010625   0.93909174 
   31700    222.50048   -548.86392    133015.76   -40727.954     2768.329   -43496.283    45.159098   0.93893752 
   31800    229.15772   -613.39621    132868.94   -40673.814    2851.1577   -43524.972    45.302686   0.93997507 
   31900    223.61428   -598.06806    132839.64   -40668.516    2782.1868   -43450.703    45.151843   0.94018241 
   32000    231.21795   -462.61492    132845.54   -40665.939    2876.7909    -43542.73    45.075973   0.94014063 
   32100    223.74061   -502.66842    132925.81   -40675.955    2783.7586   -43459.713    45.060211   0.93957294 
   32200    228.02903   -616.85795    132808.46   -40672.876    2837.1146    -43509.99    45.103719   0.94040316 
   32300    227.39016    -694.9506    132802.33   -40663.957    2829.1659   -43493.123    44.963882   0.94044654 
   32400    226.06079   -530.77493    132810.95   -40713.427     2812.626   -43526.053     45.11079   0.94038553 
   32500    223.07853   -739.78388     132975.7   -40713.301    2775.5211   -43488.822    45.574867   0.93922043 
   32600    225.15296   -670.36337    132763.68   -40648.367    2801.3309   -43449.698     45.55959   0.94072035 
   32700    223.23021   -659.15725    132818.51   -40725.198    2777.4082   -43502.606    45.382574   0.94033198 
   32800    223.52411   -574.15504    132822.15   -40744.452    2781.0649   -43525.517    45.405394   0.94030623 
   32900    223.73926   -479.59755     133017.6   -40728.373    2783.7417   -43512.115    45.449496   0.93892458 
   33000    222.63584   -596.64712    132784.01   -40784.514    2770.0132   -43554.527    45.473339    0.9405763 
   33100    226.19739   -654.08935    132725.78   -40706.351    2814.3256   -43520.676    45.867045   0.94098893 
   33200    224.07179   -683.63959    132910.49   -40733.955    2787.8791   -43521.834    45.958043   0.93968122 
   33300    224.74904   -455.41393    132819.47   -40661.033    2796.3053   -43457.338    46.181858   0.94032514 
   33400    221.17717   -770.04807    132730.86   -40756.781    2751.8645   -43508.645    46.256718    0.9409529 
   33500    223.28491   -722.18723    132732.63   -40721.941    2778.0888    -43500.03    46.287927   0.94094038 
   33600    225.45263   -607.48072    132668.74   -40687.124    2805.0593   -43492.183     46.28028   0.94139352 
   33700    224.64348   -583.55786    132882.04   -40668.244     2794.992   -43463.236    46.392976   0.93988239 
   33800    223.53926   -575.87733     132897.6   -40672.842    2781.2534   -43454.096    46.320512   0.93977239 
   33900    220.95847   -466.20177    133000.52   -40688.934    2749.1434   -43438.077    46.330696   0.93904514 
   34000    230.81528   -450.68731    133185.91   -40652.687    2871.7808   -43524.468    46.481326   0.93773804 
   34100    224.57171   -708.16727       133143   -40700.864     2794.099   -43494.963    46.718473   0.93804025 
   34200    222.42746   -714.53694     132886.9   -40711.766    2767.4204   -43479.186    46.659301     0.939848 
   34300    221.56988   -569.41745     132820.6   -40754.377    2756.7506   -43511.127    46.608485   0.94031716 
   34400    222.44408   -543.58246    132902.57   -40668.623    2767.6272    -43436.25     46.70506   0.93973723 
   34500    225.52331   -677.62063    132860.58   -40695.578    2805.9388   -43501.517    46.659611   0.94003421 
   34600    221.96826   -517.06377    133004.51   -40692.303    2761.7072    -43454.01    46.617177   0.93901698 
   34700     223.7445   -538.15006    133073.58   -40780.369    2783.8069   -43564.176    46.684831   0.93852956 
   34800    221.99946   -504.38595    133088.83   -40760.903    2762.0954   -43522.999    47.044424   0.93842206 
   34900    222.26495   -518.94355     133037.4   -40775.705    2765.3986   -43541.103     47.17898   0.93878483 
   35000    220.63969   -688.00073    133131.95   -40836.999    2745.1772   -43582.176    47.371908   0.93811809 
   35100    221.42795   -556.62323    133125.52   -40767.322    2754.9847   -43522.306    47.216596    0.9381634 
   35200    221.83982   -504.82383    133110.11   -40767.671    2760.1092    -43527.78    47.522875   0.93827198 
   35300    224.20705    -615.5605    133069.42   -40756.625     2789.562   -43546.187     47.50979    0.9385589 
   35400    222.11268   -594.71253    132957.23   -40771.511    2763.5041   -43535.015    47.653213   0.93935091 
   35500    229.63555    -567.9986    132941.07   -40669.269    2857.1029   -43526.372    47.814625   0.93946507 
   35600    222.98413   -500.44471    132993.11   -40724.886    2774.3465   -43499.233    48.021908   0.93909742 
   35700    225.38492   -485.56225    133128.84   -40680.835    2804.2168   -43485.052     48.25643   0.93814003 
   35800    223.59169   -488.24336    133154.78   -40713.514    2781.9057    -43495.42    48.111642   0.93795723 
   35900    227.87947   -603.51043    133247.22   -40663.362    2835.2538   -43498.616    48.287677   0.93730653 
   36000    226.94868   -632.97988    133162.96   -40624.139     2823.673   -43447.812     48.36401   0.93789962 
   36100    226.68346   -436.41045    133084.03   -40627.081    2820.3732   -43447.454    48.404744   0.93845587 
   36200    225.45233   -405.65264    133349.95   -40653.617    2805.0556   -43458.673    48.564583   0.93658449 
   36300    224.67539   -683.23385     133468.4   -40705.342     2795.389   -43500.731    48.679211   0.93575328 
   36400    230.85694   -497.18587    133591.38   -40647.521    2872.2992    -43519.82    48.885909   0.93489185 
   36500    224.86953   -540.74134    133613.97    -40641.92    2797.8044   -43439.725    48.937222   0.93473377 
   36600    224.25131    -630.7391    133591.36   -40792.245    2790.1126   -43582.358    48.711158   0.93489202 
   36700    224.01156   -575.31801    133735.28   -40745.142    2787.1296   -43532.272    48.964578   0.93388587 
   36800    225.39242   -784.58327    133622.53   -40734.812    2804.3103   -43539.123    48.985212   0.93467393 
   36900    221.66924   -627.82177    133455.52   -40775.728    2757.9867   -43533.714    48.988154   0.93584358 
   37000    225.00949   -622.46277    133335.85   -40723.795    2799.5458   -43523.341    49.040875   0.93668351 
   37100    223.58287   -632.45325    133323.96   -40693.103    2781.7959   -43474.898    49.393964   0.93676702 
   37200    226.92813    -386.3149       133173    -40748.15    2823.4174   -43571.567    49.077673   0.93782891 
   37300    222.32344   -704.77804    132991.68   -40759.318    2766.1262   -43525.445    48.888469   0.93910755 
   37400    223.08629   -443.63924    133033.17   -40776.284    2775.6176   -43551.901    48.789976   0.93881466 
   37500    222.91533   -586.30515    132994.86   -40777.809    2773.4905   -43551.299    49.146109    0.9390851 
   37600    223.61108   -589.76778    133131.34   -40706.477     2782.147   -43488.624    49.306559   0.93812239 
   37700      224.743   -668.46496    132950.75    -40705.87    2796.2302     -43502.1    49.523621   0.93939668 
   37800    223.37806   -572.37358    132993.15   -40784.625    2779.2477   -43563.873    49.480149   0.93909714 
   37900    224.51045   -547.74542    133005.55    -40757.65    2793.3368   -43550.987    49.464948    0.9390096 
   38000    222.01111   -582.90208    133072.39   -40747.717    2762.2403   -43509.957    49.548574   0.93853795 
   38100    226.45692   -671.20159    133037.62   -40690.305    2817.5546   -43507.859    49.551577   0.93878329 
   38200    226.77262   -584.85287    133079.48   -40702.726    2821.4826   -43524.209    49.864713   0.93848797 
   38300    226.04229   -629.36205    133027.53   -40647.112    2812.3958   -43459.508    49.734149   0.93885449 
   38400     226.1641   -704.05707    133028.79   -40711.411    2813.9114   -43525.322    50.070161   0.93884556 
   38500    223.54364   -617.96475    132925.03   -40739.545    2781.3079   -43520.853     50.05803   0.93957843 
   38600    228.82878   -502.72422    132881.47   -40696.292     2847.065   -43543.357    50.269503   0.93988641 
   38700    225.94306   -553.09477     132946.4   -40702.523    2811.1612   -43513.684     50.57002   0.93942739 
   38800    222.99634   -465.79854    133067.37   -40730.302    2774.4985     -43504.8    50.486443   0.93857337 
   38900    227.16623   -568.56062    133084.79   -40674.016    2826.3798   -43500.396    50.668851   0.93845053 
   39000    221.16617   -666.33412    133078.61   -40725.796    2751.7276   -43477.523    50.787104   0.93849408 
   39100    226.18216   -491.58725    132915.96   -40680.949    2814.1361   -43495.085    50.500486   0.93964253 
   39200     223.1535   -661.81559    133092.99   -40701.945    2776.4538   -43478.398    50.733783   0.93839269 
   39300    225.56998   -800.47118    132979.11    -40694.75    2806.5194   -43501.269    50.749342   0.93919632 
   39400    223.13412   -730.65701    132897.44   -40654.615    2776.2127   -43430.827    50.861869   0.93977352 
   39500    222.74055   -464.40731    132876.09   -40637.392    2771.3159   -43408.708    51.036708   0.93992451 
   39600    229.98232    -689.9376    132823.55   -40675.085    2861.4172   -43536.503    51.230007    0.9402963 
   39700    227.73604   -609.55469    132742.84   -40619.402    2833.4693   -43452.872    51.314218   0.94086803 
   39800    222.88232   -623.35186    132749.03   -40680.826    2773.0798   -43453.906    51.343735   0.94082413 
   39900    226.65089   -534.52541    132720.53   -40731.635    2819.9679   -43551.603    51.326093   0.94102616 
   40000    223.55719   -727.56464    132641.35   -40754.315    2781.4765   -43535.792    51.255101   0.94158794 
   40100    229.65681   -622.36302     132538.8   -40669.165    2857.3674   -43526.533    51.321768   0.94231643 
   40200    225.82293    -596.3561    132805.41   -40694.205    2809.6666   -43503.872    51.489583    0.9404247 
   40300    227.19056   -603.83348    132764.62   -40673.251    2826.6825   -43499.933    51.699443   0.94071367 
   40400    230.80435   -579.64515    132775.95   -40597.203    2871.6449   -43468.848    51.958202   0.94063342 
   40500    228.37236   -544.17681    132605.56     -40616.3    2841.3863   -43457.686    51.941213   0.94184204 
   40600    226.19261   -596.80206    132849.92   -40650.852    2814.2661   -43465.118    51.870443   0.94010964 
   40700     221.4886   -610.81197    133052.63    -40694.67    2755.7393    -43450.41    52.125303   0.93867736 
   40800    223.02466   -571.43111    132892.23   -40747.955    2774.8508   -43522.806    52.173438   0.93981032 
   40900    226.67236   -582.50776    132878.89   -40756.299    2820.2351   -43576.534    52.289073   0.93990467 
   41000    225.81025   -672.25331    133040.63   -40671.951    2809.5088    -43481.46    52.373056     0.938762 
   41100    229.35782   -529.99099     132984.5   -40662.112    2853.6473   -43515.759    52.461911   0.93915826 
   41200    225.81374   -560.22406    133153.11   -40685.377    2809.5522    -43494.93    52.641698     0.937969 
   41300    220.71115   -828.57788    133172.58   -40834.242    2746.0664   -43580.309    52.777781   0.93783191 
   41400    223.67888   -556.05467    133124.98   -40790.861    2782.9905   -43573.851    52.998532   0.93816722 
   41500    224.90353   -742.78012    133164.79   -40783.679    2798.2275   -43581.907    52.956897   0.93788674 
   41600    221.66462    -510.9797    133148.16   -40741.004    2757.9293   -43498.933    52.887215   0.93800389 
   41700    222.27214   -642.05509    133128.12   -40714.132     2765.488    -43479.62    52.828548    0.9381451 
   41800    222.32851   -670.46327    133100.84   -40721.588    2766.1893   -43487.777     53.12169   0.93833739 
   41900    221.98754   -499.60782    133003.98   -40699.034     2761.947   -43460.981     53.22425   0.93902071 
   42000    228.11233   -624.67402    133148.54   -40681.524    2838.1511   -43519.675    53.601825   0.93800121 
   42100    221.61714    -347.5926     133109.3   -40672.306    2757.3385   -43429.644     53.64787   0.93827769 
   42200    226.38903   -509.52408    133192.93   -40635.016    2816.7099   -43451.726    53.693749   0.93768861 
   42300    225.57259   -504.22159    133408.21   -40608.837    2806.5519   -43415.389    53.775382   0.93617548 
   42400    226.08022   -521.57105    133424.92   -40639.653    2812.8677   -43452.521    53.981227   0.93605819 
   42500    227.76579   -502.58062    133408.96   -40634.031    2833.8395   -43467.871    53.989174   0.93617016 
   42600    230.20716   -594.88007    133277.35   -40652.487    2864.2147   -43516.702    53.898917   0.93709464 
   42700    227.60218   -569.65699    133360.11   -40677.007    2831.8038    -43508.81    53.827016   0.93651309 
   42800    225.53666   -673.79424    133242.26   -40631.349    2806.1049   -43437.454    53.748638    0.9373414 
   42900     223.1985   -624.85581    133330.74   -40708.239    2777.0136   -43485.253    54.019781   0.93671937 
   43000    220.13154   -646.09149    133162.27   -40730.637    2738.8549   -43469.492    54.103727    0.9379045 
   43100    225.45773   -558.00815    133095.85    -40701.45    2805.1228   -43506.573    54.365291   0.93837258 
   43200    225.40397   -582.68269    133159.81   -40656.783    2804.4539   -43461.237    54.345171   0.93792185 
   43300     225.6368   -373.45479    132977.13   -40666.932    2807.3508   -43474.283     54.36983   0.93921029 
   43400    225.16536   -714.44621    133007.18   -40627.691    2801.4852   -43429.176    54.412948    0.9389981 
   43500     226.9545   -600.93725    132977.74   -40628.364    2823.7454    -43452.11    54.342355   0.93920597 
   43600    226.26318   -555.49778     133018.4   -40521.983    2815.1441   -43337.127    54.530973    0.9389189 
   43700    230.19068   -610.23233     133041.6   -40557.256    2864.0097   -43421.265    54.584929    0.9387552 
   43800    229.87808    -513.6051       133276    -40550.84    2860.1203    -43410.96       54.722   0.93710417 
   43900    226.64301    -474.1661     133093.6   -40608.863      2819.87   -43428.733    54.922663    0.9383884 
   44000    225.00059   -687.08069    133064.87   -40639.086    2799.4351   -43438.521     55.00967   0.93859104 
   44100    224.72615   -525.42256     133128.2   -40640.719    2796.0205    -43436.74    55.116779   0.93814449 
   44200    223.22594   -532.64982     132931.8   -40684.443    2777.3551   -43461.798    54.942336   0.93953061 
   44300    220.71761   -579.10047    133124.69   -40691.345    2746.1467   -43437.492    55.184197   0.93816928 
   44400    225.40226   -625.03946    133191.38   -40651.419    2804.4326   -43455.852    55.312141    0.9376995 
   44500    224.07454   -599.65399     133308.6   -40685.026    2787.9133    -43472.94    55.380509   0.93687496 
   44600    225.51775   -624.49949    133345.88   -40757.541    2805.8695    -43563.41    55.587654   0.93661301 
   44700    226.00494   -547.62315    133177.39   -40743.545    2811.9312   -43555.476    55.618681     0.937798 
   44800    225.80349   -422.43281    133125.73   -40737.222    2809.4248   -43546.646    55.787625   0.93816196 
   44900    228.46345   -636.40696    133049.55   -40694.612    2842.5196   -43537.132    55.765561   0.93869911 
   45000    230.96996   -502.00958    133255.88   -40709.189    2873.7054   -43582.895    55.782253   0.93724561 
   45100    228.02387   -685.46403    133278.31   -40663.406    2837.0505   -43500.457    55.763879   0.93708792 
   45200    222.39137   -754.13244    133291.28   -40723.905    2766.9714   -43490.876    55.873629    0.9369967 
   45300    226.14745   -525.53301    133180.08   -40722.526    2813.7043    -43536.23    55.835735   0.93777905 
   45400    230.15776   -693.54623     133313.7   -40689.606    2863.6001   -43553.207    55.798765   0.93683911 
   45500    225.53457   -669.08285    133303.35   -40698.808    2806.0789   -43504.887    55.962188    0.9369119 
   45600    230.05086   -363.45585    133306.95   -40687.958    2862.2701   -43550.228    55.936098   0.93688656 
   45700    222.10243   -599.97755    133299.22   -40706.866    2763.3764   -43470.242    55.962812   0.93694089 
   45800    229.15608   -543.09435    133263.14   -40650.443    2851.1373    -43501.58    56.151289    0.9371946 
   45900    224.96965   -756.17057    133085.51   -40586.226    2799.0501   -43385.277    56.275304   0.93844548 
   46000    228.06425      -657.06    133134.42   -40567.335    2837.5529   -43404.888    55.980801   0.93810066 
   46100    230.20584   -566.29887    133204.27   -40533.101    2864.1982     -43397.3    56.219487   0.93760877 
   46200    229.78546   -365.83321     133317.3   -40529.877     2858.968   -43388.845    56.255726   0.93681384 
   46300    231.96472   -531.78611     133505.7   -40534.965    2886.0821   -43421.047    56.569619   0.93549182 
   46400    229.01636   -490.90949    133583.18   -40564.506    2849.3989   -43413.905    56.939155   0.93494923 
   46500    227.23962   -684.04246    133465.25   -40579.231    2827.2929   -43406.524    56.992117   0.93577538 
   46600    233.69696   -553.46141     133354.4   -40583.159    2907.6345   -43490.793    56.932039   0.93655323 
   46700     224.9372   -607.55283    133386.94   -40678.469    2798.6465   -43477.115    56.945702   0.93632471 
   46800    224.59986   -519.74729    133448.53   -40724.716    2794.4492   -43519.165    56.827912   0.93589258 
   46900    224.39259   -624.51168     133454.7   -40656.564    2791.8704   -43448.434    56.840929   0.93584935 
   47000    224.55794   -848.59635    133327.44   -40646.885    2793.9277   -43440.812    56.855809   0.93674262 
   47100     226.2794   -651.07477       133221   -40608.044     2815.346    -43423.39     57.04745     0.937491 
   47200    228.10853   -593.81135    133307.78   -40661.111    2838.1038   -43499.215    57.302264   0.93688073 
   47300    227.34836   -590.07743    133182.78   -40703.579    2828.6458   -43532.225    57.205441   0.93776006 
   47400    228.97745   -687.77966    133324.81   -40664.116    2848.9148    -43513.03    57.439084   0.93676103 
   47500    222.30241   -619.52501    133100.47   -40587.711    2765.8647   -43353.576    57.613759   0.93833996 
   47600    229.87493   -588.12104    132953.28   -40551.751    2860.0812   -43411.832    57.515487   0.93937882 
   47700     230.4099   -577.57913    133151.49   -40595.511    2866.7372   -43462.249    57.583314   0.93798045 
   47800    228.79157   -540.93811    133155.79   -40616.046    2846.6021   -43462.648    57.891558    0.9379501 
   47900    227.73225   -579.82336     133229.4   -40722.191    2833.4222   -43555.613    57.931669   0.93743188 
   48000     221.7208   -486.38013    133313.55   -40740.415    2758.6282   -43499.043    58.214051   0.93684022 
   48100    224.74627   -500.55742    133282.18   -40720.039    2796.2709    -43516.31     58.29514   0.93706069 
   48200    227.55655   -660.68899    133377.72   -40764.596    2831.2361   -43595.832    58.310733   0.93638945 
   48300    221.11615   -497.64318    133183.99   -40753.665    2751.1053    -43504.77    58.284733   0.93775151 
   48400    229.04349   -570.77305    133255.82    -40667.14    2849.7365   -43516.876    58.363995   0.93724605 
   48500    225.87557   -759.01507    133340.73    -40722.56    2810.3215   -43532.882     58.51964   0.93664922 
   48600    226.88839   -660.37524    133098.75   -40725.049    2822.9229   -43547.972    58.388184   0.93835209 
   48700    225.44821   -549.30856    133167.17   -40681.056    2805.0044    -43486.06    58.434229   0.93787001 
   48800     221.3941   -694.29948    133170.43   -40710.897    2754.5635   -43465.461    58.587129   0.93784704 
   48900    222.50823   -587.22769    133018.14   -40705.546    2768.4254   -43473.971    58.446497   0.93892076 
   49000    225.30928   -605.59613    133283.34    -40743.13    2803.2758   -43546.406     58.50674   0.93705256 
   49100    227.64455    -691.9247    133129.27   -40730.591     2832.331   -43562.922    58.387724     0.938137 
   49200    222.37353   -713.86228    133005.25   -40755.435    2766.7495   -43522.184     58.57644   0.93901171 
   49300    221.48402   -552.23054    132921.77   -40698.727    2755.6822   -43454.409    58.807741   0.93960147 
   49400    224.51581   -421.57637    133081.22   -40667.608    2793.4035   -43461.012    58.918387   0.93847572 
   49500    224.31363     -515.491    133042.19   -40674.994     2790.888   -43465.882    58.882442   0.93875099 
   49600    226.06159   -574.64206    133267.46   -40673.947     2812.636   -43486.583    59.186757    0.9371642 
   49700    226.17606   -730.09013    133093.04   -40692.332    2814.0602   -43506.392    59.077296   0.93839234 
   49800    220.60704   -675.77358    133140.42   -40735.957     2744.771   -43480.728    59.099958   0.93805844 
   49900    227.90744   -757.09611    133131.04   -40609.076    2835.6018   -43444.678     59.11193   0.93812448 
   50000    224.69859   -485.86703    133175.94    -40638.48    2795.6776   -43434.158    59.533201   0.93780819 
   50100    230.81771   -495.38278    133136.27   -40650.752    2871.8111   -43522.563    59.477631   0.93808765 
   50200    223.79033   -659.88107    133124.66   -40705.575    2784.3771   -43489.953    59.421098   0.93816949 
   50300    223.37312   -620.69418    133294.34   -40682.854    2779.1863    -43462.04    59.697002   0.93697519 
   50400    221.04671   -696.28391    133130.44   -40697.821    2750.2414   -43448.062     59.63376   0.93812876 
   50500    223.23182   -474.84915    132958.52   -40741.176    2777.4283   -43518.604    59.399135   0.93934174 
   50600    224.96505   -656.02274    132945.42   -40752.189    2798.9929   -43551.182    59.720801   0.93943432 
   50700    219.22673     -500.723    132968.44   -40757.219    2727.5974   -43484.817    59.791048   0.93927171 
   50800    219.44882   -558.49207    133027.94   -40743.947    2730.3606   -43474.308    59.879049   0.93885155 
   50900    223.94983   -626.86078    132946.47   -40641.671    2786.3617   -43428.033    60.118421   0.93942689 
   51000      227.382   -403.82323    132871.86   -40671.619    2829.0644   -43500.683    60.110048    0.9399544 
   51100    223.37076   -673.79556    132934.84    -40704.24    2779.1569   -43483.397    60.391003   0.93950908 
   51200     223.7742   -591.04978    132908.97   -40681.208    2784.1765   -43465.384    60.239257   0.93969198 
   51300    222.19724   -573.31645    133012.02   -40738.708    2764.5561   -43503.264     60.59709   0.93896392 
   51400    220.52461   -490.07935    133079.59   -40742.759    2743.7454   -43486.504    60.706856   0.93848722 
   51500     222.4262   -548.76263    133000.97   -40747.454    2767.4048   -43514.859    60.834952   0.93904195 
   51600    225.71518   -516.61359    133133.62   -40686.115     2808.326   -43494.441    60.851696   0.93810631 
   51700    223.69286   -493.66702    133050.87   -40675.588    2783.1645   -43458.753    60.850748   0.93868977 
   51800     221.6151    -540.1809    132938.93   -40701.768    2757.3131   -43459.081     60.89849    0.9394802 
   51900    216.83032   -755.29503     132941.5   -40737.731    2697.7814   -43435.512    61.337639   0.93946204 
   52000    222.42732   -773.63224    132997.09   -40772.404    2767.4187   -43539.823    61.172135   0.93906935 
   52100    226.98239   -666.53256     132824.1   -40717.361    2824.0925   -43541.453    61.288895   0.94029239 
   52200    222.64337   -554.71234    132797.74   -40747.349    2770.1068   -43517.456    61.331301   0.94047901 
   52300     223.0359   -613.81636    132738.97   -40722.334    2774.9906   -43497.325    61.325176   0.94089544 
   52400    225.40899   -549.24451    132650.45   -40677.855    2804.5163   -43482.372    61.252453   0.94152329 
   52500    227.24875   -456.37372    132691.43   -40685.589    2827.4065   -43512.996    61.292306   0.94123253 
   52600    222.68976   -511.90934    132703.32   -40712.644     2770.684   -43483.328    61.434501   0.94114817 
   52700    220.27499   -605.82113    132817.82   -40740.321    2740.6396    -43480.96    61.468913   0.94033682 
   52800    223.10442    -426.8644    132912.17   -40705.145    2775.8431   -43480.988    61.751369   0.93966931 
   52900    222.86539   -657.90077    132930.93   -40696.402    2772.8691   -43469.271    61.867183   0.93953673 
   53000    225.79962   -651.88016    132805.05   -40677.365    2809.3766   -43486.741    61.862039   0.94042727 
   53100    224.53364   -737.70085    132648.25   -40725.786    2793.6254   -43519.411    61.964027   0.94153894 
   53200    225.19872   -677.83403    132764.83   -40710.497    2801.9002   -43512.397    62.025378   0.94071217 
   53300    227.10124   -600.40237    132834.55    -40701.55    2825.5712   -43527.121    61.898502   0.94021842 
   53400    220.03344   -661.04963    132861.56   -40788.652    2737.6343   -43526.286     61.83151   0.94002731 
   53500    223.37528   -723.20674    132892.33   -40801.775    2779.2132   -43580.989    61.777553   0.93980962 
   53600     222.4041   -695.75996    132724.18    -40815.76    2767.1299    -43582.89    61.781567   0.94100026 
   53700    217.58678   -650.79967    132821.45   -40847.852    2707.1932   -43555.046    62.174595   0.94031114 
   53800    223.76311   -613.12584     132880.1   -40720.294    2784.0385   -43504.332    62.186945    0.9398961 
   53900    221.79735   -607.41393    132903.26   -40768.189    2759.5807    -43527.77    62.590759   0.93973234 
   54000    226.21294     -578.952    132950.68   -40754.047     2814.519   -43568.566    62.589568   0.93939715 
   54100    223.64096   -733.29518    132960.83   -40767.071    2782.5187    -43549.59    62.580322   0.93932548 
   54200    226.50772   -600.75611    132956.87   -40738.149    2818.1867   -43556.335    62.737083   0.93935339 
   54300    223.99555   -661.84256    133046.04   -40693.106    2786.9305   -43480.036    62.933919   0.93872386 
   54400    222.60269    -715.3967    133085.84   -40714.994    2769.6006   -43484.594    63.017685   0.93844315 
   54500    223.00207   -780.05413    133061.47   -40707.899    2774.5697   -43482.469    62.880221     0.938615 
   54600    229.16039   -546.13109     133148.5   -40604.079     2851.191    -43455.27    63.016258   0.93800145 
   54700    225.92474   -642.63013    133002.48    -40608.38    2810.9333   -43419.313    63.181322   0.93903132 
   54800    223.95835   -638.59769     132933.8   -40674.322    2786.4677   -43460.789    63.234415   0.93951646 
   54900    223.94224   -540.70577    132961.74   -40700.965    2786.2673   -43487.232    63.460193   0.93931899 
   55000    222.66003   -711.07408    132896.41    -40752.66    2770.3141   -43522.974      63.4329   0.93978079 
   55100    223.01149   -676.37646    132923.32   -40716.309    2774.6869   -43490.996     63.58493   0.93959054 
   55200    224.98502   -535.53295    133135.88   -40739.928    2799.2414    -43539.17    63.599913   0.93809037 
   55300    223.29161   -769.08651    132942.21   -40693.088    2778.1722    -43471.26      63.4237   0.93945698 
   55400    225.68339   -561.39766     132893.4   -40658.617    2807.9305   -43466.548    63.218804   0.93980209 
   55500    229.96988   -684.99851     133088.6   -40605.781    2861.2625   -43467.044    63.570426   0.93842364 
   55600     223.8602   -654.08425    133383.09   -40648.291    2785.2465   -43433.538      63.8271   0.93635174 
   55700    226.28227   -608.97978    133411.72   -40654.806    2815.3817   -43470.188    64.205677   0.93615081 
   55800    229.33816   -569.31302    133216.29   -40663.312    2853.4027   -43516.715     64.14534   0.93752414 
   55900    229.56399   -506.30595    133376.01   -40638.804    2856.2124   -43495.016    64.223834   0.93640143 
   56000    229.55028   -699.08121    133442.26    -40633.76    2856.0418   -43489.802    64.565353   0.93593657 
   56100     225.3023   -545.88719    133663.59   -40612.021     2803.189    -43415.21    64.731856   0.93438679 
   56200    226.63331   -589.84521    133548.92   -40622.555    2819.7492   -43442.305    64.664666   0.93518905 
   56300    227.15515   -505.87754    133609.26   -40673.254    2826.2419   -43499.496    64.808438   0.93476671 
   56400    228.42259   -568.57536    133486.62   -40672.754    2842.0113   -43514.765    64.813559   0.93562556 
   56500    221.44955   -466.87928    133673.42   -40760.435    2755.2534   -43515.688    65.127427   0.93431806 
   56600    224.17984   -716.66056    133692.26   -40774.828    2789.2233   -43564.051    65.321084   0.93418639 
   56700    221.05652   -712.52515    133779.84   -40813.495    2750.3634   -43563.858    65.104431   0.93357484 
   56800    227.57048   -456.95206    133720.12   -40740.348    2831.4094   -43571.757    65.259873   0.93399175 
   56900    221.41643   -732.84779    133636.43   -40726.745    2754.8413   -43481.586    65.342784   0.93457668 
   57000    227.28748   -581.08596    133522.63   -40676.084    2827.8884   -43503.973    65.372115   0.93537323 
   57100    225.46401   -540.16322       133466   -40731.282    2805.2009   -43536.483    65.354898   0.93577007 
   57200    229.16831   -623.00188     133463.6    -40790.28    2851.2894   -43641.569    65.487523    0.9357869 
   57300    225.63623     -528.567    133535.63   -40837.231    2807.3437   -43644.575    65.427033   0.93528213 
   57400    219.63135   -655.43478    133391.77    -40854.17    2732.6315   -43586.801    65.487457   0.93629083 
   57500    219.83212     -475.106    133305.29   -40895.916    2735.1295   -43631.045     65.45725   0.93689821 
   57600    222.66111   -541.73144    133302.75   -40843.576    2770.3275   -43613.904    65.531594   0.93691607 
   57700    219.37998   -640.68688    133529.25    -40882.92     2729.504   -43612.424    65.800696   0.93532687 
   57800    214.93284   -552.03064    133602.27   -40904.769    2674.1732   -43578.942    65.765632   0.93481567 
   57900     220.1575   -714.24558    133638.19    -40862.17    2739.1779   -43601.347    65.880204   0.93456435 
   58000    221.28135   -442.91736    133678.11   -40871.329    2753.1607    -43624.49    65.928514   0.93428525 
   58100    224.61359   -625.97633    133725.91   -40807.368    2794.6201   -43601.988    65.936117   0.93395135 
   58200    224.87083    -796.8613    133735.84   -40768.793    2797.8206   -43566.614    65.990536   0.93388199 
   58300    229.55234   -634.72897    133754.23   -40704.707    2856.0675   -43560.775    66.075732   0.93375358 
   58400     230.8394      -479.26    133956.63   -40714.114     2872.081   -43586.195    66.224935   0.93234273 
   58500     227.4454   -594.06793    133903.83   -40731.404    2829.8532   -43561.257     66.12677   0.93271034 
   58600    229.04174   -563.35417    133915.24   -40703.235    2849.7147    -43552.95      66.2041    0.9326309 
   58700    227.38668   -558.21272    133932.38   -40704.768    2829.1226    -43533.89     66.31908   0.93251154 
   58800    230.31135   -373.06329    133837.36    -40762.23    2865.5111   -43627.741    66.339481   0.93317357 
   58900    222.15048   -638.92902    134004.68   -40803.837    2763.9744   -43567.812    66.659942    0.9320084 
   59000    223.01361   -615.07028    133754.86   -40784.532    2774.7133   -43559.245    66.455287   0.93374917 
   59100     223.3726   -550.76598    133727.58   -40782.325    2779.1799   -43561.505    66.231174   0.93393963 
   59200    225.05986   -681.14242    133616.02   -40806.689    2800.1726   -43606.862    66.637963   0.93471942 
   59300    226.28967   -527.19125    133582.99   -40794.722    2815.4738   -43610.196    66.498104   0.93495055 
   59400    220.46407   -592.53487    133540.58   -40843.049    2742.9922   -43586.042    66.711478   0.93524746 
   59500    225.83711   -589.04896    133642.15   -40800.126     2809.843   -43609.969    66.758491    0.9345367 
   59600    223.68565   -614.14753    133565.89   -40803.892    2783.0747   -43586.967    66.871481   0.93507024 
   59700    223.95155   -491.52434    133495.02   -40832.133     2786.383   -43618.516    66.857781   0.93556664 
   59800    224.59359     -577.247    133477.32   -40833.992    2794.3713   -43628.363    67.017685    0.9356907 
   59900    226.48589   -596.09269    133438.32   -40801.648    2817.9151   -43619.563    67.040906   0.93596423 
   60000    223.02341   -589.08498     133461.2   -40837.059    2774.8352   -43611.895    66.994218   0.93580376 
   60100    227.02633   -592.47727    133549.91   -40795.997    2824.6391   -43620.636    66.828542   0.93518211 
   60200    223.91151   -698.59943    133642.42   -40765.183    2785.8849   -43551.068    67.007102   0.93453479 
   60300    227.19346   -515.61054     133555.1   -40719.919    2826.7186   -43546.638    66.932507   0.93514582 
   60400    231.84297   -523.36405    133442.98   -40676.594    2884.5673   -43561.162    67.005992   0.93593153 
   60500    229.64825   -565.21466    133517.73   -40711.574    2857.2608   -43568.835    67.376483   0.93540752 
   60600    226.39762   -702.37975    133532.55   -40759.116    2816.8168   -43575.933    67.318307   0.93530375 
   60700    227.60423   -563.32733    133477.98   -40794.431    2831.8294    -43626.26    67.342544   0.93568607 
   60800    228.16089   -546.60577    133444.78    -40752.43    2838.7552   -43591.185    67.279556   0.93591886 
   60900    226.66001   -488.87902    133616.23   -40740.705    2820.0815   -43560.786    67.343237   0.93471797 
   61000    225.53591   -659.64254    133743.11   -40776.812    2806.0955   -43582.907    67.426931   0.93383122 
   61100    224.73921   -716.25538    133661.74   -40818.175     2796.183   -43614.358    67.322417   0.93439971 
   61200    225.73271   -608.92368    133604.93     -40826.8     2808.544   -43635.344    67.210243   0.93479702 
   61300    221.39599   -558.63355    133670.67   -40817.974     2754.587   -43572.561    67.241221   0.93433732 
   61400     223.9161   -374.61069    133727.57   -40852.208     2785.942    -43638.15    67.335441   0.93393976 
   61500    222.26653   -592.11877       133681   -40848.583    2765.4182   -43614.001    67.474571    0.9342651 
   61600    222.71014   -687.98276    133674.85   -40804.394    2770.9375   -43575.332    67.703287   0.93430808 
   61700    219.65256   -658.36534    133824.96   -40880.055    2732.8955   -43612.951    67.912788   0.93326006 
   61800    219.63138   -654.71886    133623.53   -40943.299    2732.6319    -43675.93    67.917881   0.93466693 
   61900    223.94702    -577.9247    133642.89   -40880.869    2786.3267   -43667.196    67.733251   0.93453154 
   62000    224.41136   -740.28981    133557.74   -40845.018    2792.1039   -43637.122    67.942991   0.93512734 
   62100    228.62796   -501.21782    133546.52   -40864.554    2844.5665   -43709.121    67.966666   0.93520586 
   62200    223.58979   -742.11131    133589.63   -40813.196     2781.882   -43595.078     68.08706   0.93490411 
   62300    224.39297   -626.95997    133454.44   -40842.609    2791.8752   -43634.485    67.994544   0.93585112 
   62400    226.83254   -603.37353    133402.59   -40777.105     2822.228   -43599.333    68.180329   0.93621491 
   62500    220.89101   -814.41287    133335.41   -40786.773    2748.3041   -43535.077    68.058086   0.93668659 
   62600    222.83879   -755.50319    133197.17   -40782.383    2772.5382   -43554.921    68.181042   0.93765871 
   62700      223.219   -664.76658    133066.09   -40805.664    2777.2687   -43582.933    68.038062   0.93858241 
   62800    226.15019   -516.68901    133010.74   -40799.276    2813.7383   -43613.014    68.020324   0.93897298 
   62900    223.89853    -671.4827    133002.48   -40748.068    2785.7234   -43533.791    68.095402   0.93903132 
   63000    223.64962    -636.8239    133099.25   -40718.292    2782.6264   -43500.918    68.194282   0.93834861 
   63100    225.95925   -524.38716    133202.49   -40698.498    2811.3627   -43509.861    68.353084   0.93762129 
   63200    229.00849   -485.89381    133324.74   -40729.288     2849.301   -43578.589    68.501416   0.93676157 
   63300    225.27761   -543.67987    133589.72   -40775.414    2802.8818   -43578.296    68.737957   0.93490346 
   63400    226.83164   -536.34704    133350.74   -40702.974    2822.2169   -43525.191    68.744772   0.93657894 
   63500    225.64468    -549.8279    133519.71     -40806.7    2807.4488   -43614.148    68.553464   0.93539365 
   63600    224.32425   -521.93812    133448.44   -40800.709    2791.0202   -43591.729    68.442579   0.93589322 
   63700    222.25844   -705.77543    133506.14   -40802.963    2765.3176    -43568.28    68.770942   0.93548874 
   63800    223.61079   -378.36269    133596.07   -40908.209    2782.1433   -43690.353    68.695041     0.934859 
   63900     217.3232   -697.03094    133450.37    -40918.03    2703.9137   -43621.944    68.563795   0.93587969 
   64000    220.35878   -634.59079    133479.31   -40909.645    2741.6822   -43651.327    68.669878   0.93567676 
   64100    228.83369   -556.38109    133630.54    -40822.51    2847.1262   -43669.636    68.737638   0.93461784 
   64200    225.09786   -590.30965    133545.68    -40821.11    2800.6453   -43621.755    68.921363   0.93521179 
   64300     231.9528   -547.43356    133510.73   -40723.581    2885.9338   -43609.515     68.95164   0.93545655 
   64400     227.4481   -546.06936    133322.56   -40750.046    2829.8867   -43579.933    69.099443   0.93677686 
   64500    227.18995    -602.0519    133412.82   -40732.884    2826.6749   -43559.559    69.182092   0.93614311 
   64600     224.8494   -517.15176    133458.29   -40781.278     2797.554   -43578.832    69.200409   0.93582413 
   64700    229.75639   -548.36692    133403.71   -40800.104    2858.6064    -43658.71    69.152593   0.93620703 
   64800    222.25892   -610.31327    133334.65   -40806.437    2765.3235    -43571.76    69.223474   0.93669193 
   64900    221.92236    -655.5384    133416.83   -40777.461    2761.1361   -43538.597     69.42289   0.93611493 
   65000    224.45182   -675.10059    133435.43   -40733.315    2792.6074   -43525.923    69.627945    0.9359845 
   65100    224.83346   -487.82088     133319.4   -40750.167    2797.3557   -43547.523    69.307716   0.93679909 
   65200    226.61756   -669.20101    133282.76     -40737.8    2819.5532   -43557.354    69.712037    0.9370566 
   65300    228.27221   -640.65464    133125.06   -40730.675    2840.1403   -43570.815    69.705476   0.93816663 
   65400    232.59969   -412.73094    133082.06   -40660.866    2893.9824   -43554.848    69.590132   0.93846978 
   65500     226.6814   -480.51854    133203.48   -40718.725    2820.3475   -43539.073    69.555797   0.93761433 
   65600    228.87768   -591.90619    133211.47   -40746.927    2847.6734     -43594.6    69.927139   0.93755806 
   65700    226.97553   -454.93208    133258.98   -40798.621    2824.0071   -43622.629    70.236221    0.9372238 
   65800    223.08291   -585.94906    133349.88   -40803.148    2775.5755   -43578.724    70.441921   0.93658493 
   65900    221.08892   -673.13738    133224.71   -40756.776    2750.7664   -43507.542    70.346936   0.93746494 
   66000    226.93778   -461.37047    133140.73   -40663.389    2823.5374   -43486.926    70.194329    0.9380562 
   66100    228.27539   -660.84702    133264.07   -40618.922    2840.1799   -43459.102    70.380252     0.937188 
   66200    229.00491   -826.28892       133201   -40581.119    2849.2564   -43430.376    70.641151   0.93763178 
   66300    227.77719   -494.46089    133330.98    -40618.58    2833.9812   -43452.561    70.549083   0.93671768 
   66400    228.83564    -517.3575    133425.54   -40688.273    2847.1504   -43535.424     70.60957   0.93605389 
   66500     224.6765   -581.76976     133206.1   -40727.387    2795.4028    -43522.79    70.599214   0.93759591 
   66600    228.35929   -712.43702    133213.69   -40757.375    2841.2237   -43598.599    70.389709   0.93754246 
   66700    226.16787   -562.15297    133170.99   -40781.519    2813.9583   -43595.477    70.574538   0.93784309 
   66800    223.83194   -546.15173    133267.99   -40700.922    2784.8949   -43485.817    70.593768   0.93716044 
[...]
   84600    221.96778   -660.23816    133632.32   -40855.078    2761.7012    -43616.78    83.931896   0.93460545 
   84700    222.57393   -544.47571    133748.63   -40875.525    2769.2428   -43644.768    84.035238   0.93379268 
   84800    226.55131   -595.11569    133533.09    -40850.21     2818.729   -43668.939    84.146199   0.93529992 
   84900    225.61177   -771.41502    133384.06   -40854.422    2807.0393   -43661.461    83.964725   0.93634492 
   85000    225.48181   -549.89761    133274.73   -40801.904    2805.4224   -43607.326    83.803562   0.93711305 
   85100    223.35646   -569.71501    133611.29   -40799.783     2778.979   -43578.762    84.148277    0.9347525 
   85200    221.17049   -487.16948    133672.96   -40811.714    2751.7814   -43563.496    84.314376   0.93432126 
   85300    220.98232   -755.04024    133741.41   -40860.529    2749.4402   -43609.969    84.121153   0.93384311 
   85400    224.07389    -562.6317    133839.09   -40841.475    2787.9052    -43629.38    84.340458   0.93316156 
   85500    224.24483   -740.23225    133898.83   -40816.308     2790.032    -43606.34    84.508853   0.93274523 
   85600    224.14638     -567.272    133618.75   -40793.165    2788.8071   -43581.972    84.397643   0.93470032 
   85700    223.78694   -651.10842    133557.68   -40839.169    2784.3349   -43623.504    84.574326   0.93512776 
   85800    221.20479   -605.67883    133676.18   -40825.295    2752.2081   -43577.503    84.561484    0.9342988 
   85900     230.2945   -469.86168       133634   -40726.365    2865.3014   -43591.667    84.512114   0.93459366 
   86000    227.20218   -562.29014    133824.17   -40792.349    2826.8271   -43619.176    84.622028   0.93326555 
   86100     232.2645   -684.07997     133842.6   -40792.964    2889.8119   -43682.776    84.697341   0.93313703 
   86200    225.57715   -627.99608    133576.35   -40768.144    2806.6086   -43574.752    84.524813   0.93499705 
   86300    226.53366   -573.04774    133666.38    -40803.27    2818.5094    -43621.78    84.542158    0.9343673 
   86400    221.16155   -699.02256    133649.04   -40817.583    2751.6701   -43569.253      84.6714   0.93448848 
   86500    225.40591   -484.77936    133528.72   -40795.425     2804.478   -43599.903    84.596123   0.93533058 
   86600    226.58878   -511.71789    133646.02   -40725.138    2819.1952   -43544.333    84.770926   0.93450963 
   86700    225.90999   -777.83496    133783.84   -40713.123    2810.7497   -43523.872    84.963811   0.93354691 
   86800    224.05232   -645.95548    133605.14   -40781.781    2787.6369   -43569.417    84.748111   0.93479558 
   86900    226.19176   -459.13462    133664.95   -40743.804    2814.2555    -43558.06     84.90274   0.93437726 
   87000    227.59019   -493.06005    133569.73    -40738.99    2831.6546   -43570.645    84.879182   0.93504338 
   87100    225.26066   -680.58493    133589.13   -40777.542    2802.6708   -43580.213    85.036174   0.93490758 
   87200    229.31108   -535.67914    133662.09   -40768.822    2853.0657   -43621.888    85.161995   0.93439727 
   87300    227.73938    -613.3144    133717.76   -40786.137    2833.5108   -43619.648    84.806714   0.93400826 
   87400    230.26767   -650.24341    133683.94   -40821.579    2864.9676   -43686.546    84.789632   0.93424452 
   87500    221.91182   -560.62941    133556.46   -40843.796    2761.0049   -43604.801    85.036262   0.93513628 
   87600    223.52899    -593.1412    133814.77   -40850.566    2781.1256   -43631.692    85.349908   0.93333114 
   87700    224.93279   -764.70595    133564.24   -40867.328    2798.5916    -43665.92     85.27142   0.93508184 
   87800    224.51345   -608.46631    133391.68   -40841.017    2793.3741   -43634.391    85.000042   0.93629144 
   87900    224.25626   -688.50127    133277.58   -40855.558    2790.1743   -43645.732    85.033482   0.93709304 
   88000    222.81584   -557.31362    133391.51   -40873.705    2772.2526   -43645.958     85.24533   0.93629263 
   88100    225.87225   -437.84165    133431.72   -40793.933    2810.2803   -43604.213    85.446066    0.9360105 
   88200    224.78109   -590.79027    133313.48   -40772.622     2796.704   -43569.326    85.432461   0.93684071 
   88300    225.25786   -530.52915    133254.97   -40803.551    2802.6361   -43606.187    85.507966   0.93725204 
   88400    218.24374   -665.10249    133230.96   -40896.547    2715.3671   -43611.914     85.47495   0.93742093 
   88500    227.00795   -590.46401    133202.25   -40805.249    2824.4105   -43629.659    85.357554     0.937623 
   88600     225.8209   -477.83423    133335.17   -40760.888    2809.6413    -43570.53    85.622516   0.93668828 
   88700    228.16281   -701.79606    133214.62    -40757.17    2838.7791   -43595.949    85.747699   0.93753589 
   88800    235.14018   -677.40271    133280.49   -40705.555    2925.5909   -43631.146     85.89568    0.9370726 
   88900    226.66988   -652.78507     133129.8   -40757.396    2820.2042     -43577.6    85.931865   0.93813327 
   89000    225.45644   -584.17111    133219.75   -40748.774    2805.1067   -43553.881    85.861241   0.93749982 
   89100    223.26293   -512.15995    133132.14   -40852.234    2777.8153   -43630.049    85.804231   0.93811678 
   89200    225.66808   -825.63007    133204.89   -40896.651    2807.7399   -43704.391    85.798835   0.93760441 
   89300    219.00782   -699.04332     133253.8   -40917.016    2724.8737    -43641.89    86.004394   0.93726029 
   89400    221.37207   -477.85993    133158.13   -40935.121    2754.2894   -43689.411    85.957661   0.93793362 
   89500    219.12555   -562.16578    133298.09     -40981.6    2726.3384   -43707.939    85.826462   0.93694885 
   89600    219.61472    -521.6178    133442.28     -41021.5    2732.4246   -43753.925    86.011436    0.9359364 
   89700    222.34054   -782.97577    133383.85    -40998.29    2766.3391   -43764.629    86.202459   0.93634641 
   89800    222.07288   -587.18577    133311.32    -40954.82    2763.0089   -43717.829    85.914766   0.93685583 
   89900    220.95551   -659.60841    133267.47   -41000.531    2749.1066   -43749.638    86.079716   0.93716409 
   90000    223.61868   -500.27651    133215.63   -40903.068    2782.2415    -43685.31    85.954329    0.9375288 
   90100    224.20876   -487.28967     133303.1   -40904.746    2789.5832    -43694.33    86.288255   0.93691361 
   90200     223.3953   -586.02786    133316.91   -40923.322    2779.4622   -43702.784    86.548206   0.93681655 
   90300     223.3613   -822.22892    133317.45   -40939.442    2779.0392   -43718.482    86.542446   0.93681278 
   90400    222.32219   -588.91299    133182.27   -40924.689    2766.1107     -43690.8    86.362332   0.93776365 
   90500    223.50358   -532.95648    133396.67    -40877.81    2780.8094   -43658.619    86.558916   0.93625647 
   90600    223.03046   -615.93066    133461.08   -40770.251    2774.9229   -43545.174    86.900805   0.93580461 
   90700    224.95951    -457.7919    133492.13   -40770.386    2798.9239    -43569.31    86.836272   0.93558691 
   90800    226.20903   -460.41873    133533.95    -40808.58    2814.4704   -43623.051    86.903231   0.93529394 
   90900    221.17996   -704.94733    133047.16   -40919.389    2751.8992   -43671.288    86.888251   0.93871592 
   91000    218.30968   -577.29714     133058.7    -40927.64    2716.1874   -43643.828    86.897187   0.93863451 
   91100    217.30578   -375.41673    133145.46   -40902.892    2703.6971   -43606.589    87.280827    0.9380229 
   91200    223.15471   -720.20261    133213.33   -40856.679    2776.4689   -43633.148    87.454881   0.93754501 
   91300    227.17707   -519.09483    133120.04   -40775.974    2826.5147   -43602.489    87.617529   0.93820206 
   91400    225.39756   -589.97261    133144.28   -40741.712    2804.3742   -43546.086    87.557318   0.93803125 
   91500    228.07393   -474.41215     133250.9   -40749.641    2837.6733   -43587.314    87.676603   0.93728064 
   91600    224.10064   -658.84709    133195.14   -40789.871     2788.238   -43578.109    87.665928   0.93767301 
   91700    225.14174    -662.2313    133258.97   -40856.088    2801.1913    -43657.28    87.967585   0.93722391 
   91800    223.61925   -723.74222    133217.82   -40822.016    2782.2485   -43604.265    87.972178   0.93751339 
   91900    221.93776    -760.8595    133124.34   -40830.612    2761.3277   -43591.939    87.778007   0.93817173 
   92000    225.34842    -613.6033    133125.04   -40836.505    2803.7628   -43640.268    88.049117   0.93816681 
   92100    222.32992   -565.48085    133074.87   -40885.402    2766.2069   -43651.609    88.158602   0.93852048 
   92200    225.66703   -544.18035    133210.66   -40812.675    2807.7269   -43620.402    88.363479   0.93756379 
   92300    225.99344   -698.32187    133304.49    -40731.79    2811.7881   -43543.578    88.087915   0.93690389 
   92400    228.47925   -704.03946    133332.67   -40739.441    2842.7162   -43582.157    88.157008   0.93670583 
   92500    223.57467   -569.26138    133354.31   -40780.938    2781.6939   -43562.632    88.038794   0.93655381 
   92600     224.8416   -602.64028     133366.6   -40753.434     2797.457   -43550.891    88.073372   0.93646756 
   92700    226.80308   -485.26476    133236.77   -40718.285    2821.8615   -43540.146    88.197505   0.93738008 
   92800    221.46768   -674.23139    133286.62    -40755.13     2755.479   -43510.609    88.425337   0.93702947 
   92900    226.50668   -649.99342    133188.97   -40730.872    2818.1738   -43549.046    88.664382    0.9377165 
   93000     222.2565   -642.84629    133136.64   -40771.845    2765.2934   -43537.138    88.302671   0.93808506 
   93100    225.38867   -653.13249     133289.4   -40707.318    2804.2635   -43511.581    88.606855   0.93700995 
   93200    229.31867    -541.5101    133316.72   -40728.335    2853.1602   -43581.495    88.745469   0.93681793 
   93300    222.06207   -610.32878    133295.65   -40740.049    2762.8743   -43502.924    88.815439   0.93696596 
   93400    225.00638   -581.93738    133319.48   -40773.352    2799.5071    -43572.86    89.242534   0.93679849 
   93500    222.71724   -717.44902    133153.59    -40812.78    2771.0259   -43583.806    89.310674   0.93796562 
   93600    222.20966   -420.07435    133186.13   -40870.714    2764.7107   -43635.425    89.482033   0.93773648 
   93700    220.66953    -668.1139    133360.81    -40837.98    2745.5485   -43583.529    89.578003   0.93650816 
   93800    223.07804   -649.54459    133362.25   -40801.558     2775.515   -43577.073     89.44167   0.93649809 
   93900    218.77512   -576.26892    133316.94   -40794.129    2721.9784   -43516.108     89.44991   0.93681635 
   94000    226.72938   -555.73747    133276.07   -40808.589    2820.9446   -43629.533    89.670155   0.93710362 
   94100    228.69078   -561.66936    133216.19   -40809.802     2845.348    -43655.15    89.762702   0.93752488 
   94200    223.13678   -695.95306    133148.07   -40795.634    2776.2457    -43571.88    89.906457   0.93800454 
   94300    222.97207    -583.3793    133005.28   -40736.675    2774.1964   -43510.872    90.116001   0.93901155 
   94400     227.0383   -583.15962    132981.68   -40725.083    2824.7881   -43549.872    90.154014   0.93917817 
   94500    233.16478    -617.0296    132905.37   -40659.064    2901.0132   -43560.077    89.864549   0.93971742 
   94600    224.83162   -635.68056    133051.08   -40698.794    2797.3328   -43496.127    89.773493   0.93868832 
   94700    223.59676   -650.09543    132929.65   -40732.455    2781.9688   -43514.424    89.876597   0.93954576 
   94800    221.54523   -633.71614    132812.41   -40725.614    2756.4439   -43482.058    89.874621   0.94037514 
   94900    227.13774   -593.38172    132817.77   -40693.265    2826.0254   -43519.291    90.232075   0.94033718 
   95000     228.6618   -399.26508    132821.63   -40675.615    2844.9875   -43520.602    90.313732    0.9403099 
   95100    228.53909   -461.14175    132839.48   -40681.013    2843.4607   -43524.473     90.32257   0.94018352 
   95200    229.21547   -666.02286    132720.06   -40704.675    2851.8762   -43556.551    90.463555   0.94102948 
   95300    232.53502    -535.2127    132707.82   -40607.597    2893.1777   -43500.775     90.37371   0.94111631 
   95400    226.04374   -474.22746     132991.9   -40663.897    2812.4139   -43476.311    90.813794   0.93910602 
   95500    229.97878   -658.93422    133186.75    -40690.05    2861.3732   -43551.423    91.117864   0.93773208 
   95600    226.84747   -577.57102    133041.67   -40689.009    2822.4138   -43511.423    91.402142   0.93875466 
   95700    227.39923   -455.85266    133183.27   -40766.396    2829.2787   -43595.674    91.494597   0.93775659 
   95800    221.61078   -760.34162    133019.79   -40826.946    2757.2595   -43584.205    91.276276   0.93890908 
   95900    223.49702   -609.90313    132933.49   -40762.692    2780.7278    -43543.42    91.489475   0.93951864 
   96000    224.21037   -754.38296    132757.85   -40838.831    2789.6032   -43628.434    91.339653   0.94076166 
   96100    223.41308   -491.77376     132827.3    -40784.34    2779.6834   -43564.023    91.347088   0.94026973 
   96200    218.53206   -592.88598    132808.15    -40815.57    2718.9543   -43534.524    91.317646   0.94040533 
   96300    226.55046   -420.30383    133017.06   -40756.541    2818.7184    -43575.26    91.296004   0.93892838 
   96400    227.10286   -542.23856    132929.03   -40747.814    2825.5913   -43573.405    91.623054   0.93955019 
   96500    223.05393   -795.48221    132810.54   -40804.128    2775.2149   -43579.342    91.713787   0.94038837 
   96600    220.80099   -532.33489    132692.04   -40799.459     2747.184   -43546.643    91.536713   0.94122821 
   96700    221.18772   -575.87436    132752.46   -40863.258    2751.9958   -43615.254    91.616506   0.94079985 
   96800    220.44732   -655.59337     132838.9   -40916.202    2742.7838   -43658.986    91.903697   0.94018763 
   96900    222.44632   -671.27509    132784.74   -40858.142    2767.6551   -43625.798    92.042484   0.94057115 
   97000    220.56039   -505.60521    132774.81   -40864.644    2744.1906   -43608.835    92.248239   0.94064148 
   97100    220.44738   -758.44994    132690.55   -40856.654    2742.7846   -43599.439    91.999397   0.94123876 
   97200    221.85231   -479.90753    132686.05   -40860.526    2760.2646   -43620.791     92.41881   0.94127072 
   97300    222.44497     -549.111    132949.81   -40861.566    2767.6384   -43629.205    92.357412   0.93940331 
   97400    222.08693   -578.84708     133080.4    -40877.39    2763.1836   -43640.574    92.569287    0.9384815 
   97500    225.37398   -434.33717    133209.29    -40782.57    2804.0808   -43586.651    92.857683   0.93757345 
   97600    222.82665   -486.95219    133270.11   -40856.968    2772.3872   -43629.355    92.819309   0.93714553 
   97700    224.75934   -420.82602     133352.6   -40792.774    2796.4335   -43589.208    92.980809   0.93656585 
   97800    229.04939   -506.83288     133321.5   -40770.484    2849.8099   -43620.293    92.731052   0.93678432 
   97900    224.93871   -700.27256    133166.67   -40737.124    2798.6652    -43535.79    92.827962   0.93787348 
   98000    229.90654   -827.28829    133007.36   -40756.781    2860.4744   -43617.255    92.836978   0.93899688 
   98100    221.68716   -398.15337    133162.99   -40818.765    2758.2097   -43576.975    92.857329    0.9378994 
   98200    223.78627   -748.10158    133197.75   -40777.289    2784.3266   -43561.616    93.010281   0.93765467 
   98300    225.26397   -511.56315    133018.05   -40807.159     2802.712   -43609.871    92.679725    0.9389214 
   98400    224.37885   -617.43999    133058.45    -40809.74    2791.6994    -43601.44    92.869109   0.93863629 
   98500    223.08397   -552.68675    133274.93   -40814.516    2775.5887   -43590.105    93.354392   0.93711166 
   98600     226.2562   -627.14557    133331.92   -40844.376    2815.0573   -43659.433    93.525592   0.93671113 
   98700    223.02855   -572.58915    133243.16    -40900.77    2774.8992    -43675.67    93.484485   0.93733511 
   98800    221.60197    -511.4906    133491.23   -40883.818    2757.1498   -43640.968    93.576138   0.93559321 
   98900     224.1246   -582.21852    133375.11   -40889.349    2788.5362   -43677.885    93.411113   0.93640779 
   99000    218.96914   -605.43079    133163.79   -40944.021    2724.3924   -43668.414    93.394175    0.9378938 
   99100    225.66339   -349.62977    133169.52   -40855.942    2807.6816   -43663.624    93.279846   0.93785343 
   99200    222.72386   -419.09978    133242.35   -40840.298    2771.1083   -43611.406    93.377928   0.93734081 
   99300    229.43036    -601.3589    133427.59   -40787.149    2854.5499   -43641.699    93.573427   0.93603947 
   99400    228.83783   -543.32744    133306.43   -40782.462    2847.1777   -43629.639    93.782383   0.93689024 
   99500     230.2768   -538.49158    133386.31   -40667.934    2865.0811   -43533.015    93.979307   0.93632914 
   99600    232.39432   -566.44513    133334.02   -40690.213    2891.4271    -43581.64    93.976673   0.93669635 
   99700     225.5453   -566.03907    133397.91   -40704.811    2806.2124   -43511.023    94.194389   0.93624774 
   99800    222.69588   -682.72581    133354.34   -40732.212    2770.7601   -43502.972     94.08434   0.93655364 
   99900    224.27178   -599.74974    133319.67   -40782.402    2790.3673   -43572.769    94.148787   0.93679717 
  100000    224.62753   -603.62938    133410.18   -40782.764    2794.7935   -43577.557    94.213858    0.9361616 
  100100    226.70923   -626.00634     133257.8   -40711.579    2820.6938   -43532.273    94.171448   0.93723212 
  100200    230.39664   -620.72048    133219.68    -40730.51    2866.5722   -43597.082    94.291962    0.9375003 
  100300    226.45422   -446.57615    133241.04   -40716.829     2817.521    -43534.35    94.252013      0.93735 
  100400    227.26005   -631.21243    133160.65   -40770.348     2827.547   -43597.895    94.278725   0.93791589 
  100500    231.72405   -587.60542    133161.94   -40699.551    2883.0877   -43582.639    94.181033    0.9379068 
  100600    222.49394   -804.34515    133254.98   -40777.798    2768.2476   -43546.045    94.229683   0.93725199 
  100630    225.27947   -557.53898    133179.01   -40758.864    2802.9049   -43561.769    94.231043    0.9377866 
Loop time of 78.8042 on 6 procs for 100000 steps with 4175 atoms

Performance: 548.194 ns/day, 0.044 hours/ns, 1268.968 timesteps/s
98.4% CPU use with 6 MPI tasks x no OpenMP threads

MPI task timing breakdown:
Section |  min time  |  avg time  |  max time  |%varavg| %total
---------------------------------------------------------------
Pair    | 62.716     | 63.959     | 64.931     |  11.2 | 81.16
Neigh   | 5.1357     | 5.2393     | 5.5708     |   6.7 |  6.65
Comm    | 6.0738     | 7.035      | 8.2845     |  30.9 |  8.93
Output  | 0.15869    | 0.15943    | 0.16277    |   0.4 |  0.20
Modify  | 1.7559     | 1.7686     | 1.7793     |   0.6 |  2.24
Other   |            | 0.6427     |            |       |  0.82

Nlocal:        695.833 ave         706 max         688 min
Histogram: 1 1 0 2 0 0 0 1 0 1
Nghost:        1453.33 ave        1475 max        1428 min
Histogram: 1 1 0 0 0 0 2 0 1 1
Neighs:        0.00000 ave           0 max           0 min
Histogram: 6 0 0 0 0 0 0 0 0 0
FullNghs:      19059.3 ave       19604 max       18744 min
Histogram: 2 0 1 0 2 0 0 0 0 1

Total # of neighbors = 114356
Ave neighs/atom = 27.390659
Neighbor list builds = 5611
Dangerous builds = 0

undump              1
unfix               2
unfix               3
unfix               4


################################################
#######         Run Simulation         #########
################################################

reset_timestep      0
log                 log.run_${NAME}
log                 log.run_liquid_density_MLmW
