
# Create simulation box of size 50 x 50 x 50 Angstrom
#
lattice	            sc 1
Lattice spacing in x,y,z = 1.0000000 1.0000000 1.0000000
region 	            all block 0 50 0 50 0 50 units box
create_box          1 all
Created orthogonal box = (0.0000000 0.0000000 0.0000000) to (50.000000 50.000000 50.000000)
  1 by 2 by 3 MPI processor grid

# fill box with 4175 randomly distributed atoms
#
create_atoms        1 random 4175 63782 all
Created 4175 atoms
  create_atoms CPU = 0.000 seconds
mass                1 18.015

# Define potential
#
pair_style          sw
pair_coeff          * * ML_mW.sw mW
Reading sw potential file ML_mW.sw with DATE: 2019-02-27

# Run minimization
#
minimize            1.0e-8 1.0e-8 10000 1000
WARNING: Using 'neigh_modify every 1 delay 0 check yes' setting during minimization (../min.cpp:187)
Neighbor list info ...
  update every 1 steps, delay 0 steps, check yes
  max neighbors/atom: 2000, page size: 100000
  master list distance cutoff = 6.0032907
  ghost atom cutoff = 6.0032907
  binsize = 3.0016454, bins = 17 17 17
  1 neighbor lists, perpetual/occasional/extra = 1 0 0
  (1) pair sw, perpetual
      attributes: full, newton on
      pair build: full/bin/atomonly
      stencil: full/bin/3d
      bin: standard
Per MPI rank memory allocation (min/avg/max) = 4.255 | 4.258 | 4.261 Mbytes
Step Temp E_pair E_mol TotEng Press 
       0            0    7792709.3            0    7792709.3    5898794.3 
     630            0   -45180.336            0   -45180.336   -154.07449 
Loop time of 1.16358 on 6 procs for 630 steps with 4175 atoms

98.0% CPU use with 6 MPI tasks x no OpenMP threads

Minimization stats:
  Stopping criterion = max force evaluations
  Energy initial, next-to-last, final = 
      7792709.32924461  -45180.0188663597   -45180.336116598
  Force two-norm initial, final = 2.0191930e+08 4.9721331
  Force max component initial, final = 1.0948746e+08 0.73126211
  Final line search alpha, max atom move = 0.053306038 0.038980685
  Iterations, force evaluations = 630 1000

MPI task timing breakdown:
Section |  min time  |  avg time  |  max time  |%varavg| %total
---------------------------------------------------------------
Pair    | 0.87758    | 0.98742    | 1.0791     |   6.4 | 84.86
Neigh   | 0.023805   | 0.024346   | 0.02469    |   0.2 |  2.09
Comm    | 0.039855   | 0.1313     | 0.24226    |  17.7 | 11.28
Output  | 0          | 0          | 0          |   0.0 |  0.00
Modify  | 0          | 0          | 0          |   0.0 |  0.00
Other   |            | 0.02052    |            |       |  1.76

Nlocal:        695.833 ave         704 max         685 min
Histogram: 1 1 0 0 1 0 0 1 0 2
Nghost:        1494.17 ave        1515 max        1468 min
Histogram: 1 1 0 0 0 0 1 1 1 1
Neighs:        0.00000 ave           0 max           0 min
Histogram: 6 0 0 0 0 0 0 0 0 0
FullNghs:      19997.0 ave       20462 max       19320 min
Histogram: 1 1 0 0 0 0 0 2 0 2

Total # of neighbors = 119982
Ave neighs/atom = 28.738204
Neighbor list builds = 26
Dangerous builds = 0

# Add velocity/set timestep
#
velocity            all create ${TEMP} 120598 rot yes dist gaussian
velocity            all create 230 120598 rot yes dist gaussian
timestep            5.0

# Define output
#
compute	            1 all msd
thermo	            100
thermo_style        custom step temp press vol etotal ke pe c_1[4] density

# Neighbor lists
#
neigh_modify        delay 0 every 1 check yes

# Set fixes
#
fix                 1 all momentum 10 linear 1 1 1 rescale
fix                 2 all nve
fix                 3 all temp/csvr ${TEMP} ${TEMP} 500.0 928347
fix                 3 all temp/csvr 230 ${TEMP} 500.0 928347
fix                 3 all temp/csvr 230 230 500.0 928347
fix                 4 all press/berendsen iso ${PRES} ${PRES} 1000.0 modulus 20000
fix                 4 all press/berendsen iso -350 ${PRES} 1000.0 modulus 20000
fix                 4 all press/berendsen iso -350 -350 1000.0 modulus 20000

# Run 0.5 ns equilibration
#
dump                1 all custom 1000 eq.${NAME}.dump id type x y z vx vy vz
dump                1 all custom 1000 eq.liquid_density_MLmW.dump id type x y z vx vy vz
run                 100000
Per MPI rank memory allocation (min/avg/max) = 3.506 | 3.508 | 3.511 Mbytes
Step Temp Press Volume TotEng KinEng PotEng c_1[4] Density 
     630          230    892.42114       125000   -42318.699    2861.6373   -45180.336 2.7295415e-33   0.99914793 
     700    146.21909   -311.00541    125808.92   -41435.373    1819.2434   -43254.616   0.27498861   0.99272368 
     800    181.26509   -525.02072    125973.83   -40625.953    2255.2823   -42881.235   0.63477918   0.99142409 
     900    202.07806   -307.58851    125923.63   -40177.989    2514.2353   -42692.224    1.0943659   0.99181933 
    1000    213.75443   -136.48894    126263.83   -39885.687    2659.5115   -42545.198    1.5824713   0.98914703 
    1100    218.96321    -250.4166     126197.6   -39683.696    2724.3186   -42408.014    1.9886365   0.98966615 
    1200     220.9285   -360.84445    126235.01   -39727.566    2748.7706   -42476.337    2.3922115   0.98937281 
    1300    221.66878   -291.42905    126185.31   -39697.165     2757.981   -42455.146    2.8130937   0.98976249 
    1400    222.47655   -128.55548    126610.21   -39699.891    2768.0312   -42467.922    3.2149978   0.98644088 
    1500    222.35098   -260.05343    126991.87   -39641.969    2766.4689   -42408.437     3.611732   0.98347624 
    1600    226.57637   -204.52572    126863.38   -39538.507    2819.0408   -42357.547    3.8906672   0.98447238 
    1700    228.03435   -493.18831    127029.35   -39566.618    2837.1808   -42403.799    4.3744211   0.98318612 
    1800    231.26429   -414.18067    127116.36   -39653.833    2877.3675   -42531.201    4.7912808   0.98251315 
    1900    230.08522   -347.87143    127085.43   -39668.339    2862.6976   -42531.036    5.2061601   0.98275224 
    2000    231.38477   -164.99958    127243.74   -39623.302    2878.8665   -42502.169    5.6343158   0.98152959 
    2100    231.20841   -257.45338    127429.77   -39573.645    2876.6722   -42450.317    5.9427668   0.98009663 
    2200    231.21136   -236.22556    127671.32   -39604.888    2876.7089   -42481.597    6.1651578   0.97824231 
    2300    234.48013   -421.66142    127670.92   -39591.023    2917.3786   -42508.402    6.4698715   0.97824538 
    2400    236.70592   -624.66536    127785.41   -39616.052    2945.0717   -42561.124    6.8012449   0.97736897 
    2500    233.63606   -151.42289    127904.24   -39600.963    2906.8767    -42507.84    7.1777222   0.97646091 
    2600    238.01555   -559.59182    127748.44   -39570.553    2961.3659   -42531.919    7.6438796   0.97765178 
    2700    231.49278   -278.63733    127601.63    -39598.77    2880.2102    -42478.98    8.0244735   0.97877662 
    2800    236.16101   -483.22146    127886.13     -39576.8     2938.292   -42515.092    8.3609402    0.9765992 
    2900    232.61482   -347.39656    127880.54   -39655.495    2894.1706   -42549.666    8.7458916   0.97664185 
    3000    231.01279   -228.84885    127764.27   -39697.984    2874.2383   -42572.222    9.0598583   0.97753066 
    3100    232.49018   -499.34227    128087.67   -39657.522    2892.6198   -42550.142    9.4806412   0.97506258 
    3200    230.18848   -368.70076    128038.38   -39729.981    2863.9823   -42593.964    9.6711651   0.97543796 
    3300    238.36608    -357.4273     128142.5   -39736.431    2965.7272   -42702.158    9.8016964   0.97464534 
    3400    232.73373   -207.55171    128316.81   -39779.908    2895.6501   -42675.558    10.061935   0.97332132 
    3500     230.9432   -468.34342    128345.59   -39812.473    2873.3725   -42685.846    10.588381   0.97310313 
    3600    229.75235   -300.03263    128438.79     -39856.7     2858.556   -42715.256    10.822261   0.97239698 
    3700    227.92734   -414.85112    128443.78   -39922.146    2835.8494   -42757.995    11.140343   0.97235919 
    3800    226.86454   -431.82225    128476.85   -39840.343    2822.6262   -42662.969    11.359495   0.97210893 
    3900    230.20595   -531.25379    128304.79   -39855.317    2864.1997   -42719.517    11.523793    0.9734125 
    4000    227.77998    -330.5028    128236.06   -39833.279     2834.016   -42667.295     11.80703   0.97393424 
    4100    232.03366   -252.81191     128227.2   -39825.244    2886.9399   -42712.184    12.242397   0.97400157 
    4200    226.05329   -227.56662    128100.53   -39845.362    2812.5327   -42657.895    12.569921   0.97496468 
    4300    227.56834   -271.56321    128353.47   -39826.583    2831.3827   -42657.966    12.819661   0.97304337 
    4400    231.72766   -297.49081    128538.62   -39816.396    2883.1327   -42699.529    13.183218    0.9716418 
    4500    226.34803   -438.20373    128596.88   -39821.024    2816.1998   -42637.224    13.472181   0.97120153 
    4600    227.04567   -401.90552    128548.74   -39885.686    2824.8797   -42710.566    13.825433   0.97156526 
    4700    234.42823   -234.16157    128583.95   -39796.564    2916.7329   -42713.297    14.025854   0.97129924 
    4800    233.44477   -394.42259    128565.22   -39873.626    2904.4967   -42778.123    14.351954   0.97144073 
    4900     233.8648   -403.11658    128698.83   -39766.964    2909.7227   -42676.687    14.559641   0.97043222 
    5000    236.70111   -190.26788    128943.86   -39732.146    2945.0118   -42677.158    14.845446   0.96858814 
    5100    230.85587   -291.36703    128985.07   -39800.497    2872.2859   -42672.783    15.151828   0.96827868 
    5200    231.69371   -390.07526    129089.03   -39868.336    2882.7102   -42751.046    15.470734   0.96749884 
    5300    227.96492   -277.34598    128998.15    -39846.98     2836.317   -42683.297    15.755036   0.96818046 
    5400    231.23332   -490.75763    129029.76   -39894.345    2876.9821   -42771.328    15.921757   0.96794332 
    5500    228.91059   -362.57666    128934.32   -39903.947    2848.0829    -42752.03    16.041641   0.96865977 
    5600    234.76281   -521.07942    129222.32   -39918.776    2920.8957   -42839.672    16.440974    0.9665009 
    5700    230.21158   -154.32717    129360.43    -39925.12    2864.2697   -42789.389     16.64675   0.96546903 
    5800    226.15969   -372.38601    129375.87    -39960.86    2813.8565   -42774.716    16.937537   0.96535382 
    5900    226.90612   -176.35426    129409.14   -39996.343    2823.1435   -42819.486    17.251087   0.96510562 
    6000    229.06024   -319.00236    129385.35   -39992.474    2849.9449   -42842.419    17.479151   0.96528307 
    6100    230.85775    -491.9653    129268.39   -39943.731    2872.3093    -42816.04    17.635907   0.96615648 
    6200    227.30167   -477.28258    128914.91   -40005.107    2828.0649   -42833.172    17.871138   0.96880564 
    6300     230.3396   -441.84228    129037.16   -39967.609    2865.8626   -42833.471    18.065686   0.96788775 
    6400    230.54405   -306.21941    129164.95   -39941.271    2868.4063   -42809.678    18.439493   0.96693022 
    6500    231.55919   -520.02404    129254.37   -39883.222    2881.0365   -42764.258    18.515814   0.96626126 
    6600    228.73714   -414.02775    129192.28   -39959.704    2845.9249   -42805.629    18.715578   0.96672565 
    6700    223.61221   -416.74928    129039.08   -40029.289     2782.161    -42811.45    18.974776   0.96787341 
    6800    231.12824   -325.99475    129181.26   -39954.408    2875.6748   -42830.083    19.156373   0.96680815 
    6900      232.014   -312.35045    129314.03   -39895.853    2886.6952   -42782.548    19.333152   0.96581545 
    7000    230.58184   -286.17413    129231.41   -39884.121    2868.8765   -42752.998    19.495193   0.96643295 
    7100    229.86234   -331.91051    129260.83   -39910.003    2859.9245   -42769.928    19.578311   0.96621301 
    7200    227.95334     -397.801    129390.53   -39961.407    2836.1729    -42797.58    19.815192   0.96524445 
    7300    225.55447   -346.43491    129431.51   -40010.574    2806.3265     -42816.9    19.916733   0.96493887 
    7400    229.41391   -441.01544    129302.59   -40050.869    2854.3452   -42905.215    20.281579   0.96590095 
    7500    228.34267   -384.04604     129558.5   -40029.782     2841.017   -42870.799     20.64368   0.96399299 
    7600    224.70554   -507.60424    129365.87   -40127.769    2795.7641   -42923.533    20.703494   0.96542847 
    7700    234.95716   -500.15499    129292.49   -40022.424    2923.3137   -42945.738    21.026467   0.96597637 
    7800    228.47951   -239.34234    129247.37   -39988.728    2842.7195   -42831.448    21.366322    0.9663136 
    7900    228.47268   -263.74162    129388.65   -40041.334    2842.6344   -42883.969    21.560711   0.96525844 
    8000    228.05872   -518.02091    129460.22   -39999.087    2837.4841   -42836.571    22.053532   0.96472487 
    8100    222.20611   -197.82465    129334.57   -40070.603    2764.6664   -42835.269     22.12268   0.96566212 
    8200    227.26582   -415.03452    129516.63    -40069.22    2827.6189   -42896.839    22.388804    0.9643047 
    8300     227.2689   -100.15603    129698.79   -40046.103    2827.6572    -42873.76    22.310072   0.96295034 
    8400     227.0283   -110.27819    129848.82    -40006.73    2824.6637   -42831.393    22.481692    0.9618377 
    8500     231.4425   -398.42645       129904   -39951.976    2879.5847   -42831.561     22.84773   0.96142913 
    8600    229.49667   -403.81651    129836.93   -39993.571    2855.3749   -42848.946    23.162102    0.9619258 
    8700    228.93088   -271.90647    129858.68   -39987.444    2848.3354   -42835.779     23.32009   0.96176465 
    8800    230.66981   -399.67635    130127.48   -40035.229     2869.971     -42905.2    23.637574   0.95977797 
    8900    227.28263   -532.96413    130144.39    -40121.48    2827.8281   -42949.308    23.699985    0.9596533 
    9000    227.71726   -516.84167    129757.92   -40079.623    2833.2357   -42912.859    23.669858    0.9625115 
    9100    226.31391   -318.73191    129663.35     -40149.6    2815.7753   -42965.376    23.860541   0.96321351 
    9200    228.51478   -437.99349    129561.16   -40049.583    2843.1583   -42892.741     24.34458    0.9639732 
    9300    231.76932   -347.35124    129542.81   -40108.413    2883.6509   -42992.064    24.626979   0.96410977 
    9400    229.04095   -264.66798    129649.77   -40053.599    2849.7049   -42903.304    24.642364   0.96331441 
    9500    226.72844   -275.86695    129885.13   -40064.784    2820.9328   -42885.717    24.788167   0.96156885 
    9600    229.76902   -317.36969    130016.56   -40016.983    2858.7634   -42875.746    25.118919   0.96059683 
    9700    234.14709   -257.95375    129859.49   -39950.404     2913.235   -42863.639    25.430539   0.96175868 
    9800    226.31545   -424.71886    129874.18   -40036.196    2815.7945    -42851.99    25.688889   0.96164987 
    9900    225.13078   -219.39501    129756.67   -40128.189    2801.0549   -42929.244    25.921251   0.96252075 
   10000    222.19783    -249.5604    129956.03   -40122.357    2764.5634    -42886.92    26.188214   0.96104425 
   10100    228.52057   -77.544006    129996.75   -40094.819    2843.2304    -42938.05     26.26833   0.96074315 
   10200    223.73126   -342.14254    129948.54   -40141.496    2783.6423   -42925.139    26.611095   0.96109964 
   10300    229.91118   -260.13781    129979.47   -40142.872    2860.5322   -43003.404    26.780247   0.96087089 
   10400    233.04633   -407.61091    129987.33   -40104.973    2899.5393   -43004.512      27.0183   0.96081278 
   10500    226.74167   -213.41426    130008.28   -40080.685    2821.0974   -42901.783    27.342994   0.96065794 
   10600    233.74393   -340.40198    129982.18   -40017.953    2908.2189   -42926.172    27.434791   0.96085084 
   10700    234.43948   -312.30142    130006.86   -40023.719    2916.8728   -42940.592    27.724233   0.96066846 
   10800     234.8558   -327.15444     130012.6   -40023.179    2922.0526   -42945.232    27.871467   0.96062603 
   10900    228.23696   -475.08384    129983.54   -40065.359    2839.7018   -42905.061    28.202923   0.96084085 
   11000    231.56089   -419.36074    129970.98   -40052.086    2881.0577   -42933.144    28.333449   0.96093369 
   11100    228.95211   -282.19148    129922.13   -40101.159    2848.5995   -42949.758    28.431361   0.96129496 
   11200    231.29622   -402.20494     130002.2   -40086.495    2877.7647    -42964.26    28.431774   0.96070287 
   11300    230.17419   -275.78254    129827.28   -40087.099    2863.8046   -42950.904    28.401308   0.96199726 
   11400    230.03737    -271.4098    130101.14   -40103.091    2862.1022   -42965.194    28.870257   0.95997228 
   11500    232.15585   -283.64139    130139.51   -40128.131    2888.4602   -43016.592    29.038622   0.95968925 
   11600    230.38499   -274.84121    130188.64   -40149.167    2866.4273   -43015.594    29.182923   0.95932712 
   11700     234.2244   -366.61456    130421.28   -40050.377    2914.1968   -42964.574    29.385295   0.95761592 
   11800    228.32678   -261.57232    130303.62   -40122.637    2840.8192   -42963.456    29.490485   0.95848061 
   11900    229.65355   -425.81213    130193.57   -40126.512    2857.3268   -42983.839    29.527244   0.95929077 
   12000    231.15015   -241.76955    130602.64   -40122.875    2875.9473   -42998.823    29.767224   0.95628613 
   12100    229.50049   -467.39706     130467.6   -40069.654    2855.4224   -42925.076    29.839474   0.95727593 
   12200    228.41443   -409.40347       130293   -40061.884    2841.9097   -42903.794    30.065941   0.95855869 
   12300    230.20738   -329.85734    130297.35    -40081.97    2864.2175   -42946.188    30.231357   0.95852674 
   12400    229.69533   -321.85981    130203.34   -40063.842    2857.8465   -42921.688    30.324762   0.95921883 
   12500    229.57505   -306.08736    130053.41   -40151.674    2856.3501   -43008.024    30.420438   0.96032459 
   12600    228.44447   -364.18231    130017.18   -40068.992    2842.2835   -42911.275    30.511147   0.96059223 
   12700    230.93984   -349.30705    129842.13   -40045.289    2873.3307    -42918.62    30.773047   0.96188725 
   12800    232.75703    -183.8077    129664.34   -40007.629      2895.94   -42903.569    30.822946   0.96320617 
   12900    231.13503   -506.46704    129629.16    -40059.39    2875.7592   -42935.149    31.188604   0.96346756 
   13000    233.34649   -146.65665    129614.41    -39990.54     2903.274   -42893.814    31.313522   0.96357718 
   13100    233.34086   -362.81966    129767.04   -39985.582    2903.2039   -42888.786    31.634926   0.96244388 
   13200    234.52614   -316.50935    129654.87   -39912.392    2917.9511   -42830.343    31.633376   0.96327652 
   13300    233.31553   -222.83383    129787.34   -39953.765    2902.8887   -42856.653    31.766778   0.96229331 
   13400    233.40978    -379.1694    129941.98   -40041.806    2904.0615   -42945.867    31.996984    0.9611481 
   13500    227.93774    -330.1887    129702.02   -40088.435    2835.9788   -42924.414    32.321717   0.96292631 
   13600    226.79664   -252.28423    129418.87   -40116.269    2821.7814   -42938.051    32.394414   0.96503305 
   13700    228.67465   -270.80485     129476.8   -40103.105    2845.1474   -42948.253    32.690297   0.96460131 
   13800    234.93175   -397.66469    129461.64   -40011.687    2922.9976   -42934.684    32.711934   0.96471425 
   13900    232.23231   -333.03917    129854.74   -40055.001    2889.4115   -42944.412    32.964423   0.96179387 
   14000    233.34386   -222.32113    130060.76     -40021.2    2903.2412   -42924.442    33.120153   0.96027035 
   14100    235.12225   -254.77768    130315.53   -40027.557    2925.3677   -42952.925    33.708287   0.95839303 
   14200    226.82219   -471.88829    130206.26   -40067.209    2822.0992   -42889.309    34.135124   0.95919729 
   14300    229.02505   -344.08672    130111.11   -40131.111     2849.507   -42980.618    34.269562   0.95989871 
   14400    233.17339   -330.78847    129917.79   -40111.925    2901.1202   -43013.045    34.313717   0.96132708 
   14500    235.04651    -384.3794    129981.59   -40067.108    2924.4255   -42991.533    34.414453   0.96085527 
   14600    229.52149   -510.68094    129991.43    -40093.98    2855.6837   -42949.663     34.60385   0.96078247 
   14700    223.81493   -441.42916    129833.48   -40126.245    2784.6833   -42910.928    34.899298   0.96195133 
   14800    228.69761    -242.8511    129750.62   -40166.047     2845.433    -43011.48    34.971458   0.96256563 
   14900    224.46186   -457.48086    129843.65   -40236.112    2792.7323   -43028.844    35.314596   0.96187599 
   15000    222.51977   -501.12229    129785.34   -40217.131     2768.569     -42985.7    35.459178   0.96230819 
   15100    221.27202   -333.36123    129919.61   -40245.127    2753.0447   -42998.171    35.751651   0.96131363 
   15200    225.28712    -432.4228    129769.24   -40166.152    2803.0001   -42969.152    35.892234   0.96242757 
   15300    224.03422   -240.93335    129730.86   -40181.656    2787.4116   -42969.067    36.121928   0.96271224 
   15400    224.58239   -159.60418    129635.02   -40180.287    2794.2319   -42974.519    36.355428   0.96342402 
   15500     225.0707   -457.66555     129598.7   -40156.806    2800.3074   -42957.113    36.547944   0.96369401 
   15600    231.84518   -290.17905     129706.3   -40078.017    2884.5949   -42962.612    36.809704   0.96289458 
   15700     229.6964   -399.50947    129678.22   -40140.124    2857.8599   -42997.984    36.733005   0.96310304 
   15800    227.88558   -330.75919     129457.4   -40136.893    2835.3299   -42972.223    36.824088   0.96474586 
   15900    227.99224   -381.62136    129606.57    -40170.17    2836.6569   -43006.827    36.687016   0.96363552 
   16000    231.96124   -236.65576    129587.63    -40095.42    2886.0388   -42981.459    36.844915   0.96377636 
   16100    233.64828   -357.99989    129794.39   -40033.042    2907.0288   -42940.071    37.195323   0.96224109 
   16200    231.74829   -409.72768    129545.73   -40094.715    2883.3894   -42978.104    37.311801   0.96408807 
   16300    226.55871   -376.08329     129518.5   -40106.474     2818.821   -42925.295    37.478806   0.96429077 
   16400    230.00377   -248.76083    129523.47   -40016.724    2861.6841   -42878.408    37.690999   0.96425377 
   16500    233.30395   -278.07203    129462.83   -40017.735    2902.7447    -42920.48    37.821814   0.96470539 
   16600    235.39774   -349.76507    129538.68   -40008.085    2928.7955   -42936.881    37.869171   0.96414051 
   16700    228.13954    -321.1575    129538.29    -40048.33    2838.4897    -42886.82    38.571147   0.96414344 
   16800    234.01383   -226.81922    129625.13   -40048.803    2911.5769    -42960.38    38.493687   0.96349753 
   16900    234.52005   -345.69235    129706.07    -40001.01    2917.8753   -42918.885    38.533185   0.96289628 
   17000    234.63989   -367.80119    129553.78   -40025.957    2919.3663   -42945.323    38.870967   0.96402816 
   17100    228.68211    -375.7875    129548.06   -39949.928    2845.2403   -42795.168    39.054006    0.9640707 
   17200    233.15538   -213.68828    129530.55   -39960.314    2900.8962    -42861.21    39.406327   0.96420107 
   17300    227.59178   -323.52618    129495.47   -40010.178    2831.6744   -42841.853    39.794139   0.96446224 
   17400    226.29949   -467.66663    129583.79   -40034.568    2815.5958   -42850.164    40.047821   0.96380492 
   17500     228.4345   -475.86493    129466.01   -40008.156    2842.1594   -42850.316    39.908737   0.96468171 
   17600    229.62255   -433.11542    129614.65   -39967.911     2856.941   -42824.852    40.039694   0.96357539 
   17700     227.0558   -378.38986    129649.08   -39980.956    2825.0058   -42805.961    40.443757   0.96331951 
   17800    226.83764   -456.84472    129464.99   -39971.559    2822.2915    -42793.85    40.785045   0.96468927 
   17900    231.64758    -444.8954    129336.44   -39928.501    2882.1363   -42810.637    40.847009   0.96564815 
   18000    232.17384   -363.24861    129188.04   -39872.969     2888.684   -42761.653    40.991018   0.96675738 
   18100    228.56015   -254.27418    129283.51   -39988.111    2843.7227   -42831.833    41.268521   0.96604346 
   18200    231.32649   -453.12531    129255.53   -39992.127    2878.1413   -42870.268    41.234423   0.96625258 
   18300    234.80859    -361.1958    129243.24   -39928.689    2921.4652   -42850.154    41.366053   0.96634448 
   18400    232.27764    -234.6535    129118.68   -39990.129    2889.9754   -42880.105    41.664904    0.9672767 
   18500    230.12583   -411.88905    129269.72   -39941.283    2863.2028   -42804.486    42.084304    0.9661465 
   18600    227.71442   -554.92175    129261.86   -39992.417    2833.2003   -42825.617    42.438884   0.96620529 
   18700    227.92931   -359.04594    129106.18   -39954.131    2835.8739   -42790.005    42.570081   0.96737036 
   18800    233.63083   -371.84156    129213.98   -39928.165    2906.8117   -42834.977    42.611249   0.96656334 
   18900    232.77881   -528.05883    129010.18   -39959.777     2896.211   -42855.988    42.562304   0.96809018 
   19000    231.76126   -418.21517    128820.11   -39924.661    2883.5506   -42808.211    42.641851   0.96951862 
   19100    226.98284   -385.51941    128890.84   -39962.103    2824.0981   -42786.202    43.035845   0.96898652 
   19200    230.57312   -470.15422    129033.18   -39921.035     2868.768   -42789.803    43.264417    0.9679176 
   19300    234.24443   -294.95117    129048.77   -39881.362     2914.446   -42795.808    43.558888    0.9678007 
   19400    231.54791   -386.37689    129015.76   -39908.119    2880.8962   -42789.016    43.733146    0.9680483 
   19500    232.74427   -337.45911    128893.23   -39901.681    2895.7812   -42797.462    44.087462   0.96896858 
   19600    232.34394    -541.9642    128955.64   -39935.968    2890.8004   -42826.769     44.33152   0.96849962 
   19700    231.51821   -389.36914    129003.25   -39917.065    2880.5267   -42797.592     44.74326   0.96814222 
   19800    231.27659   -270.70015    129047.08   -39949.053    2877.5205   -42826.573    44.853425   0.96781337 
   19900    232.27901   -519.53834    129213.56   -39957.784    2889.9924   -42847.777    45.315967   0.96656641 
   20000     225.6915   -398.67731    128951.98   -39989.622    2808.0313   -42797.653    45.316895   0.96852712 
   20100    231.71002   -426.20387    128985.16   -39929.739    2882.9132   -42812.652    45.583066   0.96827801 
   20200    230.22784   -231.74541    129152.13   -39972.608     2864.472    -42837.08    45.736746   0.96702616 
   20300    228.27113   -145.76362    129057.78   -40003.923    2840.1268    -42844.05    45.963366   0.96773317 
   20400    230.51292   -371.92332    129160.16   -40008.014     2868.019   -42876.033     46.10013   0.96696604 
   20500     228.6118   -406.36225    129138.27   -39973.879    2844.3654   -42818.245    46.367397   0.96712995 
   20600    228.53328   -299.26821    129157.97   -39995.178    2843.3884   -42838.567    46.791275   0.96698246 
   20700    230.75177   -138.29899    129345.58   -39936.319    2870.9907    -42807.31    47.022444   0.96557991 
   20800    232.92598   -542.43975     129359.5   -39935.744    2898.0421   -42833.787    47.357283   0.96547597 
   20900    231.30292   -467.98493    129275.92   -39978.721     2877.848   -42856.569    47.640651   0.96610021 
   21000    228.34239   -322.27271    129184.97   -40064.819    2841.0135   -42905.832    48.105154   0.96678037 
   21100    225.70141   -330.54076    129428.22   -40087.102    2808.1547   -42895.257    48.331249   0.96496339 
   21200    226.17265   -400.25777    129458.89   -40055.151    2814.0178   -42869.169     48.52748   0.96473474 
   21300    228.69252   -354.12437     129296.3   -40089.005    2845.3697   -42934.375    48.867928   0.96594788 
   21400    231.68321   -500.42236    129214.73    -40057.76    2882.5796    -42940.34    48.956566    0.9665577 
   21500    228.42158   -550.06498    129263.46   -40052.005    2841.9987   -42894.003    49.253899   0.96619333 
   21600    230.25648   -284.44015     129285.5   -39994.003    2864.8284   -42858.831    49.207845   0.96602858 
   21700    229.95078   -134.67653    129408.38   -39964.942    2861.0249   -42825.967    49.352593   0.96511129 
   21800    235.34681   -178.06796    129430.39    -39951.52    2928.1617   -42879.682    49.214904   0.96494718 
   21900    232.16447   -399.54039    129654.27   -39974.211    2888.5673   -42862.778    49.349829   0.96328096 
   22000    228.59678   -357.48472    129347.79   -40029.824    2844.1785   -42874.003     49.65512   0.96556337 
   22100    231.02334   -366.33408    129285.12   -39959.223    2874.3696   -42833.593    49.701892   0.96603141 
   22200     229.4138   -161.64809    129325.74   -39992.804    2854.3439   -42847.148    50.083822   0.96572804 
   22300    230.94777   -623.75291    129367.61   -39957.966    2873.4293   -42831.395    50.220049   0.96541546 
   22400    229.92945   -96.310323    129276.57   -39916.892    2860.7595   -42777.652    50.510526   0.96609535 
   22500    230.67802   -409.14644    129046.87   -39915.518    2870.0731   -42785.591    50.667258   0.96781496 
   22600    231.55182   -374.80831    129283.61   -39871.498    2880.9449   -42752.443    50.714272   0.96604273 
   22700     235.3237   -421.60672    129397.54   -39880.343    2927.8742   -42808.217    51.052579   0.96519212 
   22800    233.25784   -579.81297    129450.45   -39857.653     2902.171   -42759.824    51.342283   0.96479762 
   22900      230.812   -188.50861    129269.27   -39921.683      2871.74   -42793.424    51.540129   0.96614991 
   23000    230.67475   -238.58376    129343.13   -39885.606    2870.0324   -42755.638    51.801911   0.96559821 
   23100    225.85826   -316.21809    129223.17   -39984.871    2810.1062   -42794.977    52.055198   0.96649459 
   23200    228.66505   -131.32658    129509.88   -39924.052     2845.028   -42769.079    52.451525   0.96435491 
   23300    225.91623    -291.4297    129587.87   -39969.407    2810.8274   -42780.235    52.767995   0.96377452 
   23400     230.1499    -384.0652    129476.44   -39896.705    2863.5023   -42760.207    52.909462   0.96460398 
   23500    227.27832   -364.46007    129717.22   -39937.844    2827.7744   -42765.618    53.455042   0.96281349 
   23600    230.15459   -360.14499    129849.31   -39918.832    2863.5607   -42782.392    53.641689   0.96183411 
   23700    231.01711    -561.8313    129753.55   -39980.111    2874.2921   -42854.403    53.683295   0.96254394 
   23800    231.19371   -289.38337    129776.29   -40058.152    2876.4893   -42934.641     53.91329   0.96237524 
   23900    228.18559   -316.15909    129682.75   -40100.111    2839.0625   -42939.173    54.196308   0.96306944 
   24000    231.52445   -285.52572    129944.52   -40029.884    2880.6043   -42910.488     54.62218   0.96112938 
   24100    226.33657    -399.8852     129967.1   -40025.419    2816.0573   -42841.476    54.968816   0.96096239 
   24200    228.48384   -120.97493    129874.85    -40088.34    2842.7733   -42931.113    55.290908   0.96164494 
   24300    235.41883   -575.18373    129923.99   -40055.564    2929.0578   -42984.622    55.413264    0.9612812 
   24400    226.74546   -529.48339    129896.11    -40104.51    2821.1446   -42925.654    55.584776   0.96148757 
   24500    225.76335   -367.23803    129797.55   -40049.086    2808.9252   -42858.012    55.570809   0.96221765 
   24600    232.60492   -281.42403    130034.95   -40051.172    2894.0474   -42945.219    55.693452   0.96046095 
   24700    227.44565   -297.09997    129987.02    -40079.32    2829.8563   -42909.177     55.78445   0.96081513 
   24800    232.28799   -462.08607    130080.68   -40075.531    2890.1042   -42965.635    56.083793    0.9601233 
   24900    229.50815   -242.84648    129939.61   -40031.556    2855.5178   -42887.074    56.622683   0.96116565 
   25000    229.12577   -511.64764    129995.02   -40012.279    2850.7602    -42863.04    56.772599   0.96075595 
   25100    230.46733   -100.00383    129876.37   -40003.722    2867.4518   -42871.174    56.972825   0.96163366 
   25200    229.43127   -196.68439    129950.75    -40049.93    2854.5612   -42904.491    57.191374   0.96108323 
   25300    229.57325   -371.10313    129881.22   -40061.315    2856.3277   -42917.642     57.29663   0.96159775 
   25400    232.04769   -231.43691    130080.72   -40054.191    2887.1145   -42941.306    57.388628   0.96012297 
   25500    235.58847    -138.8561    130004.68   -40031.125    2931.1684   -42962.293    57.358839   0.96068457 
   25600    224.40706   -365.27786    129972.56   -40108.502    2792.0505   -42900.552    57.376081   0.96092199 
   25700    227.41811    -217.3349    129913.19   -40126.466    2829.5137    -42955.98    57.522059   0.96136115 
   25800    228.71087   -266.05043    129942.84   -40114.716    2845.5981   -42960.314    58.061306   0.96114174 
   25900    231.80768   -361.40705    130095.86   -40056.815    2884.1282   -42940.943    58.313014   0.96001126 
   26000    235.15428   -446.14195    130135.22    -40002.18    2925.7663   -42927.946    58.662106   0.95972093 
   26100    229.96183   -255.78545    130023.98   -40094.668    2861.1623    -42955.83     58.65456   0.96054195 
   26200    227.97212   -373.52819    129751.14   -40080.733    2836.4066    -42917.14    58.802921   0.96256177 
   26300    233.60064     -267.629    129810.08   -40055.105    2906.4361   -42961.541    58.980958   0.96212473 
   26400    229.42666   -480.42943    129621.22   -40044.014    2854.5038   -42898.517    59.034115   0.96352661 
   26500    232.26602   -319.62759    129382.36   -40092.771    2889.8308   -42982.602    59.031501    0.9653054 
   26600    227.00117   -305.01585    129355.06   -40139.727    2824.3261   -42964.053    59.177422   0.96550911 
   26700    227.14525   -374.71306    129281.22   -40158.157    2826.1188   -42984.276     59.35703   0.96606056 
   26800    230.60723   -716.33382    129022.77    -40087.66    2869.1924   -42956.853    59.721142   0.96799577 
   26900    230.15827   -399.30833    129050.67   -40071.799    2863.6064   -42935.405    60.080636   0.96778645 
   27000    229.13013   -296.77925    129108.84   -40110.717    2850.8145   -42961.531    60.272405   0.96735044 
   27100    230.78199   -447.25796    129212.88    -40105.39    2871.3668   -42976.757    60.611643   0.96657151 
   27200    229.51185   -343.21996    129083.52    -40106.66    2855.5638   -42962.224    60.757611   0.96754017 
   27300    230.32078   -412.10205    128903.96   -40130.183    2865.6284   -42995.811     60.38228   0.96888795 
   27400    229.13002   -369.74635    128843.44   -40058.514    2850.8131   -42909.327    60.655467   0.96934307 
   27500    234.83209   -240.88253    129081.45   -39978.013    2921.7576   -42899.771    61.000035    0.9675557 
   27600    227.04196   -478.20973    129192.28   -40000.672    2824.8336   -42825.506    61.305143   0.96672564 
   27700    230.81973   -411.63851    129178.13   -40011.667    2871.8362   -42883.503    62.015983   0.96683157 
   27800    232.23776   -202.22281    129385.62   -39937.833    2889.4793   -42827.313    62.251456   0.96528108 
   27900     231.5711   -394.81999    129479.17   -39957.712    2881.1847   -42838.897    62.094242   0.96458368 
   28000    230.25851   -288.20165    129360.75    -39993.57    2864.8536   -42858.424     62.35658   0.96546669 
   28100    233.66195   -407.63068    129191.53   -39968.706    2907.1989   -42875.905     62.51351   0.96673124 
   28200    228.71627   -286.57658    129026.02   -40027.131    2845.6652   -42872.797    62.413504   0.96797133 
   28300    224.67522   -204.15815    129356.83    -40012.47    2795.3869   -42807.857    62.699463   0.96549595 
   28400     231.5348   -306.10763    129597.42   -40049.447    2880.7331    -42930.18     62.96394   0.96370353 
   28500    225.69897   -362.54735    129187.82   -40074.025    2808.1243   -42882.149    63.231922   0.96675899 
   28600    226.77847   -401.77002    129184.01   -40023.113    2821.5553   -42844.669    63.609411   0.96678754 
   28700    229.98267   -381.83701    129278.68   -40014.326    2861.4216   -42875.748    63.944042   0.96607956 
   28800    230.15954    -571.4941    129290.11   -39971.973    2863.6223   -42835.595    64.462511   0.96599418 
   28900    230.36014   -318.92003     129454.4   -39945.739    2866.1181   -42811.857    64.557194   0.96476825 
   29000    225.11735   -89.493617    129293.62   -40030.374    2800.8878   -42831.261    64.763124   0.96596795 
   29100    229.72862   -285.72503     129334.3   -39971.329    2858.2608   -42829.589    64.768595   0.96566414 
   29200    232.36905   -266.85432     129361.9   -39957.796    2891.1127   -42848.909    64.917756   0.96545805 
   29300     227.7098   -214.12667    129335.12   -40024.405    2833.1429   -42857.548    64.861259   0.96565799 
   29400    227.30029   -409.04314    129281.37   -40091.612    2828.0478    -42919.66    65.081263   0.96605944 
   29500    230.30014   -439.58161    129406.95   -40124.579    2865.3716   -42989.951    65.668777   0.96512198 
   29600    231.00829   -385.28928    129623.51   -40046.999    2874.1823   -42921.181    66.029254   0.96350957 
   29700    232.22018   -308.21161    129611.75   -40095.775    2889.2606   -42985.035    66.220001   0.96359695 
   29800    226.97128   -263.29723    129679.87   -40084.554    2823.9542   -42908.508    66.297274    0.9630908 
   29900    230.96724   -301.31943    129902.97   -40119.501    2873.6716   -42993.173    66.335413   0.96143675 
   30000    228.95426   -420.34197    130212.04   -40098.798    2848.6263   -42947.424     66.75015   0.95915473 
   30100    234.70976   -550.10409     130022.9   -40098.166    2920.2356   -43018.402    66.771375   0.96054996 
   30200    227.77114   -336.18582    129890.43   -40123.714    2833.9061    -42957.62     67.09865   0.96152958 
   30300    230.93011   -296.02483    130099.03   -40090.412    2873.2096   -42963.621    67.434912    0.9599879 
   30400    229.33508   -439.31617    129987.39   -40067.977    2853.3644   -42921.341    67.564947   0.96081233 
   30500    228.90971   -452.29175    129933.37   -40049.656     2848.072   -42897.728    67.813744   0.96121184 
   30600    232.68614   -182.73631    130132.33   -40022.265     2895.058   -42917.323    68.152711    0.9597422 
   30700    228.34649   -517.67124    129979.44   -40036.109    2841.0644   -42877.173    67.977106    0.9608711 
   30800    232.40378   -189.53677    130040.69   -39955.298    2891.5449   -42846.842    67.952621   0.96041859 
   30900     231.0568   -411.82619    129975.03   -40075.936    2874.7859   -42950.722    68.064381    0.9609037 
   31000    225.99141   -383.97814    129900.95   -40121.793    2811.7628   -42933.556     68.42187   0.96145174 
   31100    223.35585   -228.08917    129825.06   -40124.043    2778.9714   -42903.014    68.637201   0.96201374 
   31200    228.76293   -299.78704     129938.1   -40130.401    2846.2458   -42976.646    68.870993   0.96117684 
   31300    227.58707    -292.0545    129709.56   -40096.367    2831.6159   -42927.983     69.11439   0.96287038 
   31400    229.93428   -330.50816    129914.22   -40044.035    2860.8196   -42904.855    69.136683   0.96135347 
   31500     226.7811   -407.83249    129733.05   -40099.786     2821.588   -42921.374    69.132898   0.96269603 
   31600    231.52002   -443.52088    129679.72   -40021.606    2880.5492   -42902.155    69.657061   0.96309189 
   31700    227.32859   -319.64626    129815.73   -40045.762    2828.3998   -42874.162    69.796222   0.96208288 
   31800    234.58921   -531.94042    129547.72   -39986.418    2918.7358   -42905.153    69.948391   0.96407328 
   31900    233.58398   -364.95803    129697.58    -39996.44    2906.2288   -42902.669    70.229587   0.96295928 
   32000    234.69745   -248.17095    129730.53   -39999.729    2920.0825   -42919.812    70.283963   0.96271471 
   32100    231.23161   -162.43164     129977.8   -40021.597    2876.9609   -42898.558    70.798404   0.96088329 
   32200    228.88228   -460.75399    130237.58   -40018.976    2847.7307   -42866.706    71.106982   0.95896665 
   32300    230.64762   -391.24586    130231.32   -40002.415    2869.6949    -42872.11    71.374649   0.95901273 
   32400    230.02534   -575.83362    129977.57   -40069.577    2861.9525   -42931.529    71.559555   0.96088492 
   32500    228.78552    8.2043204    129946.39   -40075.405    2846.5268   -42921.932     71.56922   0.96111549 
   32600    232.14317   -433.93211    130039.03    -40005.21    2888.3024   -42893.513    71.676396    0.9604308 
   32700    231.40029   -220.80229    130245.35    -40064.65    2879.0595    -42943.71    71.729099   0.95890937 
   32800    228.60726   -239.46931    130167.57   -40105.797    2844.3089   -42950.106    72.014244   0.95948238 
   32900    226.98244   -64.731674    130300.39   -40125.973    2824.0931   -42950.066     72.27928   0.95850438 
   33000     230.7138   -401.99949    130354.95    -40182.02    2870.5183   -43052.538    72.473056   0.95810319 
   33100    232.48683   -406.83734    130229.42   -40121.408    2892.5781   -43013.986    72.360365   0.95902671 
   33200     231.5103   -362.40975    130215.21   -40169.962    2880.4283    -43050.39    72.650796   0.95913135 
   33300    232.17648   -199.54906    130237.01    -40111.72    2888.7168   -43000.436    73.131322    0.9589708 
   33400    226.99002   -240.43738     130333.1   -40212.089    2824.1874   -43036.276    73.233676   0.95826377 
   33500    232.30174   -436.27332    130296.64   -40187.198    2890.2753   -43077.473    73.525913   0.95853191 
   33600    230.66752   -294.43576    130271.78    -40150.61    2869.9425   -43020.552    73.619368   0.95871486 
   33700    229.66194   -343.58519    130284.84   -40141.348    2857.4312   -42998.779    73.572267   0.95861875 
   33800    233.48373   -379.63532    130280.82   -40138.347    2904.9815   -43043.329    73.885597   0.95864836 
   33900     227.3486   -408.49375    130292.61   -40150.953    2828.6488   -42979.602     74.01742   0.95856162 
   34000     230.5687   -298.51448    130240.38   -40116.746     2868.713   -42985.459    74.223708   0.95894601 
   34100    227.86118   -176.45774    130277.99   -40154.594    2835.0263    -42989.62    74.538877   0.95866915 
   34200    230.18015   -430.88338    130390.15    -40167.96    2863.8786   -43031.838    74.732232   0.95784449 
   34300     226.5521   -260.03641    130479.92   -40233.911    2818.7388    -43052.65     74.73181   0.95718555 
   34400    227.97948   -477.50979    130513.47   -40148.725    2836.4981   -42985.223     75.13152    0.9569395 
   34500    230.56346   -159.77502    130506.67   -40161.067    2868.6477   -43029.714    75.125389   0.95698934 
   34600    231.33737   -473.41166    130466.73   -40145.085    2878.2767   -43023.362    75.608975   0.95728233 
   34700    220.22697   -254.75828    130295.43   -40211.011    2740.0422   -42951.053    75.538644   0.95854086 
   34800    226.52725   -234.63421    130073.99   -40198.297    2818.4296   -43016.727    75.424993   0.96017269 
   34900    225.32733   -110.46967    130166.08   -40192.626    2803.5003   -42996.126    75.870404   0.95949335 
   35000    225.93874   -497.04461    130275.87   -40262.491    2811.1074   -43073.598    76.298672    0.9586848 
   35100    224.94009   -241.87611    130118.17   -40181.325    2798.6823   -42980.008    76.473004   0.95984665 
   35200     225.8326   -182.68443    129989.57   -40172.762    2809.7868   -42982.549    76.569188   0.96079621 
   35300    231.65087   -396.58515    129989.33    -40159.56    2882.1773   -43041.737    76.458921   0.96079801 
   35400    229.22518   -416.97825    130053.25   -40195.935     2851.997   -43047.932    76.679275   0.96032584 
   35500    232.01785   -320.40434    130057.81   -40082.099    2886.7432   -42968.842    77.015091   0.96029214 
   35600    228.22679   -525.27122    130156.63   -40119.804    2839.5751   -42959.379    77.375678   0.95956302 
   35700    229.51325    -246.1842    130026.49   -40082.902    2855.5812   -42938.483    77.742338   0.96052344 
   35800    227.08495   -469.27172    130037.48   -40115.478    2825.3685   -42940.847    78.154202   0.96044225 
   35900    231.04644   -395.68815       129995   -40056.751     2874.657   -42931.408    78.229415   0.96075609 
   36000    228.41867   -372.06497    129992.05   -40012.505    2841.9625   -42854.468    78.302203   0.96077795 
   36100    232.41224   -339.45438    130155.88   -40035.019    2891.6501   -42926.669    78.598177   0.95956853 
   36200     228.6814   -384.48717    130229.94   -40062.606    2845.2314   -42907.838    78.410532   0.95902285 
   36300      227.465    -206.1804    130175.01    -40118.14    2830.0971   -42948.237    78.552749   0.95942752 
   36400    226.89864   -559.57955    129946.18   -40055.965    2823.0504   -42879.015    78.880152   0.96111707 
   36500    227.49728   -335.31753    130021.08   -40019.771    2830.4987    -42850.27    79.354266   0.96056344 
   36600    224.58623   -594.80816    130065.59   -40142.912    2794.2797   -42937.192    79.538705   0.96023466 
   36700    230.66761   -244.15268    130125.94   -40072.931    2869.9436   -42942.874    79.679723   0.95978936 
   36800    228.42653   -228.77667    130321.03   -40053.433    2842.0603   -42895.493    80.002399   0.95835254 
   36900     227.0931   -488.66837    130015.46   -40077.434    2825.4699   -42902.904    80.005173   0.96060493 
   37000    229.02532   -236.80752    130211.34   -39991.258    2849.5104   -42840.768    79.883905   0.95915987 
   37100    232.62092   -319.93502    130025.31   -39982.165    2894.2465   -42876.411    80.189139   0.96053215 
   37200    231.59649   -273.62916    130188.47    -40059.27    2881.5007   -42940.771    80.241938   0.95932838 
   37300    228.28304   -467.71093    130181.83   -40090.733     2840.275   -42931.008    80.608769   0.95937726 
   37400    228.19724    -504.5554    130081.27   -40143.495    2839.2076   -42982.702    80.939583   0.96011893 
   37500    229.62463   -431.77582    130013.75   -40167.495    2856.9669   -43024.462    81.415918   0.96061752 
   37600    230.31463   -212.57751    129819.93   -40113.495    2865.5519   -42979.047    81.628525   0.96205174 
   37700    232.96237   -227.36578    129596.47   -40122.516    2898.4948    -43021.01    81.669438    0.9637106 
   37800    221.88825    -426.2109    129803.82   -40228.601    2760.7117   -42989.312    81.989698   0.96217113 
   37900    229.99911   -357.13716    130009.49   -40189.969    2861.6262   -43051.595    82.211822   0.96064901 
   38000    225.84691   -523.13672    129987.48    -40156.73     2809.965   -42966.695    81.978863   0.96081166 
   38100     229.7371   -249.42708     130277.2   -40114.869    2858.3663   -42973.235    82.249469   0.95867499 
   38200    226.83863   -165.82853    130034.14   -40133.076    2822.3038    -42955.38    82.411568   0.96046691 
   38300    233.76076   -246.63154    130095.98    -40072.11    2908.4283   -42980.538    82.735629   0.96001037 
   38400      230.988   -297.71063    130126.25    -40135.07    2873.9299       -43009    82.880178   0.95978704 
   38500    230.54859   -258.19923    130171.38   -40155.324    2868.4627   -43023.787    83.077615   0.95945433 
   38600    229.91359   -232.61148    130143.13   -40120.235    2860.5622   -42980.797    83.352757   0.95966258 
   38700    228.32532   -467.96231    130283.82   -40114.937     2840.801   -42955.738    83.688068   0.95862627 
   38800    226.58642   -349.88509    130179.36   -40141.638    2819.1658   -42960.804    83.812842   0.95939553 
   38900     226.6381   -506.35186    130229.38   -40086.353    2819.8088   -42906.162    84.289292   0.95902701 
   39000    227.84509   -515.94231    129844.03     -40131.3    2834.8261   -42966.126    83.921836   0.96187317 
   39100    229.29738   -266.48033    130076.25   -40070.827    2852.8953   -42923.723     84.11916   0.96015596 
   39200    228.85999   -266.32534    129974.96   -40078.588    2847.4534   -42926.042    84.274696   0.96090428 
   39300    228.52764   -261.57542    130209.58   -40069.617    2843.3183   -42912.935    84.751273   0.95917283 
   39400    230.41967      -438.13    130398.61   -40029.435    2866.8587   -42896.294    85.105536   0.95778235 
   39500    229.54281   -442.39081    130229.53   -40003.655    2855.9489   -42859.604    85.397433   0.95902592 
   39600    230.66349   -302.95889    129989.14   -40043.501    2869.8924   -42913.393    85.591814   0.96079944 
   39700    232.96023   -548.60663    130109.63    -39986.46    2898.4681   -42884.928    86.024977   0.95990967 
   39800    228.23744   -131.63619    129918.54   -40049.957    2839.7077   -42889.664    85.763802   0.96132151 
   39900    231.52139   -366.87002     130072.2    -40092.26    2880.5662   -42972.826     85.93989   0.96018588 
   40000    224.66811   -428.08266    130197.16    -40128.43    2795.2984   -42923.729     85.96766   0.95926432 
   40100    230.26337   -263.26999    130344.67   -40033.765    2864.9141   -42898.679    86.080322   0.95817877 
   40200    224.02937   -509.37298    130226.75   -40052.761    2787.3513   -42840.112    86.440131   0.95904638 
   40300    233.14837   -332.56608    130126.74   -40026.852    2900.8089   -42927.661    86.526912   0.95978344 
   40400    233.26637   -244.74117    130264.89   -39924.018    2902.2772   -42826.295    86.465027   0.95876557 
   40500    231.40467   -184.95374    130381.42   -39942.654    2879.1141   -42821.768    86.829309   0.95790867 
   40600    230.27794   -521.73954    130204.32   -39990.668    2865.0954   -42855.763    87.046769   0.95921159 
   40700    228.58793   -280.00176    130167.89   -40047.375    2844.0684   -42891.443     87.32359   0.95948006 
   40800    230.93761   -431.91849    130272.35   -40102.685    2873.3029   -42975.988    87.790151   0.95871066 
   40900    229.18656   -413.35929     130127.6   -40129.493    2851.5165    -42981.01    87.633091   0.95977714 
   41000    231.19979   -222.27706     130203.7   -40043.416    2876.5649   -42919.981    87.738433   0.95921616 
   41100    233.18209   -137.17035    130255.27   -40025.576    2901.2285   -42926.804    87.625818   0.95883637 
   41200    228.92328   -215.76348     130328.2   -40035.234    2848.2408   -42883.474    87.864118   0.95829986 
   41300    227.66691   -304.27607       130146   -40188.871    2832.6091    -43021.48    87.940752   0.95964139 
   41400    223.52972   -513.96917    130081.24   -40141.891    2781.1346   -42923.025    88.204553   0.96011913 
   41500     225.2862   -247.88493    130134.19   -40135.203    2802.9887   -42938.191    88.461766   0.95972848 
   41600    227.40778   -725.27193     130108.2   -40100.993    2829.3851   -42930.378    88.604921   0.95992019 
   41700    229.93452   -599.17888     129763.5   -40066.174    2860.8225   -42926.997    88.764148   0.96247013 
   41800    227.07604   -298.74075    129921.27   -40058.273    2825.2577   -42883.531    89.089544   0.96130137 
   41900    227.69656    -441.9267    129845.85   -40010.584    2832.9781   -42843.562    88.661981   0.96185968 
   42000     227.6976   -347.42797    129812.51   -39993.862     2832.991   -42826.853    89.020365   0.96210678 
   42100    229.84775    -592.6781    129806.12   -39990.965    2859.7429   -42850.708    89.397589   0.96215409 
   42200    233.72148   -336.51616    129825.02   -39944.758    2907.9396   -42852.697     89.83882   0.96201403 
   42300    232.61774   -454.75844    129903.84    -39924.77     2894.207   -42818.977    89.920821    0.9614303 
   42400    229.17646   -422.71506     129759.7   -39963.377    2851.3909   -42814.768    89.916014   0.96249828 
   42500    233.75546   -371.77523    129822.42   -39962.987    2908.3624    -42871.35     90.12691   0.96203333 
   42600    232.69954   -372.49111    129827.42   -39976.048    2895.2247   -42871.272    90.346029   0.96199626 
   42700    228.88973    -280.0956    129720.67    -39992.95    2847.8234   -42840.773    90.742926    0.9627879 
   42800    233.35094    -225.3517    129742.46   -39942.978    2903.3294   -42846.307    90.741949   0.96262617 
   42900    228.81283   -307.74431     129740.6   -40022.672    2846.8666   -42869.539    90.975641   0.96264003 
   43000    232.19402   -249.60471    129597.86   -40053.657    2888.9351   -42942.592    90.940857   0.96370028 
   43100    229.99417   -334.01448    129561.35     -40032.1    2861.5648   -42893.665     91.00138   0.96397183 
   43200    229.15695   -452.03411    129530.34   -39993.006    2851.1482   -42844.155    91.343546   0.96420258 
   43300    231.07637   -219.96811    129418.08   -40016.031    2875.0294    -42891.06     91.28502     0.965039 
   43400    237.49218   -361.85515    129522.41   -39977.138    2954.8542   -42931.992    91.482468   0.96426162 
   43500    235.50664    -254.3171    129693.19   -40011.163    2930.1503   -42941.314    91.972983   0.96299188 
   43600    234.52652   -439.70385    129742.36    -39919.63    2917.9557   -42837.586    92.140472   0.96262696 
   43700    235.95989   -369.69378    129715.79   -39943.994    2935.7896   -42879.783    92.367683   0.96282414 
   43800    232.60514   -257.93689    129851.75    -39937.27    2894.0501    -42831.32    92.561962   0.96181602 
   43900    231.14604    -288.1252    129925.09    -39975.26    2875.8962   -42851.157    92.665676    0.9612731 
   44000     228.2813   -367.46934    129988.05    -40010.25    2840.2533   -42850.503    93.016759   0.96080747 
   44100    233.63808   -415.19908    129868.02   -40039.318    2906.9019    -42946.22     92.90215   0.96169552 
   44200    232.37653   -334.01933    129841.02   -40095.081    2891.2058   -42986.287    92.572179   0.96189548 
   44300    226.39088    -339.8196    129844.84   -40100.817    2816.7329    -42917.55    93.053387   0.96186721 
   44400    229.80116   -353.99449     129930.7   -40070.719    2859.1633   -42929.882    93.464051   0.96123158 
   44500    228.60214   -552.20028    129978.78    -40111.95    2844.2452   -42956.195     93.61074   0.96087602 
   44600    225.42912   -358.16475    129764.72   -40175.883    2804.7669    -42980.65    93.883797   0.96246105 
   44700    230.05701   -329.11596    129925.91   -40143.773    2862.3466    -43006.12    94.177091   0.96126704 
   44800    228.36388   -270.30614    130075.07   -40105.434    2841.2808   -42946.715    94.590174   0.96016468 
   44900    230.64583   -310.13462    130204.18   -40064.553    2869.6726   -42934.226    95.027457   0.95921264 
   45000    230.17333   -400.37229    130037.84   -40076.318    2863.7938   -42940.111    95.354273   0.96043963 
   45100    230.33214   -316.00302    129849.98   -40005.765    2865.7698   -42871.535    95.317866    0.9618291 
   45200    228.91736    -157.3131    129867.25   -40059.683    2848.1672    -42907.85    95.202185   0.96170118 
   45300    228.41283   -338.99915    129902.71   -40077.165    2841.8898   -42919.055    95.266489    0.9614387 
   45400    232.95585   -217.86152    130048.42   -40046.154    2898.4137   -42944.568    95.603653   0.96036143 
   45500    228.64965   -355.89761    130151.67   -40060.475    2844.8363   -42905.311    95.709892   0.95959964 
   45600    233.18259   -433.88879    130215.92   -40056.912    2901.2348   -42958.147     95.87262   0.95912613 
   45700    234.22979   -460.51942    130071.22   -40094.798    2914.2639   -43009.062    96.172003   0.96019309 
   45800    232.10998   -334.36267     130014.2   -40055.062    2887.8895   -42942.952    96.462338   0.96061425 
   45900    235.07892   -604.16544    130229.03   -40002.829    2924.8287   -42927.658    96.768977   0.95902957 
   46000    232.34524   -278.04799    130022.85   -40007.461    2890.8165   -42898.278    96.726789    0.9605503 
   46100    238.54348   -588.89531    129989.62   -39949.555    2967.9344    -42917.49     96.97846   0.96079591 
   46200    236.11745   -347.94616    129773.71   -39951.766      2937.75   -42889.516    97.190024   0.96239442 
   46300    234.32973   -257.50611     129848.2   -39975.863    2915.5073    -42891.37    97.372085   0.96184229 
   46400    232.76075   -331.10996    129801.01   -40012.544    2895.9863    -42908.53    97.559352   0.96219196 
   46500    238.11875   -566.54953    129843.66   -40020.271    2962.6499   -42982.921    97.527498   0.96187596 
   46600    233.41346   -325.70642    129875.13    -39996.96    2904.1072   -42901.068    97.974512   0.96164285 
   46700    230.53937   -348.83053    129902.43   -40068.996    2868.3481   -42937.344    97.803382   0.96144078 
   46800    224.63081   -345.38002     129867.9   -40096.714    2794.8344   -42891.549    97.768809   0.96169642 
   46900    232.26274   -338.53771    129830.95   -40022.402    2889.7901   -42912.192     98.12305   0.96197011 
   47000    230.02805   -426.21998    129828.98   -40000.096    2861.9862   -42862.082    98.274404   0.96198472 
   47100    234.38331   -346.06153    129818.39   -39973.424     2916.174   -42889.598    98.690853   0.96206318 
   47200    234.34651   -330.71296    129881.04   -40032.479    2915.7161   -42948.195    98.937212   0.96159912 
   47300    234.51345   -304.52885    130065.68   -40062.353    2917.7932   -42980.146    99.258416   0.96023403 
   47400     233.4156   -264.96363    129992.51   -40017.015    2904.1338   -42921.149    99.338346   0.96077453 
   47500     233.3251   -241.48779    130078.98   -39956.448    2903.0078   -42859.456    99.456353   0.96013585 
   47600    233.13933   -579.41027    130043.66   -39900.024    2900.6965   -42800.721    99.609052   0.96039663 
   47700    232.33954   -301.54202    129853.18   -39939.049    2890.7455   -42829.795    99.678797   0.96180545 
   47800    233.33526   -410.79823    129835.18   -39949.816    2903.1343    -42852.95    99.921834   0.96193874 
   47900    228.71634   -239.55152    129823.11   -40045.026    2845.6661   -42890.692    100.19979   0.96202816 
   48000    226.77497    -361.5384    129730.93   -40065.748    2821.5117    -42887.26    99.908949   0.96271177 
   48100    230.45796   -189.59114    129872.76    -40020.34    2867.3352   -42887.676    100.30178   0.96166043 
   48200    228.71541   -338.46617    130085.01   -40051.017    2845.6546   -42896.672    100.59614   0.96009134 
   48300    230.09734   -331.53628    130062.91   -40039.053    2862.8484   -42901.901    100.95677   0.96025449 
   48400    229.98962    -327.2475    129819.24   -39947.418    2861.5082   -42808.926    101.12868   0.96205687 
   48500    232.56631    -306.9538    129898.93   -40009.476    2893.5671   -42903.043    101.07747    0.9614667 
   48600     229.1013    -281.6389    129843.66   -40006.514    2850.4557   -42856.969    101.08859   0.96187595 
   48700    233.25468   -317.99766    129693.95   -39968.553    2902.1317   -42870.685    101.55166   0.96298622 
   48800    228.47279   -213.49133    129658.15   -40003.138    2842.6359   -42845.774    101.77857   0.96325212 
   48900    230.15131   -475.33827    129606.52   -39987.923    2863.5198   -42851.442     102.2305   0.96363586 
   49000    233.09811   -338.35234     129683.7   -40042.998    2900.1836   -42943.182    102.51408   0.96306234 
   49100    229.57349    -478.3282    129762.53   -40056.459    2856.3307    -42912.79    102.62434   0.96247729 
   49200    228.92726   -115.54952    129553.26   -40091.145    2848.2903   -42939.435    103.14119   0.96403199 
   49300    229.36116   -414.79592    129520.98   -40016.783    2853.6889   -42870.472    103.50863    0.9642723 
   49400     233.4315   -494.38482    129501.82   -39980.034    2904.3317   -42884.366    103.93503   0.96441497 
   49500    231.33595   -446.31848    129448.23   -39994.447     2878.259   -42872.706    104.08229   0.96481418 
   49600     229.9449   -253.64685    129490.79   -39981.864    2860.9517   -42842.816    104.55164   0.96449713 
   49700    231.22879   -372.20484    129508.36   -39972.982    2876.9258   -42849.907    104.73313   0.96436627 
   49800    226.93833   -383.90083    129331.45   -40001.292    2823.5442   -42824.836    104.52658   0.96568537 
   49900    235.89174   -479.86928    129565.38   -39881.439    2934.9417   -42816.381    104.86711   0.96394186 
   50000    226.95838    -353.1217    129595.64   -39918.406    2823.7937   -42742.199    105.14851   0.96371675 
   50100    234.26564   -313.18383    129456.05   -39958.368      2914.71   -42873.078    105.45872   0.96475591 
   50200     228.5905   -326.63029    129362.46   -40000.991    2844.1004   -42845.092     105.6099   0.96545389 
   50300    230.24779   -218.68737    129105.17   -39989.849    2864.7203   -42854.569     105.8741   0.96737792 
   50400    228.40321   -466.48737    129019.54   -40008.736    2841.7702   -42850.506    106.35756   0.96801998 
   50500    229.82615   -162.53958    129017.19   -40036.376    2859.4742    -42895.85    106.37833   0.96803759 
   50600    229.99074   -337.62132    128901.88   -40059.988     2861.522    -42921.51    106.51145   0.96890354 
   50700    226.72116   -577.35491    128776.79   -40062.452    2820.8422   -42883.294    106.66572   0.96984473 
   50800    227.42546    -437.3034    128665.19   -40055.481    2829.6051   -42885.086    107.23296   0.97068594 
   50900    233.31303   -477.18309    128610.56   -39963.534    2902.8577   -42866.391    107.55738   0.97109828 
   51000    227.48321   -417.52024    128649.07   -39987.347    2830.3236   -42817.671    107.85307   0.97080756 
   51100    230.49552    -406.6509    128642.06   -40008.414    2867.8025   -42876.216    108.00953   0.97086048 
   51200    226.69034   -404.27847    128785.63   -39991.532    2820.4588   -42811.991    108.26781    0.9697782 
   51300    232.73827   -291.76832    128775.55   -40064.356    2895.7066   -42960.063    108.26239   0.96985411 
   51400    225.25662   -351.03467    128731.87   -40068.717    2802.6206   -42871.337     108.3246   0.97018315 
   51500    229.01826   -201.56653    129210.83   -40063.196    2849.4226   -42912.618    108.81019   0.96658683 
   51600     232.3432   -456.08392     129066.5   -40009.425    2890.7911   -42900.216    109.09092   0.96766774 
   51700    232.09475   -291.72475    128959.87   -39998.332       2887.7   -42886.032    109.45473   0.96846786 
   51800    230.28048   -313.56515     129070.5    -40035.22    2865.1269   -42900.347    109.86022   0.96763775 
   51900    229.05574   -417.02592    129122.02   -40074.069    2849.8889   -42923.958    110.22357   0.96725171 
   52000    224.08358    -271.7235    128851.37    -40093.15    2788.0258   -42881.176     110.0526   0.96928337 
   52100    224.93478   -549.16923    128763.02   -40039.354    2798.6163    -42837.97    110.03406   0.96994841 
   52200    226.36922   -468.69338    128810.19   -40047.538    2816.4634   -42864.001    110.38364   0.96959328 
   52300    226.99425   -228.26005    128977.43   -40022.003      2824.24   -42846.243    110.53316     0.968336 
   52400    233.58817   -478.13136    129131.82   -39965.958     2906.281   -42872.239    111.00424   0.96717828 
   52500     234.4197   -406.57384    129433.26   -39961.501    2916.6268   -42878.128    111.52079   0.96492579 
   52600    227.91864   -345.88871    129196.56   -39999.193    2835.7412   -42834.934     111.6889    0.9666936 
   52700    234.27984    -452.5666    129252.82   -40029.757    2914.8866   -42944.643    112.05182   0.96627287 
   52800    233.27474   -488.69243    129051.09   -40001.505    2902.3812   -42903.887     111.7404   0.96778329 
   52900    234.77936   -474.17364    129208.99   -40018.578    2921.1016    -42939.68    112.02972   0.96660064 
   53000     232.1767   -260.32848    129281.36    -40013.34    2888.7195    -42902.06    112.49344   0.96605958 
   53100    229.28893   -420.20385    129177.81   -40072.557    2852.7902   -42925.347    112.57666   0.96683395 
   53200    233.10873    -213.1969     129210.4    -40059.05    2900.3157   -42959.366      112.783   0.96659009 
   53300    228.49888   -399.99894    129260.65    -40033.09    2842.9605   -42876.051    113.09249   0.96621433 
   53400    227.69361    -208.3459    129258.66   -40116.315    2832.9414   -42949.257    113.44802    0.9662292 
   53500    228.86853   -431.79902    129385.18    -40133.19    2847.5596   -42980.749    113.96155   0.96528433 
   53600    227.49085    -247.7137    129494.26   -40138.591    2830.4187    -42969.01    114.52276   0.96447129 
   53700    226.56163   -450.44824    129614.69   -40171.289    2818.8574   -42990.147    114.83218   0.96357515 
   53800    227.72719   -213.47083    129534.46   -40064.109    2833.3592   -42897.468    114.46728   0.96417194 
   53900    230.73204   -355.06993     129785.5   -40135.703    2870.7453   -43006.448    114.93993   0.96230699 
   54000     231.3465   -324.96507    129786.88    -40109.48    2878.3903    -42987.87     115.1888   0.96229675 
   54100    227.52339   -470.02926    129666.85   -40121.157    2830.8236    -42951.98    115.28477   0.96318752 
   54200    227.09782   -268.69726    129923.23   -40086.271    2825.5286     -42911.8     115.6002   0.96128687 
   54300    231.41797   -356.72394    130067.58   -40068.689    2879.2795   -42947.969    115.71006      0.96022 
   54400     229.6834   -326.26029    129947.85   -40102.767    2857.6981   -42960.465    116.28792   0.96110472 
   54500    231.12568   -252.88695    129956.22   -40079.944    2875.6429   -42955.587    116.78827   0.96104283 
   54600    234.34417    -437.4123    129845.61   -39996.594     2915.687   -42912.281    116.79551    0.9618615 
   54700    232.03746   -302.64471    129745.75     -40009.5    2886.9872   -42896.487    116.97908   0.96260177 
   54800    225.19658   -285.99086    129619.86   -40067.508    2801.8736   -42869.381    117.32486   0.96353672 
   54900    227.79321    -211.5891    129651.85   -40092.313    2834.1806   -42926.494    117.42299   0.96329893 
   55000    224.54919   -262.74484    129450.39   -40132.916    2793.8188   -42926.735    117.40364   0.96479812 
   55100    226.90304   -302.90293    129370.79   -40092.088    2823.1052   -42915.194    117.51986   0.96539173 
   55200    224.36947   -147.62728    129502.24    -40087.94    2791.5827   -42879.523    117.85862   0.96441186 
   55300    231.66189   -368.53307    129450.24   -40036.602    2882.3143   -42918.916     118.0658   0.96479921 
   55400    229.46738   -184.44539    129476.73   -40029.662    2855.0105   -42884.672    118.29007   0.96460185 
   55500    235.98546   -281.16941    129388.35   -39992.395    2936.1078   -42928.502    118.66063   0.96526074 
   55600    227.01097   -507.56015    129478.34   -40028.835     2824.448   -42853.283     118.6738   0.96458981 
   55700    229.93666     -332.901    129472.98     -40011.8    2860.8491   -42872.649    119.13898   0.96462979 
   55800    231.17957   -281.19557    129573.84   -40016.906    2876.3134   -42893.219    119.50099   0.96387893 
   55900    230.68353   -239.71033    129402.53   -39974.053    2870.1417   -42844.195    119.60061   0.96515496 
   56000    225.34072    -291.0351    129351.91   -39950.488     2803.667   -42754.155    119.47545   0.96553261 
   56100    233.99167   -24.388226     129473.3   -39900.309    2911.3012    -42811.61    119.95799   0.96462741 
   56200     234.8083   -421.77661    129510.28   -39910.348    2921.4617    -42831.81    120.27092   0.96435196 
   56300    230.87696   -460.85775    129413.83   -39958.052    2872.5483     -42830.6    120.09378   0.96507066 
   56400    232.27006   -581.17668    129324.05   -39929.447    2889.8811   -42819.328    120.57482   0.96574061 
   56500    227.57628   -370.89253    129370.46   -40031.392    2831.4816   -42862.874    120.73159    0.9653942 
   56600    227.11085   -456.57046    129400.25   -40055.799    2825.6908    -42881.49     120.9607   0.96517193 
   56700     226.6698   -369.13449    129615.21   -40093.442    2820.2032   -42913.645    121.45551   0.96357124 
   56800    232.42337   -210.02827    129788.96   -40017.373    2891.7886   -42909.161    121.49749   0.96228134 
   56900    228.83851   -531.53322    129740.58   -40009.085    2847.1861   -42856.272     121.4548   0.96264011 
   57000    230.47168   -240.16262    129863.73   -39957.394    2867.5058     -42824.9    121.95258   0.96172724 
   57100    229.37803   -375.57668     129843.9   -40021.258    2853.8987   -42875.157    122.55719   0.96187418 
   57200    228.56979   -378.39833    129800.02   -40064.854    2843.8428   -42908.697    122.57774   0.96219935 
   57300    223.04092   -484.29116    129840.76   -40101.117     2775.053    -42876.17    122.56894   0.96189741 
   57400    224.42612   -199.28731    129713.66   -40120.686    2792.2876   -42912.974    122.84178   0.96283989 
   57500    224.44885   -465.04399     129529.4   -40163.139    2792.5704    -42955.71    122.76388   0.96420959 
   57600     229.1332   -293.52446    129523.48    -40099.92    2850.8526   -42950.773     123.1503   0.96425369 
   57700    223.03133    -319.5342    129727.78   -40140.284    2774.9338   -42915.217    123.59847    0.9627351 
   57800     228.1259   -105.70197    129808.18   -40158.684    2838.3199   -42997.004    124.09109   0.96213884 
   57900    227.45416   -431.52975    129970.23   -40133.939    2829.9621   -42963.901    124.44711   0.96093925 
   58000    224.92935   -543.94539    129844.05   -40145.397    2798.5488   -42943.946    124.49689   0.96187307 
   58100    229.04501   -423.17583    129701.59   -40095.483    2849.7553   -42945.238    125.08043   0.96292952 
   58200    229.65599   -339.89363    129925.37   -40061.219    2857.3572   -42918.576    125.51396   0.96127101 
   58300    233.64109   -342.82562    129988.65    -40018.69    2906.9393    -42925.63    125.93535   0.96080301 
   58400    234.40429   -413.83741    130094.52   -40033.022     2916.435   -42949.457     126.0133   0.96002114 
   58500    232.44147   -501.03895    130093.22   -40049.859    2892.0138   -42941.873    126.20733   0.96003074 
   58600    229.31038   -416.05856    129847.13    -40009.31     2853.057   -42862.367    125.94841   0.96185019 
   58700    233.51852   -285.03802    129897.94   -40000.082    2905.4144   -42905.497    126.40124     0.961474 
   58800    231.36096   -243.54869     130103.1   -40050.733    2878.5702   -42929.304    126.92001   0.95995782 
   58900    226.32901   -301.10173    130130.18   -40102.892    2815.9632   -42918.855    127.28229    0.9597581 
   59000    230.23301   -536.61979    130072.88   -40083.276    2864.5363   -42947.812    127.15323   0.96018085 
   59100    230.05344   -394.03864    130319.12   -40080.905    2862.3022   -42943.207    127.35114   0.95836657 
   59200    229.11396   -209.03095    130381.54   -40084.189    2850.6132   -42934.802    127.81379   0.95790781 
   59300    228.77401   -326.96195    130463.82   -40082.983    2846.3836   -42929.367    128.25772   0.95730363 
   59400    229.96943   -416.45459    130359.72   -40142.379    2861.2569   -43003.635    128.35539   0.95806814 
   59500    227.18824   -632.65234     130116.7   -40098.561    2826.6537   -42925.215    128.15155   0.95985751 
   59600    225.11874   -346.84738    130056.58   -40071.874    2800.9051   -42872.779    128.30515    0.9603012 
   59700    230.21205   -277.41733    130047.11   -40102.679    2864.2755   -42966.955    128.48743   0.96037111 
   59800     230.9526   -518.33111    129977.66   -40106.335    2873.4895   -42979.824    128.50434   0.96088428 
   59900    228.53467   -540.15626    129970.17   -40086.975    2843.4058   -42930.381    128.71931   0.96093963 
   60000    230.25735   -420.15561     129868.3   -40139.661    2864.8392     -43004.5    128.99062   0.96169345 
   60100    229.96929   -493.70481    129684.34   -40095.089    2861.2551   -42956.344    129.07588   0.96305761 
   60200    231.60883   -389.25767    129784.88   -40064.426    2881.6541    -42946.08    129.39725   0.96231159 
   60300    230.04815   -282.76216    129656.36   -40007.569    2862.2363   -42869.806    129.41126   0.96326541 
   60400    236.35581   -424.31622     129664.3   -39968.197    2940.7157   -42908.913    129.78897   0.96320648 
   60500    229.44108   -194.38985    129805.27   -40001.256    2854.6832   -42855.939    130.05851    0.9621604 
   60600    229.64307   -269.37123    129854.88   -40058.488    2857.1964   -42915.684     130.1351    0.9617928 
   60700    230.30005   -262.51085    129788.48   -40075.019    2865.3705    -42940.39    130.44097    0.9622849 
   60800    229.62947   -320.70571    129757.07   -40020.381    2857.0271   -42877.408     130.7903   0.96251778 
   60900    229.06158    -363.7644    129788.39    -40008.04    2849.9615   -42858.001     131.1535   0.96228554 
   61000    233.62032   -254.05328    129569.25   -40054.576    2906.6809   -42961.257    131.08334   0.96391304 
   61100    228.77084    -205.9975     129681.7    -40099.48    2846.3442   -42945.824     131.2323   0.96307725 
   61200    228.01573    -501.1383    129915.08   -40101.026    2836.9492   -42937.975    131.94746   0.96134718 
   61300    229.33356   -367.42844    129735.45   -40087.272    2853.3455   -42940.617    131.84782   0.96267818 
   61400    231.34179   -192.34942    129896.33   -40115.371    2878.3317   -42993.703    132.18328   0.96148591 
   61500    227.57984   -419.80228     129832.3   -40103.544    2831.5258    -42935.07    132.64432   0.96196011 
   61600    228.88291   -420.85622    129588.03   -40050.952    2847.7385   -42898.691    132.14928   0.96377338 
   61700    226.56781   -204.11351    129515.32   -40119.667    2818.9343   -42938.601    132.41076   0.96431443 
   61800     224.7074   -227.57991    129524.51   -40181.157    2795.7872   -42976.944    132.71257   0.96424601 
   61900    225.52739   -376.32765    129520.69   -40115.036    2805.9895   -42921.026    132.49928   0.96427444 
   62000    229.80088   -395.23043    129414.09   -40069.986    2859.1599   -42929.146    132.64044   0.96506869 
   62100    228.66276   -344.87966    129391.42   -40096.464    2844.9994   -42941.464    132.67815   0.96523783 
   62200    228.04024   -372.79079    129350.27     -40058.4    2837.2542   -42895.655    132.62815    0.9655449 
   62300    225.21764   -439.00821    129499.57   -40083.281    2802.1357   -42885.416    132.81271    0.9644317 
   62400    229.29163   -256.42677    129292.13   -40024.112    2852.8238   -42876.936     133.0662   0.96597906 
   62500    234.96342   -188.98102    129319.22   -40038.458    2923.3916    -42961.85    133.15242   0.96577668 
   62600    229.08307   -407.98359    129322.68   -40027.051    2850.2289    -42877.28    133.26726   0.96575085 
   62700    226.22538   -445.52578     129584.4   -40040.385    2814.6738   -42855.058    133.50323   0.96380037 
   62800    228.96405    -586.3929    129514.54   -40025.338     2848.748   -42874.086    133.78322   0.96432024 
   62900    230.16224    -446.8594    129400.57   -39967.229    2863.6559   -42830.885    133.86176   0.96516952 
   63000    231.89866   -247.78629    129378.85   -39923.169    2885.2602   -42808.429    134.28282   0.96533156 
   63100    231.80799   -331.74473    129346.28   -39898.653     2884.132   -42782.785    134.52331   0.96557468 
   63200    233.51388   -368.53936    129415.12   -39929.945    2905.3566   -42835.302    134.72378   0.96506107 
   63300    229.71536   -334.69336    129480.06   -39973.197    2858.0958   -42831.293    135.22599   0.96457705 
   63400    229.94657   -493.05871    129595.39    -39901.31    2860.9725   -42762.283      135.088   0.96371861 
   63500    230.51339   -387.16968    129613.15   -40000.446    2868.0247   -42868.471     135.2465   0.96358657 
   63600     232.1032   -364.56621    129721.03   -39991.891    2887.8051   -42879.696    135.39253   0.96278524 
   63700    227.63141   -267.38572    129884.91    -40005.61    2832.1674   -42837.777    135.90404   0.96157046 
   63800    223.28163    -271.5542    129729.16   -40094.752     2778.048     -42872.8    136.01137   0.96272491 
   63900    225.51973   -438.17638    129746.68   -40078.415    2805.8942   -42884.309    136.40366   0.96259487 
   64000    225.48632   -466.03191    129917.23   -40068.256    2805.4785   -42873.735    136.54284   0.96133121 
   64100    231.05774   -236.94401     129645.9   -39978.487    2874.7975   -42853.285    136.57552   0.96334315 
   64200     231.6232   -325.50683    129478.35   -39961.943     2881.833   -42843.776    136.69183   0.96458977 
   64300    234.42971   -215.62215     129647.5   -39866.671    2916.7513   -42783.422    137.23405   0.96333125 
   64400    232.86554   -358.44191    129767.47   -39899.323      2897.29   -42796.613    137.48199   0.96244069 
   64500    232.19288   -216.96836    129623.22   -39907.002    2888.9209   -42795.923    137.64973   0.96351175 
   64600     229.9158   -370.29622    129653.17   -39970.204    2860.5897   -42830.794    137.65104   0.96328914 
   64700    231.68001   -276.98805    129490.33   -40009.852    2882.5398   -42892.391    137.74733   0.96450055 
   64800    227.34463   -399.09607    129218.03   -40040.554    2828.5994   -42869.153     137.2084   0.96653302 
   64900    226.05902   -386.47471    129388.32   -40012.725    2812.6039   -42825.329    137.50885   0.96526095 
   65000    232.40205   -255.62098    129406.42   -39985.519    2891.5233   -42877.042     138.0146   0.96512591 
   65100    227.20503   -386.84286    129257.57   -40012.502    2826.8625   -42839.365    138.40941   0.96623732 
   65200    231.42434   -266.49768     129252.8   -40001.466    2879.3587   -42880.825    138.48662   0.96627301 
   65300    227.42815   -353.91448    129231.31   -39973.791    2829.6385   -42803.429    139.03346   0.96643366 
   65400    232.96228    -339.7663    129378.66   -39903.115    2898.4936   -42801.609    139.24445   0.96533299 
   65500    229.19074   -474.37716     129346.8    -39959.98    2851.5685   -42811.549    139.67893   0.96557082 
   65600    228.40312   -487.09575    129336.43   -40008.251    2841.7691    -42850.02    139.90154   0.96564822 
   65700    230.39923   -484.25487     129247.4   -40056.515    2866.6044    -42923.12    140.24157   0.96631338 
   65800    225.95553   -334.24468    129114.63   -40052.056    2811.3164   -42863.372    140.77845   0.96730708 
   65900    227.74057   -235.02414    129307.22   -40003.115    2833.5256   -42836.641    140.89738   0.96586636 
   66000    234.20083   -400.79565    129193.03    -39908.24    2913.9036   -42822.144    140.68069   0.96672004 
   66100    230.50417   -264.94922    129215.59    -39848.44    2867.9101    -42716.35    141.25493   0.96655127 
   66200     232.6273   -242.90481    129407.86   -39821.198    2894.3259   -42715.524    141.51978    0.9651152 
   66300    233.13476   -201.43039    129576.82   -39853.949    2900.6396   -42754.589    141.81301   0.96385672 
   66400    228.70949   -394.03287     129615.6   -39908.782    2845.5809   -42754.363    142.18835   0.96356838 
   66500    230.05815   -310.31253    129405.78   -39915.981    2862.3607   -42778.342    142.24024   0.96513073 
   66600     227.5948   -190.03773    129599.67   -39938.239     2831.712   -42769.951     142.5499   0.96368678 
   66700    226.34436   -569.01117    129506.43   -39975.838    2816.1542   -42791.993    142.77559   0.96438059 
   66800    228.76632    -360.7609    129495.28   -39927.148    2846.2879   -42773.436    142.78825   0.96446367 
[...]
   84600    225.63464   -432.32232    130522.21   -40228.395    2807.3239   -43035.719    179.76608   0.95687538 
   84700    226.50719    -447.4636    130276.03   -40235.016    2818.1801   -43053.196    179.35924   0.95868358 
   84800    230.00037   -182.70684    130433.36   -40197.828    2861.6419    -43059.47    179.61141   0.95752719 
   84900    228.02336   -560.99767    130455.32   -40179.392    2837.0441   -43016.436    179.59649     0.957366 
   85000    228.81352   -329.30725    130442.95   -40120.292    2846.8752   -42967.168    179.51835   0.95745682 
   85100    228.70358   -407.09661    130314.19   -40118.889    2845.5073   -42964.396       179.79   0.95840282 
   85200    231.07508   -352.70354    130406.28    -40124.97    2875.0133   -42999.983     179.9948   0.95772607 
   85300    229.81599   -533.00156     130421.6   -40170.247    2859.3479   -43029.595    180.25284   0.95761356 
   85400    226.46389    -535.2021    130136.64   -40169.747    2817.6414   -42987.388    180.03455   0.95971043 
   85500    234.80509   -202.56804    130324.12   -40143.419    2921.4217   -43064.841    180.68021   0.95832985 
   85600    228.06327   -330.77992    130205.04   -40117.299    2837.5407    -42954.84    180.68349   0.95920627 
   85700    228.86657   -350.86709    130481.15   -40149.035    2847.5352   -42996.571    181.20584   0.95717649 
   85800    229.62606    -449.1624    130432.14   -40156.075    2856.9847    -43013.06    181.39294   0.95753613 
   85900    234.73079   -158.82297    130424.99   -40066.546    2920.4973   -42987.043    181.38578   0.95758864 
   86000    231.44075   -457.78018    130408.17   -40140.803    2879.5629   -43020.366     181.6891   0.95771213 
   86100    231.28211   -313.59335    130268.53    -40139.68    2877.5891   -43017.269    181.95619   0.95873879 
   86200    232.93802   -456.29289    130345.77    -40099.48    2898.1918   -42997.671    182.55425   0.95817065 
   86300    228.59774   -408.03373    130338.69   -40132.337    2844.1905   -42976.527    182.47059   0.95822268 
   86400    228.31429   -295.75804    130236.65   -40148.459    2840.6638   -42989.123    182.48511   0.95897343 
   86500    230.32145   -207.71713    130292.45   -40134.348    2865.6367   -42999.985    182.65989   0.95856277 
   86600    227.86413   -314.77165     130106.9   -40079.755     2835.063   -42914.818    182.66097   0.95992983 
   86700    235.40178   -446.89674    130117.16   -40069.111    2928.8457   -42997.956    183.17959    0.9598541 
   86800    228.91002   -272.33117    130076.81    -40152.75    2848.0758   -43000.826    183.26369   0.96015185 
   86900    229.46279   -332.02614    129932.84   -40103.986    2854.9534   -42958.939    183.18027   0.96121572 
   87000    227.99847   -387.20232    129876.59   -40086.008    2836.7345   -42922.742    182.79132   0.96163207 
   87100    228.18145   -317.22736    129942.04   -40114.676     2839.011   -42953.687     183.0984   0.96114766 
   87200    228.85957   -265.15488    129989.26   -40101.596    2847.4481   -42949.044    182.95356   0.96079851 
   87300    230.93226   -188.29375    129855.29   -40090.898    2873.2363   -42964.135    183.11346   0.96178976 
   87400    230.62955   -441.78953    129829.51   -40107.179    2869.4701   -42976.649    183.27764   0.96198073 
   87500    227.60739   -284.64097    129782.79   -40118.311    2831.8686    -42950.18    183.35763   0.96232707 
   87600    225.89128   -377.41865    129626.43   -40112.527    2810.5169   -42923.044    183.50679   0.96348788 
   87700    226.85694   -356.59674    129697.49   -40111.084    2822.5316   -42933.615    183.44268   0.96295997 
   87800    230.26769   -150.96249    129721.44   -40077.012    2864.9679    -42941.98    184.00969   0.96278222 
   87900    229.34828   -220.27267    129552.27   -40091.113    2853.5287   -42944.641    184.45004   0.96403941 
   88000    228.69414   -332.91643    129714.87    -40118.24    2845.3899    -42963.63    184.69361   0.96283097 
   88100    231.79241   -287.51146    129681.33   -40055.894    2883.9383   -42939.832    184.74958   0.96307994 
   88200    232.83248   -463.31108    129679.37   -40021.575    2896.8786   -42918.454    184.81806   0.96309452 
   88300    230.51602   -342.73094    129732.66   -40059.492    2868.0575    -42927.55    184.77532   0.96269888 
   88400    224.52837   -503.70275    129740.48   -40162.696    2793.5598   -42956.256    184.89675   0.96264089 
   88500    229.06389   -432.19853    129762.16   -40064.533    2849.9903   -42914.523    185.57069   0.96248006 
   88600    231.81927   -354.56875    129806.96   -40024.558    2884.2724    -42908.83    186.01154   0.96214785 
   88700    234.56687   -436.57835    129715.56   -40016.556    2918.4578   -42935.013    186.04359    0.9628258 
   88800    235.24087   -353.65968    129749.42   -39943.256    2926.8436     -42870.1    186.42204   0.96257458 
   88900    231.41542   -363.20669    129925.87   -39983.522    2879.2478    -42862.77    186.90018   0.96126728 
   89000     232.5183   -312.97557    130123.71    -39967.16    2892.9697    -42860.13    187.21704   0.95980578 
   89100    232.12594   -269.14844    130128.15   -40098.763     2888.088   -42986.851    187.20928   0.95977305 
   89200    231.11921    -184.8717    130487.32   -40148.777    2875.5623   -43024.339    187.66711   0.95713121 
   89300     230.3077    -512.3646    130292.04   -40175.154    2865.4656   -43040.619    187.58785   0.95856579 
   89400    225.19349    -152.0504    130183.38    -40205.18    2801.8352   -43007.015    187.83489   0.95936584 
   89500    222.61636   -224.16742    130438.27   -40245.801    2769.7708   -43015.572    188.41909   0.95749115 
   89600    225.19846   -337.70306    130658.56   -40285.373     2801.897    -43087.27    188.60236   0.95587681 
   89700    228.81781    -344.8394    130603.44   -40255.543    2846.9285   -43102.472     188.5324   0.95628023 
   89800    226.98283   -229.04778    130518.66   -40223.838    2824.0979   -43047.936    188.41482   0.95690143 
   89900    226.13949    -518.8178    130371.04   -40288.217    2813.6052   -43101.823    188.60626   0.95798489 
   90000    226.63354   -310.15823    130399.12   -40202.501    2819.7521   -43022.254    188.54157   0.95777866 
   90100    228.07037   -339.46995     130362.5   -40226.147     2837.629   -43063.776     188.3891   0.95804771 
   90200    226.85342   -324.63924     130407.4   -40261.616    2822.4878   -43084.104    189.09335    0.9577178 
   90300    229.94798   -455.00343    130446.05   -40263.149      2860.99   -43124.139    189.42026   0.95743406 
   90400     224.1231   -430.97084    130401.53   -40243.338    2788.5174   -43031.855    189.73353   0.95776095 
   90500    228.10082   -297.07236    130377.97   -40197.621    2838.0078   -43035.629    190.15195   0.95793399 
   90600     228.9155   -428.80922    130398.85   -40092.028     2848.144   -42940.172    190.28627    0.9577806 
   90700    232.27409   -322.33299    130288.15   -40088.666    2889.9312   -42978.598     190.5566    0.9585944 
   90800     234.7774   -365.57316    130433.89    -40128.33    2921.0772   -43049.408    190.69055   0.95752332 
   90900    227.39931   -451.70267    130359.36   -40236.193    2829.2797   -43065.472    190.73019   0.95807077 
   91000    226.12652    -536.5579    130656.16   -40270.008    2813.4438   -43083.452    190.97231   0.95589438 
   91100    229.30822   -171.73587    130593.87   -40268.631    2853.0302   -43121.661    191.06846   0.95635035 
   91200    228.53202   -356.01243    130570.85   -40238.246    2843.3728   -43081.619    191.23595   0.95651894 
   91300    231.45827   -385.32998    130694.15   -40143.566    2879.7809   -43023.346    191.22446   0.95561655 
   91400     234.8328   -416.25606    130525.08   -40127.943    2921.7665    -43049.71    191.24121   0.95685437 
   91500    235.31039   -288.88689    130385.09   -40150.608    2927.7087   -43078.316    191.20955   0.95788172 
   91600    233.18823   -343.71508    130444.29   -40211.297     2901.305   -43112.602    191.35882   0.95744697 
   91700     231.9051   -247.69628    130519.85   -40283.853    2885.3404   -43169.193    191.86592   0.95689269 
   91800    232.45309   -263.85905    130791.22   -40248.675    2892.1584   -43140.833    192.26269   0.95490731 
   91900    231.54008   -344.61853    130632.88   -40268.866    2880.7987   -43149.665    192.45616   0.95606474 
   92000    224.52756   -297.26438    130473.27   -40273.135    2793.5497   -43066.685    192.66013   0.95723429 
   92100    226.16248   -446.08801    130613.33   -40314.751    2813.8912   -43128.642    193.26448   0.95620781 
   92200    230.13157   -315.05402    130735.18   -40256.814    2863.2742   -43120.088    193.40482   0.95531664 
   92300    234.50858   -209.93409    130737.57   -40168.539    2917.7326   -43086.271    193.39207   0.95529917 
   92400    232.27828   -485.28727    130484.42   -40171.428    2889.9834   -43061.411    193.09609   0.95715255 
   92500    229.28432   -149.43066    130540.34   -40204.141    2852.7328   -43056.873    193.40274   0.95674253 
   92600    233.40791   -358.95568    130724.92   -40169.005    2904.0382   -43073.043     193.5787   0.95539157 
   92700    232.58255     -358.721    130711.16   -40162.862    2893.7691   -43056.631    193.72913   0.95549218 
   92800    229.61291   -271.03699    130601.23   -40207.113    2856.8211   -43063.934     193.8396   0.95629646 
   92900     232.6006   -316.05569    130376.11   -40170.201    2893.9936   -43064.195    194.10264   0.95794768 
   93000    226.06406   -371.64677    130244.61   -40213.759    2812.6667   -43026.426    193.89397   0.95891482 
   93100    231.67257   -200.37973    130288.56   -40148.449    2882.4472   -43030.896    194.61902   0.95859141 
   93200    230.28942   -310.43666    130131.54   -40158.304    2865.2382   -43023.542    194.81362   0.95974803 
   93300    233.39729   -359.47213    130273.47   -40179.345    2903.9061   -43083.251    194.87666   0.95870243 
   93400     228.4726   -303.51712    130108.45   -40217.939    2842.6335   -43060.572    194.76873   0.95991837 
   93500     225.3304   -225.52191    130197.51   -40253.852    2803.5385    -43057.39    194.97196   0.95926178 
   93600    223.24092    -404.0873    130348.97   -40313.341    2777.5415   -43090.882    195.39374   0.95814714 
   93700    230.50993   -369.53882    130439.46   -40268.518    2867.9818   -43136.499    195.39227    0.9574824 
   93800    223.26163    -407.3522    130290.33   -40219.776    2777.7991   -42997.575    195.85439   0.95857836 
   93900    227.82197   -440.18733     130318.9   -40186.302    2834.5384   -43020.841    196.20296   0.95836824 
   94000    232.18938   -439.15861    130118.54   -40191.645    2888.8773   -43080.522    195.98839   0.95984394 
   94100    229.63677   -385.93637    130187.97   -40187.415     2857.118   -43044.533    196.48014   0.95933208 
   94200    232.86573    -350.3103    130239.02   -40196.258    2897.2924    -43093.55    196.96407   0.95895602 
   94300    229.38563   -133.88905    130125.52   -40151.608    2853.9934   -43005.601    196.83376   0.95979242 
   94400    231.34676   -507.21978    130012.78   -40131.877    2878.3936    -43010.27    197.07407   0.96062472 
   94500    233.51286   -323.99937    130364.79   -40069.764     2905.344   -42975.108    197.63309   0.95803083 
   94600     238.2481   -474.04559    130423.15   -40128.308    2964.2593   -43092.567    197.80023   0.95760219 
   94700    233.53025   -275.38087    130219.09   -40183.611    2905.5603   -43089.171    197.61033   0.95910281 
   94800    228.01464   -344.02724    130335.49   -40187.955    2836.9356   -43024.891    197.78544   0.95824619 
   94900    228.32751   -443.00408    130439.82   -40145.184    2840.8283   -42986.012    198.24026   0.95747978 
   95000    234.18551    -368.9163     130372.9   -40124.002     2913.713   -43037.715    197.86089   0.95797123 
   95100    231.36547   -327.50178    130247.97   -40118.025    2878.6263   -42996.652    198.35973   0.95889013 
   95200    232.11253   -400.66883    130139.03   -40146.624    2887.9211   -43034.545    198.39614   0.95969284 
   95300    232.16872   -14.681621    130401.63   -40039.654    2888.6203   -42928.274    198.63299   0.95776022 
   95400    229.12484   -341.64909    130425.27   -40105.016    2850.7487   -42955.765    199.15151    0.9575866 
   95500    230.36208   -322.27332    130349.02   -40112.901    2866.1422   -42979.043    199.05823   0.95814675 
   95600    233.03687   -452.31344    130540.42   -40092.369    2899.4217   -42991.791    199.21807   0.95674188 
   95700    228.14008   -270.00187    130499.16   -40151.025    2838.4963   -42989.521    199.87964   0.95704439 
   95800    228.28522   -370.36785    130715.11   -40193.531    2840.3022   -43033.834    200.68176   0.95546329 
   95900    230.35994   -315.10958    130600.84   -40152.141    2866.1156   -43018.257    199.98723   0.95629932 
   96000    226.39803   -285.66068    130743.64   -40222.538     2816.822    -43039.36     200.8228   0.95525483 
   96100    231.85106   -346.44747    130781.41   -40174.299    2884.6679   -43058.967    201.10643   0.95497893 
   96200    228.73172   -468.49772    130738.42   -40214.796    2845.8575   -43060.654    201.12911   0.95529295 
   96300    232.53834   -327.92873     130623.8   -40148.459     2893.219   -43041.678    201.09342   0.95613121 
   96400    230.34527   -351.70222    130648.52   -40129.911    2865.9331   -42995.845    201.62836   0.95595031 
   96500    230.05281   -240.80321    130613.42   -40154.804    2862.2943   -43017.098     201.8038   0.95620716 
   96600    225.09682   -252.53464    130505.05   -40155.491    2800.6324   -42956.123    202.10203   0.95700122 
   96700      228.407   -299.84967     130441.4   -40227.982    2841.8174     -43069.8    201.53155   0.95746818 
   96800    219.67115   -411.32849    130384.96   -40277.883    2733.1268    -43011.01    201.78116   0.95788268 
   96900    226.48712   -326.83373    130430.47   -40217.405    2817.9303   -43035.335    202.03674   0.95754839 
   97000    228.24394   -433.25561    130263.83     -40210.5    2839.7885   -43050.288    202.09932    0.9587734 
   97100     230.0444   -417.70466    130116.34   -40210.971    2862.1896   -43073.161     202.2737   0.95986017 
   97200    230.67626   -167.73391    130185.35   -40211.393    2870.0512   -43081.444    202.27165   0.95935134 
   97300    229.45469   -342.09524    130161.08     -40209.9    2854.8526   -43064.753    202.37907   0.95953021 
   97400    229.28712   -422.09691    130039.72   -40216.376    2852.7677   -43069.144     202.7554    0.9604257 
   97500    229.43762   -199.75201    130093.64   -40125.487    2854.6401   -42980.127    202.90537   0.96002761 
   97600    225.64124   -564.61406    130215.34   -40188.069     2807.406   -42995.475     203.1585   0.95913037 
   97700    235.11165   -364.78561    130157.04   -40124.829     2925.236   -43050.065    203.64347   0.95956004 
   97800    229.22837   -506.08503    130157.53   -40111.059    2852.0367   -42963.095    204.11394   0.95955641 
   97900    231.34607   -571.88217     130122.4   -40069.569     2878.385   -42947.954    203.94916   0.95981548 
   98000    226.90011   -280.26946    130291.17   -40071.479    2823.0687   -42894.548    204.26562   0.95857217 
   98100    225.46806   -551.50133    130151.94    -40137.55    2805.2513   -42942.801    204.26245   0.95959764 
   98200    230.93323   -245.61701    129937.36   -40112.139    2873.2484   -42985.387    204.68751   0.96118232 
   98300    223.49504   -254.80119    130094.73   -40134.765    2780.7032   -42915.468    205.06281   0.96001964 
   98400    226.47473   -414.96617    130058.72   -40141.181    2817.7762   -42958.958    204.88304    0.9602854 
   98500    225.65089   -363.48234     130238.6   -40134.783    2807.5261   -42942.309    205.09699   0.95895908 
   98600    226.93023    -397.1957    130415.78   -40151.145    2823.4435   -42974.589    205.18543   0.95765626 
   98700    227.30694   -373.63004    130343.64   -40210.358    2828.1305   -43038.489    205.57492   0.95818633 
   98800    226.89644    -398.1717    130193.57   -40180.652    2823.0231   -43003.676    205.62249   0.95929076 
   98900     225.6666   -414.58583    130476.66   -40182.384    2807.7215   -42990.105    205.99117   0.95720948 
   99000     224.4601   -266.18051    130617.46   -40218.026    2792.7104   -43010.737    206.32304   0.95617761 
   99100    226.65055   -452.95207    130493.86   -40142.407    2819.9637   -42962.371    206.69542   0.95708331 
   99200    227.27927   -489.89089    130611.65   -40120.745    2827.7862   -42948.532    206.94434   0.95622016 
   99300     228.1332   -289.55856    130336.93   -40081.265    2838.4107   -42919.676    206.81026   0.95823562 
   99400    233.17289   -192.62577    130363.18   -40035.248    2901.1141   -42936.362    207.26746   0.95804271 
   99500    239.00244   -383.60444    130494.55   -39921.765    2973.6448    -42895.41    207.64508    0.9570782 
   99600    232.31369   -404.37254    130625.09   -39957.524    2890.4239   -42847.947    207.60903   0.95612179 
   99700    233.15247   -263.30086    130538.17   -39971.321      2900.86   -42872.181    207.54516   0.95675837 
   99800    235.17766   -252.00379    130640.29   -39992.432    2926.0571   -42918.489    207.88974   0.95601055 
   99900    229.94955   -327.63858    130622.82   -40070.326    2861.0095   -42931.336    208.40866   0.95613841 
  100000    230.70995   -437.89119    130472.22   -40080.788    2870.4703   -42951.258    208.43523   0.95724201 
  100100    235.88417   -208.08682     130287.4   -40023.861    2934.8475   -42958.708    208.52865   0.95859991 
  100200    236.28943   -341.32744    130530.24   -40041.342    2939.8898   -42981.231     208.9439   0.95681653 
  100300    235.80524   -422.85815    130722.13   -40042.623    2933.8655   -42976.489    209.47219   0.95541202 
  100400    235.33918    -433.4577    130425.31   -40112.002    2928.0668   -43040.069    209.10927   0.95758631 
  100500    234.44878   -343.65756    130243.74   -40058.536    2916.9886   -42975.525    208.95128   0.95892123 
  100600     229.2263   -385.42599    130310.34   -40165.557    2852.0109   -43017.568    209.30911   0.95843117 
  100630    231.28215   -258.92749    130361.38   -40145.423    2877.5896   -43023.012    209.36298    0.9580559 
Loop time of 91.021 on 6 procs for 100000 steps with 4175 atoms

Performance: 474.616 ns/day, 0.051 hours/ns, 1098.648 timesteps/s
98.7% CPU use with 6 MPI tasks x no OpenMP threads

MPI task timing breakdown:
Section |  min time  |  avg time  |  max time  |%varavg| %total
---------------------------------------------------------------
Pair    | 72.835     | 73.613     | 75.214     |  10.7 | 80.87
Neigh   | 5.3712     | 5.3929     | 5.4138     |   0.6 |  5.92
Comm    | 7.6851     | 9.2737     | 10.068     |  29.9 | 10.19
Output  | 0.16962    | 0.17082    | 0.17652    |   0.6 |  0.19
Modify  | 1.88       | 1.8997     | 1.9135     |   0.7 |  2.09
Other   |            | 0.6712     |            |       |  0.74

Nlocal:        695.833 ave         707 max         687 min
Histogram: 2 0 0 1 0 0 1 1 0 1
Nghost:        1480.33 ave        1493 max        1458 min
Histogram: 1 0 0 0 1 1 0 0 1 2
Neighs:        0.00000 ave           0 max           0 min
Histogram: 6 0 0 0 0 0 0 0 0 0
FullNghs:      19401.7 ave       19796 max       18938 min
Histogram: 1 1 0 0 1 0 0 1 1 1

Total # of neighbors = 116410
Ave neighs/atom = 27.882635
Neighbor list builds = 5788
Dangerous builds = 0

undump              1
unfix               2
unfix               3
unfix               4


################################################
#######         Run Simulation         #########
################################################

reset_timestep      0
log                 log.run_${NAME}
log                 log.run_liquid_density_MLmW
