
# Create simulation box of size 50 x 50 x 50 Angstrom
#
lattice	            sc 1
Lattice spacing in x,y,z = 1.0000000 1.0000000 1.0000000
region 	            all block 0 50 0 50 0 50 units box
create_box          1 all
Created orthogonal box = (0.0000000 0.0000000 0.0000000) to (50.000000 50.000000 50.000000)
  1 by 2 by 3 MPI processor grid

# fill box with 4175 randomly distributed atoms
#
create_atoms        1 random 4175 63782 all
Created 4175 atoms
  create_atoms CPU = 0.001 seconds
mass                1 18.015

# Define potential
#
pair_style          sw
pair_coeff          * * ML_mW.sw mW
Reading sw potential file ML_mW.sw with DATE: 2019-02-27

# Run minimization
#
minimize            1.0e-8 1.0e-8 10000 1000
WARNING: Using 'neigh_modify every 1 delay 0 check yes' setting during minimization (../min.cpp:187)
Neighbor list info ...
  update every 1 steps, delay 0 steps, check yes
  max neighbors/atom: 2000, page size: 100000
  master list distance cutoff = 6.0032907
  ghost atom cutoff = 6.0032907
  binsize = 3.0016454, bins = 17 17 17
  1 neighbor lists, perpetual/occasional/extra = 1 0 0
  (1) pair sw, perpetual
      attributes: full, newton on
      pair build: full/bin/atomonly
      stencil: full/bin/3d
      bin: standard
Per MPI rank memory allocation (min/avg/max) = 4.255 | 4.258 | 4.261 Mbytes
Step Temp E_pair E_mol TotEng Press 
       0            0    7792709.3            0    7792709.3    5898794.3 
     630            0   -45180.336            0   -45180.336   -154.07449 
Loop time of 1.13663 on 6 procs for 630 steps with 4175 atoms

98.5% CPU use with 6 MPI tasks x no OpenMP threads

Minimization stats:
  Stopping criterion = max force evaluations
  Energy initial, next-to-last, final = 
      7792709.32924461  -45180.0188663597   -45180.336116598
  Force two-norm initial, final = 2.0191930e+08 4.9721331
  Force max component initial, final = 1.0948746e+08 0.73126211
  Final line search alpha, max atom move = 0.053306038 0.038980685
  Iterations, force evaluations = 630 1000

MPI task timing breakdown:
Section |  min time  |  avg time  |  max time  |%varavg| %total
---------------------------------------------------------------
Pair    | 0.88862    | 0.98046    | 1.0549     |   5.4 | 86.26
Neigh   | 0.024155   | 0.024602   | 0.02539    |   0.3 |  2.16
Comm    | 0.036571   | 0.11139    | 0.20374    |  16.0 |  9.80
Output  | 0          | 0          | 0          |   0.0 |  0.00
Modify  | 0          | 0          | 0          |   0.0 |  0.00
Other   |            | 0.02018    |            |       |  1.78

Nlocal:        695.833 ave         704 max         685 min
Histogram: 1 1 0 0 1 0 0 1 0 2
Nghost:        1494.17 ave        1515 max        1468 min
Histogram: 1 1 0 0 0 0 1 1 1 1
Neighs:        0.00000 ave           0 max           0 min
Histogram: 6 0 0 0 0 0 0 0 0 0
FullNghs:      19997.0 ave       20462 max       19320 min
Histogram: 1 1 0 0 0 0 0 2 0 2

Total # of neighbors = 119982
Ave neighs/atom = 28.738204
Neighbor list builds = 26
Dangerous builds = 0

# Add velocity/set timestep
#
velocity            all create ${TEMP} 120598 rot yes dist gaussian
velocity            all create 220 120598 rot yes dist gaussian
timestep            5.0

# Define output
#
compute	            1 all msd
thermo	            100
thermo_style        custom step temp press vol etotal ke pe c_1[4] density

# Neighbor lists
#
neigh_modify        delay 0 every 1 check yes

# Set fixes
#
fix                 1 all momentum 10 linear 1 1 1 rescale
fix                 2 all nve
fix                 3 all temp/csvr ${TEMP} ${TEMP} 500.0 928347
fix                 3 all temp/csvr 220 ${TEMP} 500.0 928347
fix                 3 all temp/csvr 220 220 500.0 928347
fix                 4 all press/berendsen iso ${PRES} ${PRES} 1000.0 modulus 20000
fix                 4 all press/berendsen iso 50 ${PRES} 1000.0 modulus 20000
fix                 4 all press/berendsen iso 50 50 1000.0 modulus 20000

# Run 0.5 ns equilibration
#
dump                1 all custom 1000 eq.${NAME}.dump id type x y z vx vy vz
dump                1 all custom 1000 eq.liquid_density_MLmW.dump id type x y z vx vy vz
run                 100000
Per MPI rank memory allocation (min/avg/max) = 3.506 | 3.508 | 3.511 Mbytes
Step Temp Press Volume TotEng KinEng PotEng c_1[4] Density 
     630          220    846.92133       125000   -42443.118    2737.2183   -45180.336 2.7295415e-33   0.99914793 
     700    140.21631    10.210519    125435.41   -41602.372    1744.5574    -43346.93   0.25834675   0.99567967 
     800    174.34602   -192.24125    125417.31    -40839.23    2169.1959   -43008.426   0.60642843   0.99582341 
     900    193.97606    58.955031     125404.7   -40427.197    2413.4309   -42840.628    1.0506064   0.99592357 
    1000     203.8592    240.22875    125530.76   -40165.679     2536.396   -42702.075    1.4233129   0.99492337 
    1100    211.83087   -11.773873    125728.06   -39991.744    2635.5788   -42627.323    1.8684032    0.9933621 
    1200     210.3026    55.148816    125785.32    -40034.53    2616.5641   -42651.094    2.1980389    0.9929099 
    1300    215.23625     215.0649     125964.2   -40009.223    2677.9482   -42687.171    2.4713404   0.99149988 
    1400     215.6919   -19.487532    126063.02   -40022.557    2683.6173   -42706.174    2.7316848   0.99072263 
    1500    214.51575     204.5323    126004.78   -39970.838    2668.9837   -42639.822    3.0586564   0.99118059 
    1600    218.64244   -13.435232    125957.65   -39876.747    2720.3276   -42597.075      3.44828   0.99155147 
    1700    220.20036    122.24009    125949.58   -39894.248    2739.7112    -42633.96    3.6970451   0.99161499 
    1800    217.78966   -30.112811    125955.89   -39981.896    2709.7175   -42691.614     4.104022    0.9915653 
    1900    220.54598    28.790034    125962.64   -39994.197    2744.0113   -42738.208    4.4888099    0.9915122 
    2000    223.00368   0.64112329    126138.78    -39954.77    2774.5898    -42729.36    4.8197425   0.99012761 
    2100    221.45155   -10.141461    126069.42   -39909.561    2755.2783   -42664.839    5.1105034   0.99067234 
    2200    219.91675    79.612697    126002.03   -39941.971    2736.1825   -42678.153    5.3967455    0.9912022 
    2300    221.97021    23.501932    126033.81   -39923.911    2761.7314   -42685.643     5.686465   0.99095224 
    2400    222.80321     131.2955     126189.5   -39943.862    2772.0955   -42715.958    5.9443683   0.98972963 
    2500    222.14031    43.900046    126186.27   -39919.867    2763.8478   -42683.715    6.2821967   0.98975503 
    2600    223.87199    58.609673     126113.5   -39859.766    2785.3931   -42645.159    6.5462343   0.99032607 
    2700    222.49362    33.774315     126316.8   -39877.699    2768.2437   -42645.942    6.8961587   0.98873221 
    2800    229.06608    128.89661    126352.98   -39868.737    2850.0175   -42718.754    7.2701186   0.98844911 
    2900    223.80327   -23.666693    126271.35   -39942.663    2784.5381   -42727.201    7.5578972   0.98908814 
    3000    221.46249    68.514615    126243.21   -39977.957    2755.4144   -42733.371    7.8903123   0.98930861 
    3100    223.20959    223.40466    126240.62   -39950.357    2777.1517   -42727.509    8.2489517   0.98932888 
    3200    222.34264    71.428291    126420.45   -39986.517    2766.3652   -42752.882    8.5512604   0.98792156 
    3300     222.7919    -188.7393    126288.54   -39976.577    2771.9548   -42748.531    8.6556909   0.98895351 
    3400    223.00119    141.81075    126483.83   -40014.101    2774.5588    -42788.66    8.9818334   0.98742654 
    3500      220.422     140.0788    126619.44   -40060.082    2742.4688    -42802.55    9.2080737   0.98636897 
    3600    218.95375    102.30526    126519.66   -40107.298     2724.201   -42831.499     9.480271    0.9871469 
    3700    216.16387    84.107382    126582.71   -40181.903    2689.4896   -42871.393    9.7581078   0.98665522 
    3800    220.79156    47.095003     126476.7   -40156.013    2747.0668   -42903.079    10.202193   0.98748218 
    3900    217.00626    77.457322    126683.23   -40199.824    2699.9704   -42899.795     10.43463   0.98587232 
    4000     220.5551    163.64211    126628.39   -40202.154    2744.1247   -42946.278    10.637029   0.98629927 
    4100    221.59166    175.54117    126887.66   -40193.946    2757.0215   -42950.967    10.840035   0.98428397 
    4200    217.86404    114.22858    126960.17   -40198.519    2710.6428   -42909.162    11.118519   0.98372186 
    4300    218.39268   -18.386696    126932.39   -40190.586    2717.2202   -42907.806    11.389436   0.98393714 
    4400    219.48725    162.37356    127163.95   -40171.266    2730.8386   -42902.104    11.631226   0.98214545 
    4500     215.3484    123.57328    127100.46   -40172.326    2679.3434    -42851.67    11.923585   0.98263602 
    4600    217.65063   -53.139586    127316.62   -40207.361    2707.9876   -42915.348    12.287374    0.9809677 
    4700    224.28708    251.14789       127155   -40142.635    2790.5577   -42933.193    12.573322   0.98221454 
    4800    218.97052   -121.17088     127146.3   -40218.125    2724.4096   -42942.534    12.905223   0.98228176 
    4900    221.01697    197.28663    126987.81   -40094.426    2749.8713   -42844.298    13.054174   0.98350773 
    5000    224.88741    140.51613    127289.94    -40054.72    2798.0269   -42852.747    13.402697   0.98117333 
    5100    223.20293    127.33008    127467.29   -40125.712    2777.0688   -42902.781    13.755198   0.97980817 
    5200    219.98528   -134.25125    127603.19   -40184.446    2737.0351   -42921.481    14.183731   0.97876463 
    5300    219.22006   -41.684212    127551.52    -40165.09    2727.5143   -42892.605      14.3647    0.9791611 
    5400     220.6751    37.393199    127467.84   -40196.993    2745.6178   -42942.611    14.467044   0.97980394 
    5500    219.01964    17.893751    127502.58   -40195.389    2725.0207   -42920.409    14.696144   0.97953695 
    5600    219.81924     -94.2911    127504.33   -40196.263    2734.9693   -42931.233    14.870675   0.97952353 
    5700    218.61312     227.5096    127516.93    -40194.33    2719.9628   -42914.293    15.195446   0.97942672 
    5800    214.80002    158.58086     127320.8   -40215.191    2672.5207   -42887.712    15.545262   0.98093548 
    5900    217.50575    6.7524097    127455.73   -40243.972    2706.1851   -42950.157    15.771553   0.97989702 
    6000    218.06491   -4.6242249    127435.02   -40229.463     2713.142   -42942.605    15.972481   0.98005631 
    6100    223.57605    4.2358605     127536.4    -40172.42    2781.7111   -42954.131    16.070868   0.97927719 
    6200    218.06887   -13.422198    127504.08   -40247.669    2713.1913    -42960.86    16.315237   0.97952548 
    6300     218.3004    172.97852    127539.97   -40220.822     2716.072   -42936.894    16.592123   0.97924979 
    6400    219.89747    133.11856    127586.09    -40197.21    2735.9426   -42933.153    16.868098   0.97889584 
    6500    219.45329    1.2780731    127577.28   -40149.141    2730.4162   -42879.558    17.091622   0.97896341 
    6600    222.26455    57.739625    127392.87   -40215.831    2765.3936   -42981.225    17.248163   0.98038053 
    6700    217.73866    129.90493    127493.87   -40293.341    2709.0829   -43002.423    17.441072    0.9796039 
    6800    218.74917   -98.326847    127505.33   -40218.137    2721.6555   -42939.792    17.708091   0.97951586 
    6900    225.01961    107.55239    127576.15   -40168.132    2799.6718   -42967.804    17.831043   0.97897211 
    7000    224.41614     26.50303    127523.37   -40168.433    2792.1635   -42960.597    18.144197   0.97937724 
    7100    223.93386    90.003975       127626   -40181.666    2786.1629   -42967.829    18.210603   0.97858971 
    7200    216.79882    243.86515    127496.89   -40225.547    2697.3894   -42922.937    18.393161   0.97958066 
    7300    216.59756    60.777957    127633.89   -40289.283    2694.8854   -42984.168    18.709565   0.97852919 
    7400    218.29251    175.89849    127810.89   -40322.931    2715.9739   -43038.905    18.911233   0.97717411 
    7500    218.24402    123.24284    127880.34   -40304.839    2715.3705    -43020.21    19.029446   0.97664342 
    7600    213.80683    86.912703    127819.46    -40393.48    2660.1634   -43053.643    19.382165   0.97710861 
    7700    219.06117     132.7989    128053.58   -40293.114    2725.5374   -43018.652    19.684168   0.97532214 
    7800    219.42051    26.986942    128095.44   -40258.332    2730.0082    -42988.34    19.980521   0.97500339 
    7900    216.98391    193.16842    128188.61   -40335.973    2699.6924   -43035.665    20.341933   0.97429478 
    8000    221.40965    161.22868    128301.93   -40310.239     2754.757   -43064.996    20.654138   0.97343423 
    8100     213.0403   -61.401281    128313.65   -40382.413    2650.6264   -43033.039     20.76604   0.97334532 
    8200    215.89123    55.031354    128429.24   -40413.259    2686.0973   -43099.357     20.71223   0.97246931 
    8300    218.62118    239.06798    128493.66   -40394.286    2720.0631   -43114.349    20.809693   0.97198172 
    8400     217.9895    267.44374    128740.63   -40354.959    2712.2038   -43067.163     20.87234   0.97011715 
    8500    221.61309    134.06611    128933.37   -40296.358    2757.2881   -43053.646    21.109111   0.96866691 
    8600    217.67642    88.006787    128741.34   -40324.277    2708.3086   -43032.585    21.411898   0.97011179 
    8700    225.20395      28.5435    128557.22   -40320.248    2801.9652   -43122.214    21.525237   0.97150115 
    8800    217.37324     67.15768    128572.31   -40365.909    2704.5363   -43070.446    21.751382   0.97138718 
    8900    217.19826   -86.470463    128385.99    -40454.78    2702.3592   -43157.139     21.80027   0.97279685 
    9000     218.9099   -94.772954    128457.27   -40418.163    2723.6553   -43141.818    21.981942   0.97225708 
    9100     213.3177    22.712897    128295.43   -40477.952    2654.0778    -43132.03    22.176642   0.97348358 
    9200    220.97048   -3.2090069    128398.92    -40366.67    2749.2929   -43115.963     22.58099   0.97269889 
    9300    215.54313   -108.50686    128397.65   -40413.998    2681.7663   -43095.765    22.655508   0.97270857 
    9400    220.73817   -24.828127    128448.85   -40369.358    2746.4025    -43115.76     22.77548   0.97232078 
    9500    222.94045    -20.91489    128379.29   -40394.699    2773.8031   -43168.503     22.99713   0.97284766 
    9600    222.04071    32.937415    128332.17   -40370.504    2762.6086   -43133.112    23.215507   0.97320487 
    9700    223.00184   -45.292798    128348.49   -40314.525    2774.5668   -43089.092    23.526124   0.97308107 
    9800    219.86458    17.513019    128484.97   -40386.084    2735.5333   -43121.617    23.948768   0.97204745 
    9900    215.83401    21.240988    128576.16   -40449.237    2685.3854   -43134.623    24.036156   0.97135811 
   10000    218.71913    26.767064    128672.08   -40451.226    2721.2817   -43172.507    24.174912   0.97063395 
   10100    213.56529   0.34835331    128685.14   -40430.181    2657.1582   -43087.339    24.209453   0.97053547 
   10200    216.68054    81.206682    128716.89   -40493.812    2695.9178    -43189.73    24.405289   0.97029606 
   10300    218.74741    105.83028    128605.64   -40489.328    2721.6336   -43210.962    24.433283   0.97113541 
   10400    220.78944    -69.94587    128760.51   -40433.008    2747.0404   -43180.048    24.628857   0.96996736 
   10500    221.00793   -91.027976    128595.95   -40417.563    2749.7589   -43167.321    24.757327   0.97120857 
   10600    220.28323   -12.694822    128454.22   -40353.176    2740.7422   -43093.918    25.013044   0.97228017 
   10700     223.0252    135.85806    128471.61   -40338.855    2774.8575   -43113.713    25.117851   0.97214854 
   10800    218.19086    330.36419    128580.26   -40324.069    2714.7091   -43038.778    25.456744   0.97132713 
   10900    222.56017    124.64918    128608.67   -40353.558    2769.0717    -43122.63     25.62216   0.97111257 
   11000    221.39558    164.24617    128758.98   -40339.588     2754.582    -43094.17    25.766551   0.96997885 
   11100    220.30434   -12.509863    128784.72   -40382.248    2741.0049   -43123.252    26.050268   0.96978498 
   11200    223.29681    82.200271     128600.1   -40378.376    2778.2368   -43156.612    26.187399   0.97117728 
   11300    224.22374     58.25025    128719.26   -40389.351    2789.7696    -43179.12    26.267849   0.97027819 
   11400    221.32196   -45.160296    128685.31   -40406.156    2753.6659   -43159.822    26.540168   0.97053415 
   11500    219.87968   -38.494346    128561.26   -40447.901    2735.7213   -43183.622    26.726216   0.97147068 
   11600    221.12983    205.50709    128647.31    -40459.82    2751.2755   -43211.095     26.85085   0.97082083 
   11700    221.51309   -43.002006    128734.07   -40368.083    2756.0439   -43124.127    26.956216   0.97016655 
   11800    221.68356    238.03392    128886.26   -40449.477    2758.1649   -43207.642    27.106511   0.96902097 
   11900    219.23438   -66.078705     129074.9   -40480.493    2727.6925   -43208.185    27.379194   0.96760479 
   12000    217.07271    216.82652     129034.2   -40485.668    2700.7972   -43186.465    27.563825   0.96791002 
   12100    219.62605    6.3631359    129033.63   -40435.806    2732.5656   -43168.372    27.806647    0.9679143 
   12200    221.17656   -34.751543    129120.61   -40449.018    2751.8569   -43200.875    27.892557   0.96726225 
   12300     222.0847    205.73199    129088.08   -40492.425    2763.1559   -43255.581    27.893158   0.96750601 
   12400    220.84729    91.897575    129109.63   -40479.079    2747.7601   -43226.839    28.213393   0.96734449 
   12500    215.29691   -145.13883    128983.18   -40569.215    2678.7029   -43247.918    28.466716   0.96829288 
   12600    223.34983     93.57032    128998.46   -40487.074    2778.8965   -43265.971    28.742543   0.96817816 
   12700    222.08991   -65.306974    128958.22   -40464.293    2763.2207   -43227.514    28.907247    0.9684803 
   12800    223.04094    146.22399    128956.69    -40436.41    2775.0533   -43211.464    29.081988   0.96849176 
   12900    222.94672    116.00834    129002.05   -40483.836     2773.881   -43257.717    29.174824   0.96815118 
   13000    223.85336   0.73486791    128970.94   -40420.407    2785.1613   -43205.569    29.187804   0.96838477 
   13100    221.94206    52.365294    129160.47   -40423.208    2761.3812    -43184.59    29.369737   0.96696375 
   13200    223.97406    198.62444     129315.6   -40340.451    2786.6631   -43127.115    29.515643   0.96580373 
   13300     224.7271    146.17735    129196.32   -40401.731    2796.0323   -43197.764     29.75415   0.96669539 
   13400    216.30389    10.432551    129175.04   -40476.188    2691.2316    -43167.42    29.673818    0.9668547 
   13500    216.99193   -4.0882313    129221.27   -40502.027    2699.7921   -43201.819    29.816836   0.96650878 
   13600    221.58883   -20.766755    129164.31    -40512.93    2756.9863   -43269.917    30.132513   0.96693497 
   13700    216.30979    284.35476    129344.12   -40515.487     2691.305   -43206.792    30.478697    0.9655908 
   13800     222.2198    144.30662    129483.82   -40432.249    2764.8368   -43197.086    30.691164   0.96454898 
   13900     221.0729   -16.206758    129448.76    -40470.47    2750.5671   -43221.037    30.928853   0.96481022 
   14000     219.1865   -83.774983    129398.51   -40450.467    2727.0968   -43177.564    31.179407   0.96518492 
   14100    221.39291   -44.923726     129322.1   -40466.546    2754.5487   -43221.095     31.32886    0.9657552 
   14200    217.92656    26.703955    129157.53    -40514.68    2711.4207   -43226.101    31.448509   0.96698575 
   14300     217.7169   -14.524607    129061.79   -40556.369    2708.8121   -43265.181    31.554108   0.96770309 
   14400    216.79409   -2.4869359     129115.6   -40525.022    2697.3306   -43222.352    31.733043   0.96729977 
   14500    220.02178    140.71027    129091.63   -40473.607    2737.4893   -43211.096    31.939422    0.9674794 
   14600    220.31115    246.19988    129025.02   -40481.533    2741.0895   -43222.623    31.887965   0.96797889 
   14700    216.76212   -2.5549611    129041.35    -40530.34    2696.9328   -43227.273    31.781221   0.96785639 
   14800    217.12029    185.39605    128886.84   -40571.192    2701.3891   -43272.581    31.879246   0.96901663 
   14900    216.43843    77.361788    128962.44   -40652.513    2692.9056   -43345.419    32.192106    0.9684486 
   15000    215.70939    148.91966    128966.19   -40644.751    2683.8349   -43328.586    32.402381   0.96842043 
   15100    214.91244    113.10677     128952.4   -40660.205    2673.9193   -43334.124    32.422016   0.96852396 
   15200    215.56036   -71.995397    128905.53   -40583.248    2681.9807   -43265.229    32.441868    0.9688761 
   15300    215.79088    151.05445    128879.06    -40579.96    2684.8488   -43264.808    32.796351   0.96907513 
   15400     218.7105   -13.024119    128811.58   -40561.995    2721.1744   -43283.169    32.991793   0.96958276 
   15500    218.55662   -96.257512    128854.98   -40540.792    2719.2599   -43260.052     33.06886   0.96925624 
   15600    219.29349    105.16293    128844.33   -40480.443    2728.4279   -43208.871    33.013128   0.96933633 
   15700    213.80536    71.640351       128895   -40548.097    2660.1451   -43208.242    32.812381   0.96895528 
   15800    217.63035    200.98495       128783   -40549.197    2707.7353   -43256.932    32.980377   0.96979794 
   15900    217.55637    236.85234    128863.57   -40575.501    2706.8149   -43282.316    33.199328   0.96919159 
   16000    219.70234     110.2946    128781.96   -40502.524    2733.5148   -43236.039     33.35502   0.96980583 
   16100    218.69701    21.181314    128879.31   -40448.447    2721.0066   -43169.453    33.624811   0.96907321 
   16200    220.51138   -80.967697     128863.3   -40497.497    2743.5808   -43241.078    33.889156   0.96919362 
   16300    220.64932    128.80128    129010.59   -40502.127    2745.2971   -43247.424    34.027056   0.96808711 
   16400    222.22194    148.87865    128861.98   -40420.123    2764.8635   -43184.986    34.199627    0.9692036 
   16500    224.34913   -224.10348    128608.73   -40428.635    2791.3297   -43219.964    34.331746   0.97111204 
   16600    224.59576    91.964556    128735.35   -40410.502    2794.3982     -43204.9    34.458922   0.97015691 
   16700    219.78634      8.03405    128763.84   -40443.947    2734.5599   -43178.507    34.491758   0.96994228 
   16800    220.07209   -44.231274    128816.58   -40437.406    2738.1151   -43175.521    34.698644   0.96954519 
   16900    219.39306    297.88213    128876.97   -40401.506    2729.6667   -43131.173    34.821041   0.96909082 
   17000    224.26512    57.261741    128821.86   -40424.444    2790.2844   -43214.729    34.762303   0.96950545 
   17100    225.90549    -87.50734    128826.42   -40359.268    2810.6938   -43169.961      34.9736   0.96947114 
   17200    224.96977    244.01346    128969.85   -40389.215    2799.0517   -43188.266    34.979255    0.9683929 
   17300    219.19143    194.23724    129412.74   -40457.135    2727.1581   -43184.293    35.330886   0.96507878 
   17400    221.34307   -11.851946    129191.14   -40483.228    2753.9286   -43237.156    35.618285   0.96673418 
   17500    220.02747   -249.95116    128983.97   -40459.196    2737.5601   -43196.756    35.741147   0.96828694 
   17600    221.54101    104.60378    128893.85   -40437.797    2756.3913   -43194.189    35.798632   0.96896393 
   17700    219.22507     125.1039    129028.18   -40446.431    2727.5767   -43174.008    36.319792   0.96795515 
   17800     222.0929    30.096238    129035.57   -40451.711    2763.2579   -43214.969    36.482835   0.96789971 
   17900    222.90507    207.61465    129066.27   -40413.569    2773.3628   -43186.932    36.873316   0.96766948 
   18000     220.8824    123.55374    129187.51   -40353.338    2748.1969   -43101.535    37.173984   0.96676135 
   18100    219.37961   -56.595191    129265.51   -40448.696    2729.4994   -43178.196    37.365177   0.96617801 
   18200    221.60938   -2.6492764    129135.87   -40450.122     2757.242   -43207.364     37.46228   0.96714793 
   18300    223.57247    210.42732    129169.43   -40368.929    2781.6665   -43150.596    37.485362   0.96689665 
   18400    222.45257    2.7760138     129284.5   -40451.416    2767.7329   -43219.149    37.648066   0.96603604 
   18500    223.79532    138.68739    129192.16   -40435.335    2784.4393   -43219.774    37.601015   0.96672656 
   18600    220.56655    -47.42347    129158.79    -40505.02    2744.2672   -43249.287    38.129838   0.96697634 
   18700    222.32276   -140.03698    129076.87   -40487.497    2766.1177   -43253.615    38.486298   0.96759003 
   18800    222.30927    220.78386     128996.8    -40451.82      2765.95    -43217.77    38.558757   0.96819062 
   18900    220.99444    47.954445    129012.39   -40496.998     2749.591   -43246.589    38.912757   0.96807364 
   19000    223.36238   -158.90862    128922.46    -40478.55    2779.0527   -43257.603    38.885629   0.96874893 
   19100    218.36018   -25.215708    128894.66   -40538.303    2716.8157   -43255.118    38.988385   0.96895783 
   19200    220.02842    259.61055    129013.45   -40504.821    2737.5719   -43242.393    39.214109   0.96806563 
   19300    225.04217    37.826298     129167.6   -40446.965    2799.9524   -43246.917     39.23095   0.96691034 
   19400    216.32462   -18.156101    128911.36    -40447.73    2691.4895    -43139.22    39.279546   0.96883229 
   19500     217.8504     187.5352     129111.4   -40426.029    2710.4731   -43136.502    39.148227   0.96733127 
   19600    226.06323   -52.436763    128958.58   -40461.819    2812.6564   -43274.475    39.210141   0.96847753 
   19700    222.91485    103.48185    128762.49    -40445.11    2773.4845   -43218.595    39.628463    0.9699524 
   19800    219.35249    19.577659    128686.92   -40466.452     2729.162   -43195.614    39.766307   0.97052206 
   19900     220.3617    53.796757    128891.01   -40473.904    2741.7185   -43215.623    39.835206   0.96898532 
   20000    216.23835    51.684164     128745.3   -40523.364    2690.4161    -43213.78    40.024071   0.97008194 
   20100    216.61077    101.78409    128852.32   -40475.499    2695.0497   -43170.549     40.28735   0.96927621 
   20200    217.37105    159.45915     129047.2   -40516.073    2704.5091   -43220.582     40.29903   0.96781249 
   20300    215.91255    94.902316    128925.06   -40547.565    2686.3627   -43233.928    40.614351   0.96872935 
   20400    214.59322    137.71202    128918.93   -40548.484    2669.9476   -43218.431    40.616854   0.96877539 
   20500    219.32803   -73.604275    128990.33   -40504.096    2728.8577   -43232.954    40.919019    0.9682392 
   20600     217.6532    26.275321    128909.87   -40521.244    2708.0196   -43229.263    41.350895   0.96884349 
   20700    222.83034    268.11787    128956.46   -40456.534    2772.4331   -43228.967    41.446605   0.96849348 
   20800     220.8764    97.518144     128905.4    -40466.77    2748.1223   -43214.893    41.619023   0.96887714 
   20900     221.7793   -29.334092    129083.69    -40506.91    2759.3561   -43266.266    41.772801   0.96753889 
   21000     215.2674     136.4645    129246.98   -40606.217    2678.3357   -43284.553    41.909583   0.96631655 
   21100    218.13439    90.107813    129283.82    -40623.38    2714.0065   -43337.387     42.15542   0.96604115 
   21200    214.91965    59.878774    129168.22   -40615.541    2674.0091    -43289.55    42.235996   0.96690571 
   21300    217.03923    -207.2718    129332.56   -40634.431    2700.3806   -43334.812    42.434891   0.96567713 
   21400    218.31743   -2.5489523    129257.65   -40608.752    2716.2839   -43325.036    42.367418   0.96623674 
   21500    220.00516    63.410522    129215.55   -40604.234    2737.2824   -43341.517    42.575449   0.96655154 
   21600    220.88108    164.46523    129348.59   -40557.814    2748.1806   -43305.994    42.511471   0.96555739 
   21700    219.47435   -5.7655828    129239.37   -40536.679    2730.6782   -43267.357    42.726707   0.96637339 
   21800    218.59286   -25.462334    129362.93   -40519.671    2719.7107   -43239.382    43.074264   0.96545039 
   21900    220.34707    55.544723    129371.79   -40523.504    2741.5364    -43265.04    43.495774   0.96538427 
   22000    216.78583    102.62452    129263.15   -40559.709    2697.2279   -43256.936    43.633565    0.9661956 
   22100    220.76607    -49.26985    129097.32   -40499.869    2746.7496   -43246.618    43.958812   0.96743672 
   22200    222.61087    150.41039    129142.98   -40536.424    2769.7025   -43306.127    44.193041   0.96709468 
   22300    220.36525   -8.1368303    129000.83   -40509.059    2741.7626   -43250.822    44.486124   0.96816039 
   22400    220.94052    4.0379952    129054.96   -40477.619    2748.9201   -43226.539    44.360688   0.96775429 
   22500    224.97366   -1.4305667    129059.43   -40503.141       2799.1   -43302.241     44.25944   0.96772081 
   22600    224.07226    115.92487    129235.33   -40476.978    2787.8849   -43264.862    44.228984   0.96640363 
   22700    221.34903   -5.2332437    129164.74   -40487.926    2754.0028   -43241.928    44.401353   0.96693178 
   22800    222.50411    23.989514    129168.61   -40462.298    2768.3741   -43230.672    44.549915   0.96690282 
   22900     219.9238   -272.59173    129013.05   -40506.195    2736.2701   -43242.466    44.952944   0.96806865 
   23000     223.1607   -1.4055307    128784.23   -40473.126    2776.5434   -43249.669    45.195066   0.96978873 
   23100    218.74095    128.59275    128648.91   -40550.955    2721.5533   -43272.508    45.194066   0.97080876 
   23200    217.36483    239.77718    128838.66   -40475.643    2704.4317   -43180.075    45.349081   0.96937904 
   23300    218.71056   -38.350826    129021.48   -40532.191    2721.1752   -43253.366    45.539825    0.9680054 
   23400    219.96431    191.68706    129139.11   -40469.277    2736.7742   -43206.051    45.735423   0.96712368 
   23500    221.69765    9.5232554    129164.32   -40511.608    2758.3402   -43269.949    46.125049   0.96693492 
   23600     218.2452    76.139818    129158.34   -40498.174    2715.3852   -43213.559    46.437742   0.96697967 
   23700     220.5241    88.344818    129087.69   -40527.437    2743.7391   -43271.176    46.427085   0.96750894 
   23800     215.2604   -58.375807    129106.06   -40594.107    2678.2486   -43272.356    46.420713   0.96737126 
   23900    218.04383    110.11387    128997.48   -40609.406    2712.8798   -43322.286    46.506765   0.96818548 
   24000    222.06885    205.71162    129041.56    -40535.59    2762.9587   -43298.549    46.732008   0.96785476 
   24100    221.38196    46.522881    129229.11   -40538.455    2754.4125   -43292.867    47.120185   0.96645012 
   24200    219.18559   -72.948739    129084.68   -40594.165    2727.0854    -43321.25    47.291782   0.96753149 
   24300    218.50722   -17.211373    128985.88   -40560.996    2718.6453   -43279.641    47.329613   0.96827258 
   24400    215.43952   -23.557779     128904.5    -40616.61    2680.4772   -43297.087    47.234404   0.96888386 
   24500    221.49718     86.34679     128891.9   -40568.759    2755.8461   -43324.605    47.336968   0.96897861 
   24600    218.59538    49.533457    128838.45   -40553.808    2719.7421    -43273.55    47.320495   0.96938055 
   24700    217.60152    88.412358    128936.33   -40569.473    2707.3766   -43276.849    47.490964   0.96864466 
   24800    218.67662    19.732305    128954.09   -40565.675    2720.7529   -43286.428    47.627862    0.9685113 
   24900    220.41047    205.13075    129040.73       -40512    2742.3253   -43254.326    47.862824     0.967861 
   25000    222.58587    10.270851    128880.71   -40493.158    2769.3914    -43262.55     48.01959   0.96906274 
   25100    223.98152   -23.520471     128810.8   -40502.674    2786.7559    -43289.43    48.244333   0.96958865 
   25200    221.63145    42.870132    129134.43   -40556.151    2757.5166   -43313.668    48.425288    0.9671587 
   25300    220.90828   -111.90404    129015.95   -40561.458     2748.519   -43309.977     48.52048    0.9680469 
   25400    220.87521   -32.251123     128928.4   -40552.284    2748.1076   -43300.392    48.552066   0.96870425 
   25500    218.76483    203.80419     128889.9   -40498.866    2721.8503   -43220.716    48.518604   0.96899363 
   25600    218.02827    83.619044    128821.83   -40582.279    2712.6862   -43294.966       48.816   0.96950565 
   25700    215.49674   -71.652347    128857.35   -40577.926    2681.1891   -43259.115    49.013243   0.96923843 
   25800     220.5933    160.88181    128954.53   -40533.612       2744.6   -43278.212    49.259143   0.96850799 
   25900    222.30019    -131.7221    128955.77   -40488.001     2765.837   -43253.838    49.294916    0.9684987 
   26000    223.29121    186.42124    128912.22   -40422.854    2778.1672   -43201.021     49.37457   0.96882586 
   26100    220.32117   -45.515787    128795.26     -40507.2    2741.2142   -43248.415    49.567423   0.96970562 
   26200    220.30092    92.810513    128664.86   -40486.003    2740.9623   -43226.966    49.578243   0.97068841 
   26300    219.65072     154.0598    128773.18   -40440.511    2732.8725   -43173.383    49.789214   0.96987196 
   26400    222.00033     107.4334    128695.78   -40440.668    2762.1061   -43202.775    49.882241   0.97045519 
   26500    222.47892    18.307522     128808.3   -40506.339    2768.0608     -43274.4    50.213604    0.9696075 
   26600    218.05136    18.392236     128835.6   -40547.099    2712.9735   -43260.072    50.427964   0.96940204 
   26700    220.38518   -26.475417    128731.17   -40583.483    2742.0106   -43325.494    50.366828   0.97018844 
   26800    223.88118    191.07028    128821.34   -40518.053    2785.5076    -43303.56    50.734723   0.96950933 
   26900    216.29002    24.797473    128926.58   -40528.406    2691.0591   -43219.465    51.031932   0.96871794 
   27000    219.10543    115.76304    128870.12   -40587.888     2726.088   -43313.976    51.015614   0.96914236 
   27100    219.76883    159.29798    128853.67   -40592.797     2734.342   -43327.139    51.054443   0.96926605 
   27200    216.61344   -112.89784     129001.1   -40599.969     2695.083   -43295.052      51.1454   0.96815838 
   27300    215.56633   -107.17141    128961.52   -40626.435     2682.055    -43308.49    51.525769   0.96845545 
   27400    224.76874    154.91373    128866.68   -40558.134    2796.5505   -43354.684    51.620865   0.96916819 
   27500     222.3691    132.34505    129072.81   -40504.366    2766.6944   -43271.061    51.748311   0.96762047 
   27600    220.54598    31.335637     128975.8   -40538.513    2744.0113   -43282.524    52.078644   0.96834829 
   27700    218.10546    83.500824    128988.85   -40538.156    2713.6465   -43251.802    52.032673   0.96825032 
   27800    223.49118    73.097235     129022.8   -40484.277    2780.6552   -43264.932    51.892851   0.96799549 
   27900    222.29657   -12.676276    129014.72   -40500.436    2765.7919   -43266.228     52.12238   0.96805613 
   28000    220.12413   -10.585975    129079.52   -40523.657    2738.7626    -43262.42    52.218787   0.96757018 
   28100    220.90261    7.6285108    129237.04   -40503.341    2748.4484   -43251.789    52.448895   0.96639085 
   28200    222.20694   -74.943049    129193.44   -40553.084    2764.6767   -43317.761    52.311647   0.96671701 
   28300    219.68248    148.68791    129130.81   -40537.766    2733.2678   -43271.034    52.471817   0.96718585 
   28400    218.73922    167.48413    129207.81   -40571.918    2721.5317    -43293.45    52.555511   0.96660948 
   28500    216.84021    184.45667    129338.51   -40591.446    2697.9044   -43289.351    52.854007   0.96563269 
   28600    220.53102    10.948605    129162.87    -40552.33    2743.8251   -43296.156    52.900824   0.96694581 
   28700    218.30693   -126.68945     128999.9   -40575.761    2716.1533   -43291.914    52.925038   0.96816735 
   28800    221.68442    16.268086    129065.97   -40551.286    2758.1757   -43309.462    53.182795   0.96767176 
   28900    224.65627    3.5004922    129086.58   -40521.012    2795.1512   -43316.163    53.279824   0.96751722 
   29000      218.866    80.773824    129163.12   -40585.758    2723.1091   -43308.867     53.54688   0.96694392 
   29100    221.57384    144.18459    129350.87   -40515.719    2756.7998   -43272.519    53.639622   0.96554042 
   29200    220.84577   -78.786667    129109.11   -40482.267    2747.7413   -43230.009    53.862098   0.96734838 
   29300    220.85035   -16.748298    129134.18   -40540.989    2747.7982   -43288.787    53.905708   0.96716058 
   29400    218.15536   -101.88154    129179.05   -40590.893    2714.2674   -43305.161    54.084929   0.96682464 
   29500    218.01409    60.372705    129200.13   -40618.442    2712.5097   -43330.952    54.277173    0.9666669 
   29600    220.80038    16.594923     129239.2   -40539.516    2747.1765   -43286.692    54.324603   0.96637465 
   29700    218.78241    192.24739    129277.46   -40597.124    2722.0691   -43319.193    54.533488    0.9660887 
   29800    219.16452   -38.348564    129339.27   -40581.657    2726.8233    -43308.48     54.86919     0.965627 
   29900    219.68446   -131.73358    129259.79   -40610.534    2733.2923   -43343.826    54.988142   0.96622078 
   30000    220.28521    34.517659    129318.42   -40585.232    2740.7668   -43325.998    54.934089   0.96578272 
   30100    222.85711   -43.928333    129211.72   -40577.159    2772.7662   -43349.925    55.347672   0.96658023 
   30200    220.58855    121.22314    129084.76   -40595.297    2744.5409   -43339.838    55.428432   0.96753086 
   30300    218.80387    55.135207    129076.23   -40558.596    2722.3361   -43280.932     55.39508   0.96759478 
   30400    223.84695     -11.5885    129056.72   -40529.021    2785.0816   -43314.103    55.766574   0.96774107 
   30500    220.53765    63.894437    128965.97   -40530.626    2743.9077   -43274.533    55.976869   0.96842209 
   30600    222.79014    88.005638    129064.36   -40524.567    2771.9329     -43296.5    55.939999    0.9676838 
   30700    220.44635   -37.670155    129084.37   -40543.676    2742.7717   -43286.448     56.14169   0.96753383 
   30800    223.59077    63.838496    129089.97   -40492.087    2781.8943   -43273.982    56.067095   0.96749182 
   30900    220.20813   -6.4185278    129030.36   -40610.217    2739.8078   -43350.025    55.837551   0.96793877 
   31000    215.92223    99.763697    129080.22   -40666.264     2686.483   -43352.747    56.105739   0.96756488 
   31100    220.19239    115.29531    129142.73   -40655.165     2739.612   -43394.777    56.059641   0.96709655 
   31200    218.11206    -32.48063    129447.61   -40662.649    2713.7287   -43376.377    56.442619   0.96481886 
   31300    219.64279    51.956152    129497.71   -40622.135    2732.7739   -43354.908    56.311476   0.96444559 
   31400    213.50408   0.95500588    129509.95   -40589.465    2656.3966   -43245.862    56.529871   0.96435443 
   31500     219.1826  -0.46129347    129598.32   -40636.207    2727.0482   -43363.256    56.874108   0.96369682 
   31600    221.08559    84.719704    129643.03   -40577.086     2750.725   -43327.811     56.98249   0.96336446 
   31700    216.86795    77.937021    129557.52   -40610.143    2698.2496   -43308.393    57.164194    0.9640003 
   31800    221.77617    29.430927    129353.72   -40536.943    2759.3171    -43296.26    57.288194   0.96551911 
   31900    219.72818     68.26247    129490.57   -40502.749    2733.8363   -43236.585    57.507599   0.96449877 
   32000    222.13864   -23.923152    129321.44   -40500.898     2763.827   -43264.725     57.60404    0.9657601 
   32100    220.71847     47.71198    129386.81   -40522.107    2746.1574   -43268.265    57.662575    0.9652722 
   32200    221.42652    157.89206    129228.22   -40522.515    2754.9669   -43277.482      57.8186   0.96645681 
   32300    222.20019    95.253258    129331.38    -40500.37    2764.5928   -43264.963    58.318509   0.96568588 
   32400     221.2084   -126.55535    129344.86   -40560.551    2752.2531   -43312.804    58.304428   0.96558526 
   32500    218.00112    103.13549    129419.41   -40560.014    2712.3484   -43272.363    58.301221   0.96502907 
   32600     219.6492    146.11833    129377.33   -40499.978    2732.8536   -43232.832    58.407621   0.96534296 
   32700    219.50033   -52.568492    129489.25   -40570.788    2731.0015   -43301.789    58.433944   0.96450857 
   32800    219.35914   -117.07389    129410.49   -40617.645    2729.2448    -43346.89    58.920855   0.96509555 
   32900    222.40225     66.88392    129483.13   -40628.468    2767.1069   -43395.575    59.266529   0.96455414 
   33000     222.1896    108.04266    129673.36   -40685.708    2764.4611   -43450.169    59.337252   0.96313913 
   33100    218.15887   -156.16722    129251.02   -40623.231     2714.311   -43337.542    59.628324   0.96628629 
   33200    217.97106    138.12492    129281.45   -40652.724    2711.9744   -43364.698    59.748987   0.96605888 
   33300    219.40908    233.26047    129298.46   -40571.079    2729.8661   -43300.946    59.704405   0.96593178 
   33400    218.82627   -43.945314    129486.34   -40642.579    2722.6148   -43365.193    59.836103   0.96453023 
   33500    222.42712    42.822876    129385.32   -40598.021    2767.4162   -43365.438    60.007144   0.96528329 
   33600    223.98629    54.762103    129468.26   -40565.947    2786.8153   -43352.762      60.1087   0.96466492 
   33700    220.35927   -92.634163    129648.72   -40575.047    2741.6882   -43316.735    60.347047   0.96332218 
   33800    217.86173    80.158668    129773.58   -40582.807    2710.6141   -43293.421     60.41482   0.96239533 
   33900    222.50271    96.314484    129715.66   -40601.038    2768.3568   -43369.395    60.538583   0.96282505 
   34000    221.84624   -20.683725    129560.18     -40573.2     2760.189   -43333.389    60.813442   0.96398053 
   34100    222.80883    193.29664    129598.95   -40610.848    2772.1655   -43383.014    60.744876   0.96369212 
   34200    219.60289    69.189065     129656.6   -40622.017    2732.2774   -43354.295    60.949196   0.96326363 
   34300    216.77444   -44.687771    129672.59   -40682.636    2697.0861   -43379.722     60.97427   0.96314489 
   34400     220.7687    167.33919    129859.29   -40614.404    2746.7824   -43361.186    61.294771   0.96176016 
   34500    218.78965    88.288299    129763.66   -40637.596    2722.1592   -43359.755    61.304378   0.96246895 
   34600    221.39887    133.70098     130083.3   -40627.293    2754.6229   -43381.916    61.346311   0.96010397 
   34700    217.19355    88.871315    129848.27   -40708.371    2702.3007   -43410.671    61.280471   0.96184181 
   34800    215.82925   -135.92934    129828.52   -40690.864    2685.3262    -43376.19    61.328259    0.9619881 
   34900    217.90537    28.581715    129776.69   -40682.756    2711.1571   -43393.913    61.294449   0.96237232 
   35000    216.64889    163.81932    129825.13   -40758.412    2695.5241   -43453.936     61.49856   0.96201324 
   35100    221.07212    282.06479    129771.71   -40688.421    2750.5574   -43438.979    61.566357   0.96240921 
   35200    218.90202    81.229632    129658.78   -40694.387    2723.5573   -43417.944    61.464085   0.96324747 
   35300     217.1067   -96.321019    129668.54   -40678.901    2701.2201   -43380.121    61.486713   0.96317496 
   35400    218.16914   -7.1032404     129929.4   -40697.198    2714.4389   -43411.637    61.849994   0.96124121 
   35500    217.97487   -84.169621    129766.94   -40592.971    2712.0218   -43304.993     61.65731   0.96244461 
   35600     216.8929    89.112334    129894.93   -40636.156      2698.56   -43334.716    61.901121   0.96149626 
   35700    222.30294    43.405547    129785.99   -40602.309    2765.8713   -43368.181    62.139623   0.96230334 
   35800    222.68297   -201.73075    129655.33   -40651.937    2770.5995   -43422.537    62.058961   0.96327313 
   35900    221.39146    137.48897    129732.08   -40591.209    2754.5307   -43345.739    61.989386   0.96270319 
   36000    225.50712    67.574734    129924.99   -40557.689    2805.7373   -43363.426    62.213675   0.96127383 
   36100     223.0363    132.61975    129938.39   -40586.516    2774.9956   -43361.512    62.504265   0.96117466 
   36200    221.04127    87.086595    130075.21   -40632.719    2750.1736   -43382.892    62.670919   0.96016368 
   36300    214.71349    102.12191    129930.08   -40689.295     2671.444   -43360.739    62.733336   0.96123616 
   36400    220.98018   -12.973067    129863.96   -40629.106    2749.4135   -43378.519    62.969298   0.96172555 
   36500    220.23342    147.05614    130039.01   -40609.163    2740.1224   -43349.285    63.260506   0.96043099 
   36600    217.92007    28.805302    129845.06   -40722.728      2711.34   -43434.068    63.459457   0.96186555 
   36700    219.84876   -77.501422    130048.15   -40667.697    2735.3365   -43403.034    63.338023   0.96036349 
   36800    220.44203    111.45086    130176.62   -40659.028    2742.7179   -43401.746    63.421409   0.95941567 
   36900    215.42542   -51.108338    130083.02   -40680.983    2680.3017   -43361.285    63.446757   0.96010603 
   37000    220.69776     38.37734    130260.47   -40623.782    2745.8998   -43369.682    63.702905   0.95879812 
   37100    222.78604    105.05315    129998.82   -40599.194    2771.8819   -43371.076    63.825117   0.96072785 
   37200    221.21568   -26.742141    130041.03   -40644.055    2752.3436   -43396.398    64.013307   0.96041602 
   37300    215.83517   -119.65384    130043.56   -40650.722    2685.3998   -43336.122    64.146062   0.96039739 
   37400    215.70678   -21.025783    129980.93   -40668.624    2683.8025   -43352.427    64.316855   0.96086013 
   37500     216.3967    11.894279     130049.5   -40699.358    2692.3863   -43391.745    64.453795   0.96035346 
   37600    223.54221    12.009091    129855.22   -40659.296    2781.2901   -43440.586    64.572203   0.96179028 
   37700    215.82934     111.2047    129647.71   -40658.959    2685.3273   -43344.286    64.738374   0.96332972 
   37800    217.72431     114.8242    129590.02   -40750.881    2708.9044   -43459.786    64.708484   0.96375853 
   37900    215.32685    94.577203    129526.23   -40709.481    2679.0754   -43388.556     64.75169   0.96423322 
   38000    218.61815   -12.043908    129616.19   -40680.447    2720.0254   -43400.473    64.811572   0.96356398 
   38100    217.76595    56.573714    129734.01   -40633.146    2709.4224   -43342.568    65.180894   0.96268888 
   38200    219.02459    214.66151    129933.67   -40648.667    2725.0823    -43373.75    65.513444   0.96120961 
   38300    222.39359    102.91164    129959.45   -40597.984    2766.9991   -43364.983    65.634981   0.96101893 
   38400    217.81022    118.48429     129935.7   -40663.618    2709.9733   -43373.591    66.011485   0.96119459 
   38500    221.08976    69.617201    129894.99   -40680.265    2750.7769   -43431.042    66.326613   0.96149582 
   38600    216.53601    84.776312    129866.47   -40632.045    2694.1196   -43326.165    66.462468   0.96170699 
   38700    222.06557   -146.02792    129706.98   -40645.605    2762.9179   -43408.523    66.318662    0.9628895 
   38800    220.66908   -63.299779    129676.03   -40683.017    2745.5429   -43428.559    66.527788   0.96311932 
   38900    222.28939    248.90733    129788.78    -40638.49    2765.7027   -43404.192    66.812707   0.96228268 
   39000    223.99814   -41.731725     129716.5    -40681.21    2786.9627   -43468.173    67.104248   0.96281886 
   39100    220.05486    37.458075    129861.31    -40644.49    2737.9008   -43382.391    67.285689   0.96174523 
   39200    221.80819    28.926699    129908.99   -40674.747    2759.7156   -43434.462    67.301712   0.96139224 
   39300    219.39775    61.647648    129762.84   -40655.877    2729.7251   -43385.602    67.206272   0.96247501 
   39400    217.30963     97.32236    129839.43   -40614.463     2703.745   -43318.208    67.516483    0.9619073 
   39500    225.23529    146.26717    129830.36   -40598.298    2802.3552   -43400.653    67.939001    0.9619745 
   39600    218.82439    202.55992    129905.51   -40635.634    2722.5914   -43358.225    68.094057   0.96141796 
   39700    222.98701    104.07938    130085.62   -40586.916    2774.3824   -43361.298    67.898689   0.96008687 
   39800    221.49397    196.80207    130002.26   -40669.263    2755.8061   -43425.069    67.835532   0.96070247 
   39900    216.81604   -122.64905    129934.43   -40725.388    2697.6038   -43422.992    68.015314   0.96120395 
   40000    216.45192    -68.71005    129872.68   -40756.654    2693.0734   -43449.727    68.169174   0.96166102 
   40100    220.65052    77.225273    129885.98   -40665.249    2745.3119   -43410.561    68.318938   0.96156251 
   40200    217.12746    -30.68747    129983.23    -40687.75    2701.4784   -43389.228    68.532121   0.96084314 
   40300    220.03846     32.79455    129926.64    -40664.92    2737.6968   -43402.617    68.509477   0.96126158 
   40400     224.9204    51.545595    129848.26     -40582.1    2798.4374   -43380.538    68.470785   0.96184187 
   40500    223.92986    1.1351653    129823.99   -40589.279    2786.1131   -43375.392    68.311529   0.96202166 
   40600    221.75361     130.9158    129781.24   -40636.913    2759.0365   -43395.949    68.728249   0.96233859 
   40700    220.85317    106.15905    129905.96   -40686.148    2747.8333   -43433.981    68.853462   0.96141466 
   40800    216.34267    106.13712    129969.39   -40736.045    2691.7141    -43427.76    69.158306   0.96094542 
   40900    216.29209    73.325662    129871.04   -40749.421    2691.0849   -43440.506    69.272083   0.96167317 
   41000    222.93798    207.14396     129941.2   -40659.438    2773.7723    -43433.21    69.293118   0.96115393 
   41100    220.40764    147.64641     129828.2   -40626.298    2742.2901   -43368.588    69.082751   0.96199046 
   41200    216.87486    236.73642    129845.36   -40621.627    2698.3356   -43319.963    69.360445   0.96186335 
   41300    218.39009    70.614622    129870.12    -40757.52    2717.1879   -43474.708    69.721362   0.96167998 
   41400    217.51685    238.49143    129965.33   -40693.285    2706.3232   -43399.609    69.850791   0.96097544 
   41500    213.77502    117.82139    130138.32   -40688.715    2659.7677   -43348.483    69.887169   0.95969801 
   41600    222.48756    53.095703    130137.43   -40656.456    2768.1683   -43424.624    70.197543    0.9597046 
   41700    218.64739    7.1154693    130002.03   -40631.587    2720.3892   -43351.976    70.238794   0.96070418 
   41800    216.65435      33.4154    130111.44   -40656.092    2695.5921   -43351.684     70.52877   0.95989628 
   41900    221.04191    159.21846    130372.21   -40624.294    2750.1816   -43374.476    71.056487   0.95797631 
   42000    221.91542    93.442528    130292.76   -40625.937    2761.0497   -43386.987     71.14058   0.95856048 
   42100    221.10464    9.3152412    130275.49   -40645.784    2750.9621   -43396.746    71.503833   0.95868758 
   42200     221.1216    -82.67685    130099.69   -40616.212    2751.1731   -43367.385    71.560608   0.95998298 
   42300    222.73571   -34.131043    129855.77   -40597.745    2771.2557   -43369.001    71.615124   0.96178619 
   42400    218.94853   -75.795679    129709.51   -40621.697    2724.1359   -43345.833    71.829821   0.96287076 
   42500    222.68601    121.14206    129684.92   -40614.872    2770.6373   -43385.509    71.975223   0.96305329 
   42600    220.85841   -7.6251348    129709.07   -40615.866    2747.8985   -43363.764    72.220782   0.96287402 
   42700    221.53116   -39.466786    129684.61   -40636.503    2756.2688   -43392.772    72.265608   0.96305564 
   42800     223.1962    182.99865    129668.15   -40585.755    2776.9851    -43362.74    72.034563   0.96317784 
   42900    219.31661    202.86899    129724.74   -40639.451    2728.7155   -43368.167    71.895192   0.96275766 
   43000    220.56103    115.62967    129656.16   -40663.345    2744.1985   -43407.543    72.231071   0.96326693 
   43100    221.92323    81.788941    129633.75   -40652.819    2761.1469   -43413.966    72.470477   0.96343346 
   43200    218.18758    2.0995147    129785.34   -40611.506    2714.6683   -43326.175    72.741946   0.96230818 
   43300    224.30418    176.10637    129584.29   -40620.828    2790.7705   -43411.599     72.85968   0.96380119 
   43400    220.21928    72.505661    129582.39   -40565.441    2739.9466   -43305.388    73.026788   0.96381529 
   43500    223.64859    41.314871    129711.95   -40580.625    2782.6137   -43363.239    73.027786   0.96285263 
   43600    224.26675    265.03078    129574.44   -40481.729    2790.3047   -43272.034    72.935155   0.96387442 
   43700    224.61013     25.41436    129630.34    -40503.76     2794.577   -43298.337    73.444281   0.96345879 
   43800     223.3181   -64.045646    129452.03   -40509.223    2778.5017   -43287.725    73.774313   0.96478589 
   43900    222.36748     141.8832    129184.66   -40540.911    2766.6742   -43307.586    73.650656   0.96678269 
   44000    214.70122   -55.617462    129176.46   -40563.843    2671.2914   -43235.134    73.691268   0.96684408 
   44100    222.61921    104.43306    129043.64   -40561.826    2769.8063   -43331.632    73.887413   0.96783917 
   44200    217.50492    45.005374       128987   -40592.927    2706.1747   -43299.101    73.889265    0.9682642 
   44300    219.81357    162.19646    128897.23   -40590.517    2734.8987   -43325.416    74.087545   0.96893851 
   44400    220.78495    223.70218    129327.36   -40559.905    2746.9845   -43306.889     74.29878   0.96571592 
   44500    219.01652    39.375744    129272.56   -40590.392    2724.9819   -43315.373    74.526672   0.96612534 
   44600    215.71468    -32.75117    129121.06   -40659.935    2683.9008   -43343.836    74.767938   0.96725889 
   44700     221.6819    133.60831    129155.99    -40650.22    2758.1443   -43408.364    74.802097   0.96699725 
   44800    218.13732   -92.108642    128925.39    -40624.19     2714.043   -43338.233    74.836709   0.96872689 
   44900    223.27551   -38.759638     128767.9   -40580.445    2777.9718   -43358.417    74.892474   0.96991172 
   45000    221.29022    58.938276    128955.33   -40575.681     2753.271   -43328.952    74.887964   0.96850197 
   45100    222.56214    91.597019     128851.5   -40510.583    2769.0961   -43279.679    75.133959   0.96928239 
   45200    218.28368   -59.051882    128947.58   -40557.139    2715.8639   -43273.003    75.280308   0.96856019 
   45300    218.03992   -13.802953    128944.74   -40562.744    2712.8311   -43275.575    75.516961   0.96858154 
   45400    222.26718    59.631014    128860.99    -40543.89    2765.4263   -43309.316    75.464302   0.96921098 
   45500    218.99057   -86.229838    128951.21   -40556.342     2724.659   -43281.001    75.581895   0.96853291 
   45600    220.09882    129.27754    128967.19    -40544.59    2738.4478   -43283.038    75.597864    0.9684129 
   45700     219.9966    159.47522     129138.9   -40557.093     2737.176   -43294.269    75.948907   0.96712522 
   45800    226.38538    58.013255    129345.46   -40482.429    2816.6645   -43299.093    75.952696   0.96558082 
   45900    226.74474    90.518533    129356.39    -40422.23    2821.1357   -43243.366    76.259658   0.96549921 
   46000    224.74469   -43.771161    129459.13   -40406.602    2796.2513   -43202.853    76.469459   0.96473298 
   46100    226.86581    110.63193    129205.11   -40351.816     2822.642   -43174.458    76.973905   0.96662962 
   46200    229.24543    98.475724    129286.98   -40350.688     2852.249   -43202.937    77.407436   0.96601751 
   46300    227.97023    258.11245    129233.04   -40376.391     2836.383   -43212.774    77.505191   0.96642073 
   46400    219.49296    102.16757    129351.72    -40398.85    2730.9097   -43129.759    77.482864   0.96553402 
   46500    219.81784   -80.949959    129312.38   -40406.556    2734.9519   -43141.508    77.905365   0.96582776 
   46600    224.33484    34.794596     129369.3    -40398.23    2791.1519   -43189.382    77.983839   0.96540288 
   46700    219.79842    66.538724    129433.26   -40486.992    2734.7102   -43221.702    77.926145   0.96492579 
   46800    218.67623    74.846258    129520.59    -40556.46     2720.748   -43277.208    77.829272    0.9642752 
   46900    224.85605    129.24844    129358.73   -40497.889    2797.6367   -43295.526    77.960039   0.96548176 
   47000    220.89526   -87.784337     129417.7   -40494.534     2748.357   -43242.891    78.327418   0.96504184 
   47100    225.41628   -68.726669    129279.74   -40472.268     2804.607   -43276.875    78.394921   0.96607165 
   47200    220.17818    108.46373    129296.26   -40538.837    2739.4351   -43278.272    78.237163    0.9659482 
   47300    222.03272    161.39417    129370.36   -40573.025    2762.5091   -43335.534      78.3613   0.96539492 
   47400     221.3267   -123.87178    129459.35   -40532.289     2753.725   -43286.014    78.910981   0.96473134 
   47500    221.34688   -89.299811    129492.49   -40473.619     2753.976   -43227.595    78.831275   0.96448441 
   47600    223.26519    51.338906    129685.68   -40424.152    2777.8434   -43201.996    79.361875   0.96304765 
   47700    219.67136   -88.722464    129560.38   -40475.903    2733.1293   -43209.032    79.336343   0.96397907 
   47800    224.08304   -14.828817    129626.64   -40489.691    2788.0191    -43277.71    79.663885   0.96348629 
   47900    219.10988   -44.336558    129444.44   -40595.891    2726.1434   -43322.034    79.672942   0.96484243 
   48000    216.85826    29.933508    129424.32   -40628.912     2698.129   -43327.041    79.841217   0.96499242 
   48100    221.69744    82.273049    129304.22   -40605.891    2758.3376   -43364.228    79.882591   0.96588872 
   48200     220.2695   -72.255769    129327.83   -40638.524    2740.5714   -43379.095    79.911052    0.9657124 
   48300    219.91935    86.680809    129385.03   -40624.524    2736.2148   -43360.739    79.880115   0.96528551 
   48400    227.96526    317.46499    129585.44   -40554.811    2836.3212   -43391.132    80.103109   0.96379259 
   48500    221.68409    99.863459    129608.51   -40619.891    2758.1715   -43378.062     80.47596   0.96362107 
   48600    221.65281     47.41019    129597.29   -40627.424    2757.7824   -43385.206    80.761453   0.96370453 
   48700    221.19931    83.081168    129642.92   -40599.811    2752.1399   -43351.951    81.011472   0.96336532 
   48800     217.8528   -70.022886     129303.5   -40643.004     2710.503   -43353.507     80.90973   0.96589411 
   48900    219.39589   -8.2859912     129326.7    -40628.82    2729.7019   -43358.522    80.564906   0.96572089 
   49000    216.10512    86.794155    129274.05   -40647.896    2688.7586   -43336.655     80.74816    0.9661142 
   49100    217.87747   -57.853739    129239.97   -40638.377    2710.8099   -43349.187    80.943584   0.96636892 
   49200    221.17638    103.51722    129236.97   -40647.975    2751.8546   -43399.829     80.85645   0.96639136 
   49300    221.29778   -64.927699    129233.53   -40584.386    2753.3651   -43337.751    80.986923   0.96641709 
   49400    216.52462    79.883385     129124.7   -40540.565    2693.9779   -43234.543    81.026493   0.96723162 
   49500    220.49798    61.050594    129030.62   -40555.656    2743.4141    -43299.07    81.338338   0.96793685 
   49600    223.55686     179.1241    129319.55   -40545.794    2781.4724   -43327.266    81.647628   0.96577426 
   49700    217.31008    31.047226    129223.35   -40576.939    2703.7505   -43280.689    81.684756   0.96649324 
   49800    220.16071     32.72808    129263.89   -40624.751    2739.2178   -43363.969    81.907452   0.96619014 
   49900    222.58945    83.073628    129122.31    -40510.36    2769.4359   -43279.796    82.016761    0.9672495 
   50000    222.28747    113.90561    128834.96   -40541.733    2765.6787   -43307.412      82.0631   0.96940687 
   50100    221.39529    70.775336    128941.09   -40561.499    2754.5784   -43316.077    82.291319   0.96860896 
   50200    218.53139    201.89173    129056.69   -40613.265     2718.946   -43332.211     82.50006   0.96774133 
   50300    223.45431    201.06073    129163.46   -40578.071    2780.1964   -43358.267    82.598289   0.96694138 
   50400    218.57071    -25.58487    129213.81   -40607.055    2719.4351    -43326.49    82.586505   0.96656458 
   50500    216.94634   -148.91409    128963.37   -40644.973    2699.2249   -43344.198    82.464072   0.96844156 
   50600    215.05923    23.601197    128981.28   -40647.585    2675.7457   -43323.331    82.644814    0.9683071 
   50700    214.09504   -7.3793274    129104.98   -40639.974    2663.7493   -43303.723    82.783246   0.96737931 
   50800    216.66217    85.741517    128921.52   -40639.002    2695.6893   -43334.691    82.742007   0.96875592 
   50900    218.99832   -26.749285    128900.92   -40537.635    2724.7555   -43262.391    82.699429   0.96891079 
   51000     216.2891   -66.765795    128894.44   -40559.846    2691.0476   -43250.894    83.037078   0.96895949 
   51100    219.07044    278.47453    129040.04   -40599.727    2725.6528    -43325.38    83.191465   0.96786618 
   51200     216.2814     19.29143    129090.84   -40583.089    2690.9518    -43274.04    83.304171   0.96748528 
   51300    218.28424    130.33159    129045.19   -40650.873    2715.8709   -43366.743    83.612349   0.96782756 
   51400    215.01981    275.34225    129172.49   -40648.685    2675.2552    -43323.94    83.617818   0.96687374 
   51500    220.05738    148.27203    129267.27   -40648.615    2737.9322   -43386.547    83.854409   0.96616486 
   51600    219.17251    244.07476     129164.7   -40600.252    2726.9228   -43327.175    83.996615    0.9669321 
   51700    217.68314   -9.6340474    129232.39   -40605.742    2708.3921   -43314.134    84.174688   0.96642557 
   51800    221.57909    53.080258    129141.55   -40659.257    2756.8651   -43416.122    84.315097   0.96710537 
   51900    218.19129    57.662495    129376.65    -40713.08    2714.7145   -43427.794    84.478651   0.96534804 
   52000    216.56842    46.917049    129448.16     -40738.5    2694.5229   -43433.023    84.546474   0.96481475 
   52100    217.80911   -113.85065    129330.88   -40687.613    2709.9594   -43397.572    84.620361   0.96568965 
   52200    218.08058   -93.170387    129355.56    -40704.22     2713.337   -43417.557     84.73871   0.96550538 
   52300     218.2588    47.466166    129400.78   -40677.948    2715.5544   -43393.502    84.635672   0.96516797 
   52400    218.76886    129.20614    129595.61   -40629.829    2721.9006    -43351.73     85.01141   0.96371696 
   52500    221.52106    195.09653     129691.6   -40628.589    2756.1431   -43384.732    85.214546   0.96300374 
   52600    215.37693   -94.246596     129664.9   -40658.995    2679.6985   -43338.693    85.230754   0.96320199 
   52700    217.46608    42.561934    129535.52   -40679.441    2705.6915   -43385.132    85.371588   0.96416405 
   52800    222.55709    59.411127    129718.87   -40632.857    2769.0333    -43401.89    85.410107   0.96280125 
   52900     222.3975     40.31993    129552.51   -40642.355    2767.0477   -43409.402    85.395105   0.96403757 
   53000    222.89288     81.68443    129656.79   -40632.986    2773.2112   -43406.198    85.842299   0.96326227 
   53100    219.95725    227.06862     129565.3   -40680.722    2736.6864   -43417.408    85.771726   0.96394246 
   53200    218.45955     49.72444    129669.72   -40680.136    2718.0521   -43398.188    86.163272   0.96316619 
   53300    221.75583    68.347256    129561.25   -40676.081    2759.0641   -43435.145    86.161538   0.96397255 
   53400    215.18059    130.43629    129687.31    -40737.59    2677.2556   -43414.846    86.292415   0.96303559 
   53500    217.84174   -58.625592    129752.94   -40749.104    2710.3653   -43459.469    86.403683   0.96254846 
   53600     216.8651    95.873575     129729.3   -40764.443    2698.2142   -43462.657    86.327618   0.96272385 
   53700    217.11551   -31.385009     129968.2   -40794.693    2701.3298   -43496.023    86.448428   0.96095424 
   53800    221.56683    50.566025    129868.18   -40674.384    2756.7126   -43431.097      86.6446   0.96169434 
   53900    214.55983    151.67432     129925.6   -40720.716    2669.5322   -43390.248    86.936219   0.96126933 
   54000    218.68934    30.396393    129713.22   -40689.459    2720.9111    -43410.37    86.744309   0.96284317 
   54100    218.49358   -68.568842     129697.8   -40697.209    2718.4755   -43415.684    87.019254   0.96295766 
   54200    222.70713    116.46984     129596.8    -40677.38    2770.9001    -43448.28    87.069849   0.96370813 
   54300    220.15121   -53.194932    129475.54   -40650.214    2739.0996   -43389.314    86.899868   0.96461072 
   54400    214.92493    70.621911    129246.29   -40667.806    2674.0747   -43341.881    86.944243   0.96632166 
   54500    218.11784    146.69842    129232.75   -40651.387    2713.8006   -43365.188    86.915494    0.9664229 
   54600    225.50983    -68.70622    129234.08   -40568.753     2805.771   -43374.524    87.050731   0.96641295 
   54700    220.30262    179.50911    129108.06   -40566.556    2740.9835   -43307.539    87.266561    0.9673563 
   54800       218.63    30.214124    129270.83   -40636.918    2720.1729   -43357.091    87.458435   0.96613821 
   54900    219.87039    225.14201    129315.82   -40679.068    2735.6057   -43414.674    87.681314   0.96580207 
   55000     215.5149     -35.9972    129365.56   -40732.607    2681.4151   -43414.022    88.112143   0.96543079 
   55100    213.50484   -98.893664     129468.7   -40694.456    2656.4061   -43350.862    88.005526   0.96466165 
   55200    217.80774  0.033752763     129413.8   -40705.825    2709.9423   -43415.767    88.002985   0.96507092 
   55300    218.78313    18.936843    129425.42   -40672.761    2722.0781   -43394.839    88.022945   0.96498423 
   55400    221.73416   -26.247146    129493.16   -40662.194    2758.7944   -43420.989    88.244351   0.96447945 
   55500     222.1975   -5.3031483    129486.43   -40621.992    2764.5593   -43386.551    88.226001   0.96452957 
   55600    220.00246     165.6556    129521.25    -40673.77    2737.2488   -43411.019    88.448781   0.96427026 
   55700    218.43603    131.96474    129522.72    -40678.28    2717.7594   -43396.039    88.628101   0.96425929 
   55800    221.90878    86.319835    129523.56   -40678.285    2760.9671   -43439.252    88.743376   0.96425304 
   55900    217.64727    138.69192    129544.45   -40637.734    2707.9458    -43345.68    89.063275   0.96409758 
   56000    222.60209    123.41821    129660.58   -40624.619    2769.5932   -43394.212    89.321298   0.96323406 
   56100    221.85351   -18.052993    129598.89   -40591.217    2760.2794   -43351.496    89.273567   0.96369263 
   56200    225.15025    220.36068    129600.95   -40586.986    2801.2972   -43388.284     89.40367    0.9636773 
   56300    219.16859    38.303229    129519.03     -40617.2    2726.8739   -43344.074    89.546978   0.96428678 
   56400    223.06377    308.40924    129586.57   -40605.051    2775.3374   -43380.388    89.518564   0.96378423 
   56500    217.00433    65.840364    129601.47   -40685.948    2699.9464   -43385.894    89.660443   0.96367344 
   56600    221.31433    79.154272    129539.37   -40710.404    2753.5711   -43463.976    89.728808    0.9641354 
   56700    215.14135    74.096685    129423.53   -40740.767    2676.7674   -43417.534    89.801338   0.96499831 
   56800    221.03109   -9.2580958    129563.28   -40676.102    2750.0469   -43426.149    90.014716   0.96395747 
   56900    220.62781    110.03901     129675.1   -40671.175    2745.0294   -43416.204    90.105098    0.9631262 
   57000    224.98919    203.63235     129745.2   -40625.549    2799.2933   -43424.843    90.321328   0.96260585 
   57100    218.10427    93.266433    129938.51   -40687.163    2713.6318   -43400.795    90.450062    0.9611738 
   57200     219.8846    78.726139    130019.77   -40732.795    2735.7824   -43468.577      90.2262    0.9605731 
   57300    218.06116    25.066231    130011.28   -40777.731    2713.0954   -43490.826    90.460081    0.9606358 
   57400    215.32832    56.007278    130111.96   -40784.211    2679.0936   -43463.305    90.744629   0.95989245 
   57500    211.30998   -104.21177    129855.91   -40833.855    2629.0979   -43462.953    90.844808   0.96178519 
   57600    216.98467    159.18025    129879.64   -40767.353    2699.7018   -43467.055    90.930492   0.96160947 
   57700    217.49383   -63.947591    129996.77   -40810.279    2706.0367   -43516.316     91.11445   0.96074304 
   57800    212.26785   -93.264731    129732.95   -40836.318    2641.0157   -43477.334    91.144966   0.96269678 
   57900    218.45172   -80.785434    129597.99   -40796.215    2717.9547   -43514.169    91.018012   0.96369929 
   58000    213.79685     111.1562    129664.92   -40788.422    2660.0393   -43448.461    90.926665   0.96320186 
   58100    217.38806   -38.841868    129700.94   -40715.499    2704.7207    -43420.22    91.397696   0.96293435 
   58200     218.4955    67.549982    129790.75   -40665.327    2718.4994   -43383.827    91.471958   0.96226805 
   58300    219.18607    61.039924    130007.23   -40610.347    2727.0914   -43337.438    91.433631   0.96066577 
   58400     220.1396   -22.442189    129940.77   -40613.023    2738.9552   -43351.978    91.559707   0.96115706 
   58500    221.61384   -3.1253243       129980   -40622.256    2757.2975   -43379.554    91.789831   0.96086696 
   58600    222.24853    75.570899    130117.38   -40577.218    2765.1943   -43342.413    91.741666   0.95985247 
   58700    218.61052    175.74176    130236.15   -40574.752    2719.9304   -43294.682     91.79393   0.95897715 
   58800    221.13663   -265.34669    130149.15     -40634.6      2751.36    -43385.96    91.929027   0.95961819 
   58900    218.00749    165.41163    130301.51   -40686.198    2712.4276   -43398.626    91.994693    0.9584961 
   59000    216.58326    7.1021662    130197.46   -40676.515    2694.7075   -43371.222    92.137939   0.95926209 
   59100    222.69571   -109.52188    130148.26   -40672.639     2770.758   -43443.397    92.267816   0.95962471 
   59200    217.66358    212.66155     130090.5   -40694.473    2708.1488   -43402.622    92.529329   0.96005085 
   59300    215.37816   -66.680956    130057.63    -40684.15    2679.7137   -43363.863    92.776259   0.96029347 
   59400    216.55465     62.76445    129994.17   -40731.319    2694.3516    -43425.67    92.987511   0.96076225 
   59500    220.41405    108.63117    129962.42   -40689.744    2742.3698   -43432.114    92.942116   0.96099695 
   59600    216.14834    274.97952    129950.62   -40677.961    2689.2963   -43367.257    93.111358   0.96108425 
   59700    217.79379    176.14029    130061.56   -40707.562    2709.7688    -43417.33    92.992651   0.96026442 
   59800    221.18889    38.992588     130002.6   -40711.769    2752.0103   -43463.779    93.217522   0.96069998 
   59900    221.27416    24.169996    129996.73   -40685.846    2753.0712   -43438.917     93.61832   0.96074331 
   60000    222.02062   -89.410226    129993.08   -40725.197    2762.3587   -43487.555     93.63152   0.96077029 
   60100    218.00038    276.49447    129973.62   -40679.922    2712.3392   -43392.262    93.328425   0.96091419 
   60200    218.96989    162.72565     130054.2   -40651.729    2724.4017    -43376.13    93.464162    0.9603188 
   60300    222.35726    133.18073     130027.5   -40613.372     2766.547   -43379.919     93.35313     0.960516 
   60400       224.01   -102.10701    129885.57   -40572.023    2787.1103   -43359.134    93.189182   0.96156555 
   60500     219.1095    106.69279    130031.73   -40593.685    2726.1387   -43319.824    93.488382   0.96048476 
   60600    221.62876    18.733468    130186.66   -40646.395    2757.4832   -43403.878    93.796667   0.95934168 
   60700    217.73184    40.386125    130182.88   -40670.407    2708.9981   -43379.405    94.035146   0.95936959 
   60800    221.94784   -80.303185    130131.03   -40639.377    2761.4531    -43400.83    94.045445   0.95975181 
   60900    219.61402     70.96771    130037.42   -40646.488    2732.4159   -43378.904    94.311044   0.96044271 
   61000    222.57328    171.53801    130151.35     -40689.1    2769.2347   -43458.335    94.494185   0.95960198 
   61100    216.93326    115.16854    130193.34   -40718.113    2699.0621   -43417.176     94.41783   0.95929249 
   61200    216.77612    41.506547    130193.21   -40701.817    2697.1071   -43398.924    94.468716   0.95929342 
   61300    220.82997     5.640154    130250.22   -40698.569    2747.5446   -43446.113    94.621181   0.95887358 
   61400    216.30785   -60.214769    130374.23   -40734.633    2691.2808   -43425.914    94.921209   0.95796151 
   61500    219.41209    34.130626    130504.17   -40732.814    2729.9035   -43462.717    94.842071   0.95700769 
   61600    216.64947    90.954369    130498.81   -40701.008    2695.5313   -43396.539    95.250165   0.95704696 
   61700    217.02528    12.201152    130528.13   -40776.976    2700.2071   -43477.183    95.318862   0.95683198 
   61800    214.16959    1.2439219    130494.81   -40851.605    2664.6769   -43516.282    95.315267   0.95707629 
   61900    216.28167    30.916989    130488.45   -40803.162    2690.9551   -43494.117    95.593214   0.95712298 
   62000     219.9687     21.37048    130382.77   -40764.105    2736.8288   -43500.934    95.381585   0.95789873 
   62100    220.40876   -111.52862    130376.44   -40788.476     2742.304    -43530.78    95.697432   0.95794526 
   62200    220.37602    73.249376    130366.11   -40732.309    2741.8967   -43474.206    95.861226   0.95802112 
   62300    217.05562    69.436739    130349.99     -40755.6    2700.5846   -43456.185     95.84592   0.95813966 
   62400    218.59257    -5.569732    130280.41   -40694.549    2719.7072   -43414.256    95.934596   0.95865137 
   62500     216.4801   -29.869423     130483.8   -40707.701     2693.424   -43401.125    96.245326   0.95715708 
   62600    222.74959    157.84702    130376.48    -40717.04    2771.4284   -43488.468    96.348373   0.95794499 
   62700    221.51418    2.3398576    130375.97   -40740.541    2756.0575   -43496.598    96.521894   0.95794868 
   62800    218.05764   -15.216133    130517.46   -40720.144    2713.0517   -43433.196    96.410117   0.95691019 
   62900    220.42456     69.05084    130722.99   -40677.542    2742.5006   -43420.043    96.802083   0.95540574 
   63000    223.19495    40.676998    130608.18   -40647.526    2776.9695   -43424.495    96.794923   0.95624555 
   63100    223.31292    42.142113    130593.23   -40629.952    2778.4372   -43408.389     96.99486   0.95635505 
   63200    220.08936     47.60748    130525.32    -40658.36      2738.33    -43396.69    97.148073   0.95685258 
   63300     220.6831   -53.452658    130428.88   -40687.492    2745.7173   -43433.209    97.063542   0.95756008 
   63400    222.52075    56.631816    130442.58   -40610.072    2768.5811   -43378.653    97.386088    0.9574595 
   63500    221.80762   -107.95535    130407.27   -40712.031    2759.7084   -43471.739    97.608428   0.95771878 
   63600    216.24994    29.279311    130421.65   -40722.851    2690.5604   -43413.411    97.744259   0.95761317 
   63700    225.30655    8.1391841    130473.74   -40743.044    2803.2418   -43546.286    97.991771   0.95723086 
   63800    213.64711    41.778279    130689.12   -40859.286    2658.1762   -43517.462    98.024465   0.95565334 
   63900    218.32016    57.351635    130447.18   -40860.813    2716.3179   -43577.131    97.648682   0.95742575 
   64000    217.61317    136.18292    130581.43   -40866.255    2707.5216   -43573.777    97.751883   0.95644143 
   64100    220.06239    107.38309    130339.87   -40795.639    2737.9945   -43533.634    97.871859   0.95821402 
   64200     224.2908     92.91301    130377.73    -40789.42    2790.6039   -43580.024    98.143025   0.95793576 
   64300    222.00107     45.98912    130449.63   -40686.068    2762.1154   -43448.183    98.358035   0.95740779 
   64400    221.77841   -78.122895     130401.6   -40708.378     2759.345   -43467.723    98.219584    0.9577604 
   64500    222.31662    58.334003    130381.91   -40687.469    2766.0414    -43453.51    98.762275   0.95790506 
   64600    219.10103    211.92213    130622.62   -40740.871    2726.0334   -43466.904    98.905537   0.95613987 
   64700    220.88811   -18.349115    130604.82   -40762.201     2748.268   -43510.469    99.028863   0.95627013 
   64800     218.9617   -100.07927    130527.79    -40777.41    2724.2998    -43501.71    99.155751   0.95683447 
   64900     221.3761   -17.098825    130334.01   -40760.224    2754.3395   -43514.564    99.297617   0.95825711 
   65000    219.99377     67.33442    130400.18   -40726.025    2737.1408   -43463.166     99.84442   0.95777082 
   65100    219.25947   -196.10344    130419.11   -40756.922    2728.0046   -43484.927    99.767981   0.95763186 
   65200    220.30119    85.395301    130227.75   -40758.244    2740.9656    -43499.21    99.770852   0.95903902 
   65300    221.50886    81.804693    130149.67   -40761.761    2755.9914   -43517.752    99.578741   0.95961437 
   65400    220.84228   -30.961015    130241.02   -40704.739    2747.6979   -43452.436    99.909046   0.95894127 
   65500    220.51628   -88.815281    130362.04   -40756.613    2743.6417   -43500.255    100.05671   0.95805106 
   65600    218.81985   -141.24364     130438.9   -40794.098     2722.535   -43516.633    100.10561   0.95748653 
   65700    219.83249   -26.948947    130257.05   -40850.628    2735.1341   -43585.762    100.16558   0.95882328 
   65800    214.11685    151.71024    130375.71   -40852.528    2664.0207   -43516.549    100.15004   0.95795065 
   65900    214.00264    122.22261    130333.55   -40821.948    2662.5997   -43484.548    100.20824   0.95826048 
   66000    220.29398    140.00976     130488.6   -40720.966     2740.876   -43461.842    100.47177   0.95712183 
   66100    222.86882    158.79344    130536.32   -40668.225    2772.9119   -43441.137    100.78529   0.95677196 
   66200     225.9793    7.5536631    130458.11   -40639.406    2811.6122   -43451.018    100.73156   0.95734553 
   66300    222.53204     119.0754    130420.23   -40669.483    2768.7216   -43438.205    101.18277   0.95762363 
   66400    224.14107   -6.4241646    130377.37   -40713.852    2788.7411   -43502.593     101.3121   0.95793842 
   66500    223.11753    154.10688    130308.88   -40725.817    2776.0063   -43501.823    101.46061    0.9584419 
   66600    219.56272   -221.00122    130285.78   -40745.954    2731.7777   -43477.732    101.51169   0.95861185 
   66700    216.33912    12.255245    130126.64   -40774.928      2691.67   -43466.598      101.506   0.95978421 
   66800    220.61395    39.559063    130304.62   -40715.429     2744.857   -43460.286    101.75992   0.95847325 
[...]
   84600    211.31697    148.65657    130790.43   -40912.212    2629.1848   -43541.396    119.00736   0.95491309 
   84700    219.21062    89.478384    130683.58   -40917.498    2727.3969   -43644.894    119.27142    0.9556938 
   84800      223.202   -21.471903    130669.82   -40900.817    2777.0572   -43677.874    119.14987   0.95579449 
   84900    218.21132   -81.163539    130769.38   -40885.869    2714.9637   -43600.833    119.31343   0.95506681 
   85000    219.40008   -97.475722     130681.1   -40832.276    2729.7541    -43562.03    119.54498   0.95571196 
   85100     222.0358   -10.103987    130857.26   -40835.686    2762.5475   -43598.233    119.75986   0.95442536 
   85200    219.62963    200.23838    131016.19    -40841.33    2732.6102    -43573.94    119.89983   0.95326759 
   85300    215.43656   -86.808185    130869.68   -40872.251    2680.4403   -43552.692    119.78509   0.95433484 
   85400    217.86125    45.299473    130915.96   -40857.885    2710.6081   -43568.493    119.98324   0.95399747 
   85500    217.20684    15.451365    130939.23    -40830.67     2702.466   -43533.136    120.16215    0.9538279 
   85600    226.48889   -72.351297    130862.87   -40800.973    2817.9524   -43618.926    120.01702   0.95438446 
   85700    219.32766    22.527075    130712.54   -40837.797     2728.853    -43566.65    120.15534    0.9554821 
   85800    217.82621    22.325678    130834.33   -40840.809    2710.1722   -43550.981    120.56436   0.95459265 
   85900    222.97894   -6.0595531    130843.14   -40740.162    2774.2819   -43514.444    120.57731   0.95452841 
   86000     217.5844     -39.4023    130801.79   -40789.683    2707.1637   -43496.847    120.66673   0.95483015 
   86100    220.12903    106.84451    130801.15   -40764.769    2738.8237   -43503.593    120.74173   0.95483479 
   86200    219.89761     46.85379    130729.82   -40742.064    2735.9444   -43478.008    120.26074   0.95535583 
   86300    218.68989   -24.475008    130597.16   -40785.112     2720.918    -43506.03    120.43869   0.95632625 
   86400     217.5683    222.20697    130772.36   -40803.865    2706.9633   -43510.828    120.67456     0.955045 
   86500    220.01843   -229.38313    130739.03   -40784.708    2737.4476   -43522.156    120.72433    0.9552885 
   86600    223.56372    128.91632    130623.66   -40726.898    2781.5578   -43508.456    120.60957   0.95613223 
   86700    221.98276    112.58734    130751.28   -40718.061    2761.8875   -43479.949    120.83969     0.955199 
   86800    218.05365    18.328396    130794.01   -40790.826     2713.002   -43503.828    120.91708   0.95488695 
   86900    224.37164   -40.829851     130813.6   -40753.975    2791.6097   -43545.585    120.92138   0.95474397 
   87000     223.8172    65.174295     130748.3   -40761.396    2784.7115   -43546.108    120.98354   0.95522077 
   87100    222.24401    108.70022    130645.52    -40805.51     2765.138   -43570.648    121.12028   0.95597222 
   87200    220.24021   -101.72411    130740.87   -40811.687    2740.2069   -43551.894    121.08373   0.95527506 
   87300    221.21072     42.53044    130666.04   -40821.595    2752.2819   -43573.877    120.97482   0.95582215 
   87400    224.10468    51.332933    130518.29   -40844.596    2788.2883   -43632.884    120.99486   0.95690414 
   87500    218.99893    105.21235    130455.57   -40857.506     2724.763   -43582.269    121.11961    0.9573642 
   87600    221.04295   -11.435696    130506.38   -40855.947    2750.1945   -43606.141    121.35001   0.95699144 
   87700    219.54919    190.84127     130696.3   -40863.224    2731.6093   -43594.833    121.48808   0.95560082 
   87800    222.27897   -16.966757    130748.08   -40847.905     2765.573   -43613.478    121.64118   0.95522239 
   87900    219.76282     52.97124    130936.45   -40885.446    2734.2673   -43619.713    121.90184   0.95384817 
   88000    220.53503   -122.57688    130885.69   -40915.321     2743.875   -43659.196    121.94723   0.95421809 
   88100    222.81839     271.8673    131038.38   -40857.389    2772.2844   -43629.673    121.98349    0.9531062 
   88200    224.46747    17.678481    131059.09   -40845.891     2792.802   -43638.693    122.28513   0.95295558 
   88300    219.85725    -6.417567    131099.06   -40885.987    2735.4422   -43621.429    122.64658   0.95266503 
   88400    218.97725    37.653001    131186.97   -40985.392    2724.4934   -43709.886    122.77775   0.95202667 
   88500    221.29186    85.235303    131094.67   -40883.122    2753.2914   -43636.413     122.5047   0.95269696 
   88600    218.63988   -122.34694    131078.01   -40844.256    2720.2958   -43564.552    122.46741   0.95281804 
   88700    220.16786    120.92818    131145.85   -40837.047    2739.3068   -43576.354    122.89132   0.95232515 
   88800    222.98518   -66.259844    131185.55   -40786.321    2774.3596   -43560.681    123.03121   0.95203693 
   88900    221.42902    -21.87185    131139.47   -40826.341    2754.9979   -43581.339    122.71891   0.95237148 
   89000    223.58549     16.18267    131260.67   -40802.851    2781.8285   -43584.679    122.70619   0.95149211 
   89100    220.15001    111.64947    131210.92   -40892.798    2739.0847   -43631.882    122.89018   0.95185287 
   89200    214.70067    23.447452    131150.41   -40927.094    2671.2845   -43598.379    122.71598   0.95229207 
   89300     218.5608    46.019914    131096.98   -40949.307    2719.3119   -43668.619    123.00479   0.95268018 
   89400    219.07859    148.69404    131155.96   -40974.652    2725.7541   -43700.406    123.29145   0.95225171 
   89500      215.325     9.679731    131175.04   -41013.814    2679.0524   -43692.866    123.30347   0.95211323 
   89600    218.49322    121.93264    131147.03   -41066.888    2718.4711   -43785.359    123.34778   0.95231658 
   89700    219.42332    33.126343    130935.61   -41051.789    2730.0433   -43781.832    122.93653    0.9538543 
   89800    214.68336     5.692844    130919.34   -41007.389    2671.0692   -43678.458    122.96505    0.9539728 
   89900    216.55018    48.891198    130875.92   -41054.394    2694.2959    -43748.69    122.88673   0.95428928 
   90000     215.9625    32.090933    130965.48    -40958.67    2686.9841   -43645.654    123.09577   0.95363672 
   90100    222.58345    147.78492    130851.75   -40962.063    2769.3613   -43731.425    123.14523   0.95446558 
   90200    217.83693    152.27841    130858.18   -40991.901    2710.3055   -43702.207    123.34199   0.95441865 
   90300    214.60336    102.04336    130864.82   -40996.694    2670.0738   -43666.768    123.10081   0.95437022 
   90400    219.28718   -9.9438597    131053.67   -40972.705    2728.3494   -43701.054     123.5721   0.95299498 
   90500    219.06357    47.979078    130955.73   -40936.522    2725.5672   -43662.089    123.54737    0.9537077 
   90600    221.02716    141.76922    130795.94   -40841.238     2749.998   -43591.236    123.65409   0.95487287 
   90700    226.73652    130.47801    130891.45   -40856.552    2821.0333   -43677.586    123.72837   0.95417608 
   90800    222.10656    122.02241    130989.53   -40896.014    2763.4278   -43659.442    123.57461   0.95346163 
   90900    215.62701    135.00771    131250.58   -40980.973    2682.8099   -43663.783    123.63889   0.95156526 
   91000    214.86727    188.33681    131342.43   -40993.057    2673.3574   -43666.414    124.03931    0.9508998 
   91100    217.52626    12.257421    131446.66   -40980.677    2706.4403   -43687.117    124.24349   0.95014582 
   91200    217.17111    77.791671    131457.31   -40932.451    2702.0215   -43634.473    124.32335   0.95006878 
   91300    222.60419   -194.89095     131370.5   -40853.009    2769.6193   -43622.629    124.30395   0.95069665 
   91400    221.46673   -43.085554    131316.74   -40841.011    2755.4671   -43596.478    124.48954   0.95108587 
   91500    223.27428   -109.28414    131144.58   -40860.805    2777.9566   -43638.762    124.51524   0.95233437 
   91600    220.36122     37.75904    130948.97   -40893.877    2741.7126    -43635.59     124.7068   0.95375696 
   91700    222.55128    144.67898    130981.84   -40961.884     2768.961   -43730.845    124.85243    0.9535176 
   91800    216.83071    97.192448    131002.08   -40916.659    2697.7862   -43614.445    124.83532    0.9533703 
   91900    218.83405    108.83094    130909.14   -40917.959    2722.7116    -43640.67    124.64676   0.95404716 
   92000    217.19968   -49.476186    130806.39   -40915.562     2702.377   -43617.939     124.6104   0.95479656 
   92100    214.65462    184.02425    130938.16   -40940.728    2670.7115   -43611.439    124.83056   0.95383573 
   92200     219.7363    73.927215    130976.74   -40876.176    2733.9374   -43610.113    124.73711   0.95355475 
   92300    220.56655     -74.9635    130950.87    -40795.81    2744.2673   -43540.078    124.96866   0.95374313 
   92400    221.86138   -24.281355    130851.53   -40802.301    2760.3773   -43562.678    124.65454   0.95446722 
   92500      222.693    149.95308    130868.76   -40850.459    2770.7243   -43621.183    124.64158   0.95434153 
   92600    223.71163    61.252502    130932.99   -40821.047     2783.398   -43604.445     124.8099   0.95387337 
   92700    221.49456    181.05227    131047.34    -40810.12    2755.8134   -43565.933    125.51175   0.95304103 
   92800    220.39391    199.96703    131209.23   -40856.243    2742.1192   -43598.363    125.52023   0.95186515 
   92900    221.40913    54.150808    131028.77   -40833.117    2754.7505   -43587.867    125.46606   0.95317611 
   93000    217.06816   -66.521403    131046.04   -40866.253    2700.7406   -43566.994    125.53058   0.95305048 
   93100    220.88603   -137.65323    130863.02   -40810.023    2748.2421   -43558.265    125.51314   0.95438339 
   93200    221.89646    168.45254    131021.35   -40829.873    2760.8138   -43590.686    125.54748   0.95323011 
   93300     222.0772    133.03555    131069.49   -40859.057    2763.0626    -43622.12    125.71092   0.95287997 
   93400    220.95389   -34.394358    130785.66   -40906.737    2749.0864   -43655.823    125.41291   0.95494786 
   93500    217.85676     39.29525    130819.79   -40945.519    2710.5522   -43656.072    125.49162   0.95469873 
   93600    214.13354   -43.033399    130938.21   -41015.646    2664.2283   -43679.874     126.1157   0.95383532 
   93700    212.52206    6.2256612    131032.63   -40965.229    2644.1785   -43609.408      126.218   0.95314799 
   93800    220.75095   -49.131762    131039.28    -40921.07    2746.5615   -43667.631    126.38699   0.95309962 
   93900    223.43381    64.632326    130996.64   -40907.807    2779.9414   -43687.748     126.3886   0.95340985 
   94000    219.40998    33.029025    131074.56   -40911.346    2729.8773   -43641.223    126.65901   0.95284311 
   94100    217.58327    120.30577    131025.23   -40913.505    2707.1495   -43620.655     126.5751   0.95320187 
   94200    219.07485    157.78011     131163.1   -40899.257    2725.7076   -43624.964    126.94107    0.9521999 
   94300    220.61159   -34.006614    131100.98   -40862.676    2744.8276   -43607.503    126.89146   0.95265109 
   94400    222.72915    119.65117    131040.17   -40856.481    2771.1741   -43627.656    126.77987    0.9530932 
   94500    225.25161     87.89423    131017.77   -40790.697    2802.5583   -43593.255    126.48348   0.95325613 
   94600    221.15047    124.08813    131317.56   -40836.231    2751.5323   -43587.763    127.10938   0.95107988 
   94700     221.3166    73.003586    131380.93   -40891.461    2753.5992    -43645.06    127.17198   0.95062116 
   94800    218.94237    5.8678658    131362.32   -40888.555    2724.0593   -43612.614    127.49629   0.95075579 
   94900    215.42102    69.446773    131313.53   -40870.081     2680.247   -43550.328    127.17233   0.95110908 
   95000    223.12144    138.20914    131271.52    -40842.88    2776.0549   -43618.935    127.24643   0.95141347 
   95100     223.1965    131.01603    131122.35   -40844.302    2776.9888   -43621.291    127.49061   0.95249585 
   95200    218.13721    96.002572    130978.69   -40869.031    2714.0416   -43583.073    127.63426   0.95354053 
   95300    227.87718    127.77515    131190.06   -40757.534    2835.2254   -43592.759    127.50807    0.9520042 
   95400    218.36101      37.5784    131153.53   -40813.605    2716.8261   -43530.431    127.62001   0.95226939 
   95500    224.09833   -160.72931    130916.16   -40819.695    2788.2092   -43607.905    127.36686   0.95399602 
   95600    220.64764   -4.6178261    130915.28   -40812.969    2745.2761   -43558.245    127.45234    0.9540024 
   95700    217.92905    27.191536    130877.72    -40869.02    2711.4517   -43580.472    127.29902   0.95427621 
   95800    218.97266    123.76273    130783.44   -40921.895    2724.4362   -43646.331    127.35375   0.95496413 
   95900    223.75431    105.88821    130605.84   -40866.878     2783.929   -43650.807    127.50797   0.95626269 
   96000    218.20723    105.84767    130745.92   -40942.937    2714.9128    -43657.85    127.70615   0.95523816 
   96100    218.97827    236.66275    130741.95   -40884.498     2724.506   -43609.004    127.69013   0.95526719 
   96200    215.66315   -68.058283    130629.19   -40920.066    2683.2595   -43603.325     127.5004   0.95609177 
   96300     221.3245    4.5371057    130695.44   -40863.243    2753.6975    -43616.94    127.39684   0.95560714 
   96400    220.70989    8.0681598    130495.56   -40849.998    2746.0506   -43596.048    127.42007   0.95707082 
   96500     216.0414   -7.2369759    130505.92   -40895.627    2687.9658   -43583.592     127.8377   0.95699481 
   96600    219.06646    134.31009    130358.05   -40878.108    2725.6032   -43603.711    127.85788   0.95808037 
   96700    220.00419    63.104735    130625.18   -40954.006    2737.2703   -43691.276    128.11557   0.95612108 
   96800    219.77404    165.09974    130718.73   -41010.454    2734.4069   -43744.861     128.2983   0.95543688 
   96900    215.34194    211.87682     130752.9    -40951.86    2679.2632   -43631.123    128.54942   0.95518714 
   97000    218.77216    87.723768    130802.49   -40967.375    2721.9416   -43689.316    128.74063   0.95482501 
   97100    218.96707   -45.160408    130685.56   -40956.722    2724.3666   -43681.088    128.55069   0.95567938 
   97200    217.82093    77.799496    130598.87    -40961.81    2710.1064   -43671.916    128.39494   0.95631375 
   97300    213.93797   -141.64863    130631.66   -40958.092     2661.795   -43619.887    128.40957   0.95607364 
   97400     215.7847    8.3526693    130522.95   -40952.089    2684.7719   -43636.861    128.14577   0.95686994 
   97500    221.07044    58.409277    130553.65   -40843.874    2750.5365    -43594.41    128.34956   0.95664499 
   97600     217.3836    -21.27499    130502.71   -40893.213    2704.6652   -43597.878    128.70278   0.95701835 
   97700    222.15658   -70.779547    130496.99   -40813.801    2764.0503   -43577.851    128.73843   0.95706029 
   97800    219.40487     89.94835    130545.03   -40768.381    2729.8136   -43498.194    128.86417   0.95670814 
   97900    222.79725   -90.148972    130528.66   -40729.776    2772.0213   -43501.797    128.73375   0.95682808 
   98000    224.18002    122.24222    130425.26   -40747.382    2789.2257   -43536.608    129.02814   0.95758666 
   98100    218.21247   -14.540857    130405.86   -40827.463    2714.9779   -43542.441    129.09417   0.95772912 
   98200    219.00714    75.177411    130298.17   -40789.165    2724.8652   -43514.031    129.38505   0.95852066 
   98300    219.41028    90.515652    130480.99    -40813.55     2729.881   -43543.431     129.5064   0.95717771 
   98400    216.78552     92.21546    130603.84   -40831.102     2697.224   -43528.326    129.56214   0.95627735 
   98500    216.63357    23.382153    130634.78   -40838.559    2695.3335   -43533.892    129.71097   0.95605082 
   98600    217.51884     92.81971    130659.81   -40867.934    2706.3479   -43574.282    129.63128   0.95586772 
   98700    215.37366   -96.147019    130589.36   -40912.492    2679.6578    -43592.15    129.66069   0.95638337 
   98800    217.51181    1.5820004    130563.25   -40863.391    2706.2604   -43569.652    129.89704   0.95657461 
   98900     217.5818   -39.394751    130461.57   -40866.026    2707.1312   -43573.157    130.06599   0.95732014 
   99000    213.07001   -6.7131896    130409.79   -40883.153     2650.996   -43534.149    129.90319   0.95770029 
   99100    218.11587    101.48423    130455.05   -40801.231    2713.7761   -43515.007    129.85894   0.95736804 
   99200    220.72802   -121.82604    130471.93   -40796.774    2746.2762    -43543.05    129.96173   0.95724413 
   99300    225.00901   -28.107743    130495.82    -40741.81    2799.5399    -43541.35    130.29643   0.95706892 
   99400    220.52258    79.547647    130407.29   -40709.495    2743.7201   -43453.215    130.39365   0.95771866 
   99500    225.03818   -3.6207326    130430.71   -40596.749    2799.9028   -43396.652    130.48346   0.95754669 
   99600    222.03349    110.14598    130340.63   -40631.172    2762.5187    -43393.69    130.52156   0.95820843 
   99700    220.00551   -78.243684    130513.54   -40650.607    2737.2869   -43387.894    130.72474   0.95693899 
   99800    224.11867    60.839785    130515.78   -40685.722    2788.4623   -43474.185    130.86643   0.95692256 
   99900    219.24762    71.112619    130496.78    -40753.23    2727.8572   -43481.087    130.85494   0.95706189 
  100000    219.80403     38.79809    130676.03   -40764.458      2734.78   -43499.238    131.36098   0.95574901 
  100100    224.64311     3.552156    130517.29   -40701.901    2794.9874   -43496.888    131.23392   0.95691148 
  100200    221.55654    88.455663    130493.69   -40707.691    2756.5845   -43464.276    131.46872   0.95708451 
  100300     223.3506   -62.565002    130652.22   -40683.022    2778.9061   -43461.928    131.29937   0.95592325 
  100400    220.64911   -80.680569    130418.93   -40728.267    2745.2945   -43473.561    131.08509   0.95763314 
  100500     226.7121    96.553575    130496.21   -40659.151    2820.7296    -43479.88    131.44773   0.95706602 
  100600     223.2911   -131.86296    130389.96   -40733.695    2778.1658   -43511.861    131.76084   0.95784589 
  100630    222.56668   -20.183658    130304.77   -40713.467    2769.1526    -43482.62     131.6454    0.9584721 
Loop time of 85.2935 on 6 procs for 100000 steps with 4175 atoms

Performance: 506.487 ns/day, 0.047 hours/ns, 1172.423 timesteps/s
98.6% CPU use with 6 MPI tasks x no OpenMP threads

MPI task timing breakdown:
Section |  min time  |  avg time  |  max time  |%varavg| %total
---------------------------------------------------------------
Pair    | 68.586     | 69.591     | 71.061     |  11.1 | 81.59
Neigh   | 5.1193     | 5.1458     | 5.1702     |   0.8 |  6.03
Comm    | 6.4837     | 7.9938     | 9.0221     |  33.2 |  9.37
Output  | 0.16084    | 0.16169    | 0.16531    |   0.4 |  0.19
Modify  | 1.7538     | 1.7778     | 1.8086     |   1.6 |  2.08
Other   |            | 0.6237     |            |       |  0.73

Nlocal:        695.833 ave         708 max         687 min
Histogram: 2 1 0 0 1 0 0 1 0 1
Nghost:        1470.00 ave        1498 max        1442 min
Histogram: 1 1 0 0 1 0 1 1 0 1
Neighs:        0.00000 ave           0 max           0 min
Histogram: 6 0 0 0 0 0 0 0 0 0
FullNghs:      19397.0 ave       19990 max       18893 min
Histogram: 1 0 0 2 1 1 0 0 0 1

Total # of neighbors = 116382
Ave neighs/atom = 27.875928
Neighbor list builds = 5536
Dangerous builds = 0

undump              1
unfix               2
unfix               3
unfix               4


################################################
#######         Run Simulation         #########
################################################

reset_timestep      0
log                 log.run_${NAME}
log                 log.run_liquid_density_MLmW
