
# Create simulation box of size 50 x 50 x 50 Angstrom
#
lattice	            sc 1
Lattice spacing in x,y,z = 1.0000000 1.0000000 1.0000000
region 	            all block 0 50 0 50 0 50 units box
create_box          1 all
Created orthogonal box = (0.0000000 0.0000000 0.0000000) to (50.000000 50.000000 50.000000)
  1 by 2 by 3 MPI processor grid

# fill box with 4175 randomly distributed atoms
#
create_atoms        1 random 4175 63782 all
Created 4175 atoms
  create_atoms CPU = 0.001 seconds
mass                1 18.015

# Define potential
#
pair_style          sw
pair_coeff          * * ML_mW.sw mW
Reading sw potential file ML_mW.sw with DATE: 2019-02-27

# Run minimization
#
minimize            1.0e-8 1.0e-8 10000 1000
WARNING: Using 'neigh_modify every 1 delay 0 check yes' setting during minimization (../min.cpp:187)
Neighbor list info ...
  update every 1 steps, delay 0 steps, check yes
  max neighbors/atom: 2000, page size: 100000
  master list distance cutoff = 6.0032907
  ghost atom cutoff = 6.0032907
  binsize = 3.0016454, bins = 17 17 17
  1 neighbor lists, perpetual/occasional/extra = 1 0 0
  (1) pair sw, perpetual
      attributes: full, newton on
      pair build: full/bin/atomonly
      stencil: full/bin/3d
      bin: standard
Per MPI rank memory allocation (min/avg/max) = 4.255 | 4.258 | 4.261 Mbytes
Step Temp E_pair E_mol TotEng Press 
       0            0    7792709.3            0    7792709.3    5898794.3 
     630            0   -45180.336            0   -45180.336   -154.07449 
Loop time of 1.15835 on 6 procs for 630 steps with 4175 atoms

98.7% CPU use with 6 MPI tasks x no OpenMP threads

Minimization stats:
  Stopping criterion = max force evaluations
  Energy initial, next-to-last, final = 
      7792709.32924461  -45180.0188663597   -45180.336116598
  Force two-norm initial, final = 2.0191930e+08 4.9721331
  Force max component initial, final = 1.0948746e+08 0.73126211
  Final line search alpha, max atom move = 0.053306038 0.038980685
  Iterations, force evaluations = 630 1000

MPI task timing breakdown:
Section |  min time  |  avg time  |  max time  |%varavg| %total
---------------------------------------------------------------
Pair    | 0.88369    | 0.98793    | 1.0621     |   5.8 | 85.29
Neigh   | 0.023679   | 0.024686   | 0.025591   |   0.4 |  2.13
Comm    | 0.050347   | 0.12523    | 0.23102    |  16.4 | 10.81
Output  | 0          | 0          | 0          |   0.0 |  0.00
Modify  | 0          | 0          | 0          |   0.0 |  0.00
Other   |            | 0.02051    |            |       |  1.77

Nlocal:        695.833 ave         704 max         685 min
Histogram: 1 1 0 0 1 0 0 1 0 2
Nghost:        1494.17 ave        1515 max        1468 min
Histogram: 1 1 0 0 0 0 1 1 1 1
Neighs:        0.00000 ave           0 max           0 min
Histogram: 6 0 0 0 0 0 0 0 0 0
FullNghs:      19997.0 ave       20462 max       19320 min
Histogram: 1 1 0 0 0 0 0 2 0 2

Total # of neighbors = 119982
Ave neighs/atom = 28.738204
Neighbor list builds = 26
Dangerous builds = 0

# Add velocity/set timestep
#
velocity            all create ${TEMP} 120598 rot yes dist gaussian
velocity            all create 225 120598 rot yes dist gaussian
timestep            5.0

# Define output
#
compute	            1 all msd
thermo	            100
thermo_style        custom step temp press vol etotal ke pe c_1[4] density

# Neighbor lists
#
neigh_modify        delay 0 every 1 check yes

# Set fixes
#
fix                 1 all momentum 10 linear 1 1 1 rescale
fix                 2 all nve
fix                 3 all temp/csvr ${TEMP} ${TEMP} 500.0 928347
fix                 3 all temp/csvr 225 ${TEMP} 500.0 928347
fix                 3 all temp/csvr 225 225 500.0 928347
fix                 4 all press/berendsen iso ${PRES} ${PRES} 1000.0 modulus 20000
fix                 4 all press/berendsen iso -850 ${PRES} 1000.0 modulus 20000
fix                 4 all press/berendsen iso -850 -850 1000.0 modulus 20000

# Run 0.5 ns equilibration
#
dump                1 all custom 1000 eq.${NAME}.dump id type x y z vx vy vz
dump                1 all custom 1000 eq.liquid_density_MLmW.dump id type x y z vx vy vz
run                 100000
Per MPI rank memory allocation (min/avg/max) = 3.506 | 3.508 | 3.511 Mbytes
Step Temp Press Volume TotEng KinEng PotEng c_1[4] Density 
     630          225    869.67124       125000   -42380.908    2799.4278   -45180.336 2.7295415e-33   0.99914793 
     700    143.27333   -685.89224    126251.79   -41510.371    1782.5926   -43292.964   0.27001111   0.98924133 
     800    177.05503   -910.49486     126735.4    -40715.33    2202.9012   -42918.231   0.62617192   0.98546648 
     900    196.41413    -909.0281    126957.94   -40262.478    2443.7652   -42706.244    1.0702025   0.98373914 
    1000    211.02642   -727.10712    127460.06   -39973.714    2625.5699   -42599.284     1.506333   0.97986371 
    1100    215.45494   -920.53693    127673.26   -39779.817    2680.6691   -42460.486    1.9236344   0.97822749 
    1200    217.36177   -644.07479    127491.63   -39848.211    2704.3936   -42552.604    2.2853727   0.97962114 
    1300    221.35441   -764.92969    128062.42    -39830.93    2754.0696   -42584.999    2.5829023   0.97525485 
    1400    218.64945   -835.92738     128128.4   -39841.625    2720.4148    -42562.04    2.8858088   0.97475259 
    1500    219.62982   -789.33606    128542.66   -39784.803    2732.6126   -42517.416    3.2522989   0.97161122 
    1600    228.18574   -932.26671    128671.13   -39676.706    2839.0645   -42515.771    3.5641098   0.97064111 
    1700    226.20975   -855.03693    128754.84   -39718.788    2814.4793   -42533.267    3.9030465   0.97001008 
    1800    220.78158   -887.17756    128963.35   -39798.468    2746.9426   -42545.411    4.2875055   0.96844174 
    1900    228.27102   -721.12973    128967.69   -39809.753    2840.1255   -42649.878    4.5254359   0.96840916 
    2000    223.25968   -959.84882    129334.72   -39784.018    2777.7748   -42561.793    4.8322801   0.96566093 
    2100    229.01848   -960.36821    129494.69   -39739.665    2849.4253   -42589.091    5.1506135   0.96446803 
    2200      229.052   -765.71527    129697.97   -39795.103    2849.8424   -42644.945      5.36173    0.9629564 
    2300    231.68997   -689.86526    129961.37   -39794.087    2882.6637   -42676.751    5.6541657    0.9610047 
    2400    226.02322   -719.98158    129977.46   -39829.168    2812.1586   -42641.326    5.9333097   0.96088577 
    2500    227.15145   -868.90542    130003.48   -39801.708    2826.1959   -42627.904    6.1849067   0.96069345 
    2600    231.15351   -858.86545    129899.09   -39769.313    2875.9891   -42645.302    6.4213269   0.96146545 
    2700    227.93945   -896.47153     130163.6   -39790.283    2836.0002   -42626.283    6.7848526   0.95951167 
    2800    231.86957   -833.46371    130224.83    -39789.52    2884.8982   -42674.418    6.9990633   0.95906048 
    2900    230.45281   -736.93112    130221.39    -39883.75    2867.2711   -42751.021    7.2775914   0.95908581 
    3000     225.2632   -763.31236    130343.33    -39942.48    2802.7025   -42745.183     7.523629   0.95818859 
    3100    227.41954   -856.33187    130499.02   -39926.039    2829.5315    -42755.57    7.8436074   0.95704542 
    3200      226.775   -693.70129    130752.49    -39973.25    2821.5121   -42794.762    8.1681257   0.95519015 
    3300    226.49846   -709.21913    130809.95   -39978.552    2818.0715   -42796.624    8.4849299   0.95477059 
    3400    223.89583   -757.07426    130908.59   -40023.396    2785.6898   -42809.086      8.67396   0.95405116 
    3500    225.82809   -714.19538     131176.6   -40062.924    2809.7308   -42872.655    8.7985185   0.95210193 
    3600    224.22781   -807.38521    131166.05   -40097.455    2789.8202   -42887.275    8.8301396   0.95217847 
    3700    219.45408    -823.9466    131188.26   -40175.708    2730.4259   -42906.134    9.0765548   0.95201726 
    3800    224.93639   -849.90276    131493.36   -40124.162    2798.6364   -42922.799    9.2355991   0.94980832 
    3900     224.2897    -767.1954    131545.63   -40176.079    2790.5903   -42966.669    9.5759164   0.94943092 
    4000    225.96301   -641.30325    131733.18   -40189.061    2811.4094    -43000.47    9.8186475   0.94807919 
    4100    225.38779   -756.49543    131744.49   -40168.078    2804.2526    -42972.33    9.8855901   0.94799781 
    4200    223.46495   -910.20944    131680.56   -40180.971    2780.3288   -42961.299    10.117936    0.9484581 
    4300    226.87224   -854.78145    131696.53   -40188.469     2822.722   -43011.191    10.282644   0.94834307 
    4400    224.82192   -777.02694    131798.83   -40184.046    2797.2121   -42981.258    10.593829   0.94760696 
    4500    221.36959   -991.59747    131879.21   -40191.297    2754.2585   -42945.556    10.694162   0.94702943 
    4600    227.51007   -771.82346    131937.96   -40242.603    2830.6578    -43073.26    10.709148   0.94660771 
    4700    227.32187   -767.05396    131893.49   -40156.991    2828.3162   -42985.308    10.873078   0.94692687 
    4800    222.18261   -785.66856    131975.31   -40222.048    2764.3741   -42986.422    11.047668   0.94633982 
    4900    223.02698   -910.63779     132141.1   -40102.358    2774.8796   -42877.237     11.21693   0.94515249 
    5000    226.53345   -852.56545    132188.75   -40063.786    2818.5068   -42882.293    11.507179   0.94481177 
    5100    226.64038   -740.47288    132325.94   -40135.433    2819.8372    -42955.27    11.764932   0.94383225 
    5200    226.36313   -942.70881    132055.54   -40217.466    2816.3877   -43033.854    11.798475    0.9457649 
    5300     222.4762   -775.20045     132065.7    -40200.38    2768.0269   -42968.407    11.973238   0.94569209 
    5400    226.11128    -664.4213     132127.8    -40257.28    2813.2542   -43070.534    12.094808   0.94524765 
    5500    227.19091   -961.42221    132082.73   -40288.372    2826.6869   -43115.059    12.211171   0.94557015 
    5600    222.24336   -696.45588    132131.71   -40294.881    2765.1299   -43060.011    12.494193   0.94521967 
    5700    225.19522   -795.61696    132077.83   -40306.677    2801.8567   -43108.533    12.726332   0.94560524 
    5800    223.93636   -844.87484    132113.66   -40334.895    2786.1941    -43121.09    12.764108   0.94534879 
    5900    221.17961   -789.21198    132141.45   -40392.568    2751.8949   -43144.463    12.903371   0.94514998 
    6000    226.57057   -900.79388    132321.71   -40406.394    2818.9686   -43225.363    13.031626   0.94386245 
    6100    227.53388   -762.46404    132545.91   -40358.089    2830.9541   -43189.043    13.130961    0.9422659 
    6200    228.01081   -819.10106     132502.5   -40444.344    2836.8879   -43281.232    13.297027   0.94257463 
    6300    227.48552   -751.30675    132653.37   -40416.425    2830.3524   -43246.777    13.340041   0.94150261 
    6400    222.47948   -854.13767    132520.75    -40397.95    2768.0677   -43166.018    13.485845   0.94244481 
    6500    226.52881   -838.39143    132434.25   -40343.559     2818.449   -43162.008    13.581266   0.94306037 
    6600    227.14665   -689.09215    132464.57   -40422.099    2826.1362   -43248.235    13.670366   0.94284448 
    6700    223.52771   -809.88182    132538.56   -40494.067    2781.1096   -43275.177    13.787887   0.94231814 
    6800    223.02653   -886.86682    132756.46   -40425.335     2774.874   -43200.209    14.011579   0.94077146 
    6900    227.34902   -696.15508    132666.78   -40371.022     2828.654   -43199.676    14.077243   0.94140742 
    7000    226.08164   -758.21904    132655.53   -40379.528    2812.8854   -43192.414    14.101219   0.94148723 
    7100    224.81604   -779.94783     132804.1   -40412.963    2797.1389   -43210.102    14.225333   0.94043401 
    7200     224.2088   -969.05247    132756.65    -40480.16    2789.5837   -43269.743    14.251347   0.94077012 
    7300    221.00181   -741.38225    132739.71   -40536.158    2749.6827   -43285.841    14.434385   0.94089021 
    7400    222.26266   -1003.2576    132746.08   -40555.353    2765.3701   -43320.723    14.508431   0.94084504 
    7500    221.10182   -648.54082    132943.62   -40524.498     2750.927   -43275.425    14.645103   0.93944703 
    7600    222.43632   -821.60382    132956.16   -40610.041    2767.5307   -43377.572    14.715253   0.93935843 
    7700    223.39396   -817.93224    133054.83   -40515.274    2779.4456    -43294.72    14.954891   0.93866187 
    7800    226.30818   -773.47572    133108.11   -40499.548     2815.704   -43315.252    14.956017   0.93828614 
    7900    218.46305   -651.49564    133063.52   -40568.943    2718.0957   -43287.039    15.075439   0.93860055 
    8000     226.2615   -1031.8274    133075.01    -40549.34    2815.1232   -43364.463    15.181004    0.9385195 
    8100    221.45303   -788.35061    133077.54   -40617.765    2755.2967   -43373.062    15.131474   0.93850165 
    8200    220.57831   -796.68814    133220.16   -40631.547    2744.4136   -43375.961     15.25332   0.93749694 
    8300    223.56385   -1208.0018    133206.83   -40634.147    2781.5593   -43415.707    15.468727   0.93759071 
    8400    223.05325   -732.48958    133126.88   -40592.981    2775.2065   -43368.187    15.607128   0.93815382 
    8500    223.47448   -835.92296    133385.05   -40525.634    2780.4474   -43306.081     15.79466   0.93633803 
    8600    226.72277   -937.18231    133250.98   -40563.334    2820.8624   -43384.197    15.824242   0.93728009 
    8700    227.18097   -798.88683    133185.61   -40554.207    2826.5632    -43380.77    15.928433   0.93774016 
    8800    223.49434   -987.28342    133262.35   -40594.113    2780.6945   -43374.807    15.993479   0.93720012 
    8900    218.38359   -937.99735    133055.47   -40661.887    2717.1071   -43378.995    16.087145   0.93865735 
    9000    223.67774   -803.66281    132935.52   -40601.821    2782.9764   -43384.798    15.993255   0.93950431 
    9100    219.47012   -918.82094    133106.84   -40663.493    2730.6255   -43394.119    16.126876   0.93829503 
    9200    225.38272   -837.47015    133111.04   -40569.528    2804.1896   -43373.718    16.207135   0.93826543 
    9300    225.35948   -699.83836    133258.48   -40623.142    2803.9003   -43427.043     16.39371   0.93722737 
    9400    225.76475   -821.23237    133306.32   -40590.513    2808.9427   -43399.456    16.596588   0.93689101 
    9500    221.95154   -901.78919     133257.2   -40608.895    2761.4991   -43370.394    16.611606   0.93723632 
    9600    224.81948    -758.2173    133116.95   -40585.221    2797.1818   -43382.403     16.61767    0.9382238 
    9700    226.86405    -827.4733    133037.71   -40514.799    2822.6201   -43337.419    16.615825   0.93878264 
    9800    225.11031   -743.08769    133014.59   -40601.448    2800.8002   -43402.248    16.757917   0.93894579 
    9900    222.78697   -848.53432    133123.82   -40683.094    2771.8934   -43454.987    16.809872   0.93817542 
   10000     225.8947   -817.86265    133152.72   -40696.651    2810.5596    -43507.21    16.866643   0.93797174 
   10100    220.60544   -995.20085    133082.77   -40665.086    2744.7511   -43409.837    16.955305   0.93846475 
   10200    223.04322   -780.09965    133095.14   -40722.714    2775.0817   -43497.796    17.085889   0.93837752 
   10300    225.42095   -982.15247    133288.78    -40711.61    2804.6652   -43516.275    17.206643   0.93701429 
   10400    226.91954    -843.9637    133492.79   -40658.842    2823.3104   -43482.153    17.284818   0.93558227 
   10500    226.45494   -868.21909    133458.19   -40645.158    2817.5299   -43462.688    17.322895   0.93582486 
   10600    228.49922   -823.77147    133218.58   -40587.217    2842.9647   -43430.181    17.269015   0.93750807 
   10700    226.60078   -896.95471    133305.16   -40592.946    2819.3445   -43412.291     17.43642   0.93689917 
   10800    228.16002   -780.43705    133127.94   -40574.502    2838.7444   -43413.247    17.572274   0.93814637 
   10900    225.53609   -850.40897    133247.78   -40583.418    2806.0978   -43389.516    17.643858   0.93730261 
   11000    232.39764   -730.58489    133286.75   -40568.289    2891.4684   -43459.758    17.836567   0.93702858 
   11100    228.21819   -834.57343    133446.99   -40611.471    2839.4682   -43450.939    17.895645   0.93590336 
   11200    225.60748   -728.67552    133549.78   -40610.866    2806.9859   -43417.852    18.107281   0.93518308 
   11300    225.82258   -874.09286    133658.83   -40599.092    2809.6622   -43408.754    18.352017   0.93442006 
   11400    227.84802   -845.42984    133683.43    -40614.57    2834.8626   -43449.433    18.307976   0.93424811 
   11500    222.96843   -802.94127    133701.96   -40627.918    2774.1511   -43402.069    18.253393   0.93411859 
   11600    223.83349   -855.27752    133817.63   -40637.729    2784.9141   -43422.643    18.206307   0.93331121 
   11700    228.65361   -944.59254     133869.7   -40522.891    2844.8856   -43367.777      18.2278   0.93294818 
   11800    224.59594   -965.81149    133745.08   -40604.411    2794.4005   -43398.812    18.432463   0.93381747 
   11900    225.53612   -766.10248    133863.81    -40621.26    2806.0981   -43427.358    18.594058   0.93298923 
   12000    226.17794    -638.8333    133896.01   -40631.363    2814.0836   -43445.446    18.638689   0.93276486 
   12100    227.55969   -806.39818    133934.53   -40595.316    2831.2752   -43426.592    18.647728   0.93249659 
   12200     226.6922   -909.33399    133810.78   -40594.545     2820.482   -43415.027    18.811725   0.93335894 
   12300    226.04564   -876.96085    133926.33   -40610.155    2812.4375   -43422.592    18.953768   0.93255368 
   12400    226.76072   -701.44985    134005.32    -40587.99    2821.3345   -43409.324    19.198979   0.93200396 
   12500    223.91043   -827.31902    133955.56   -40677.168    2785.8715   -43463.039    19.201119   0.93235016 
   12600    227.15597   -805.76445     134183.7   -40586.419    2826.2521   -43412.671    19.349534   0.93076497 
   12700    229.93369   -799.57663    134101.43   -40557.916    2860.8122   -43418.729    19.526764     0.931336 
   12800    226.83575   -876.04016    134036.47   -40525.892     2822.268    -43348.16    19.613967   0.93178737 
   12900    226.31358   -878.83574    133927.87   -40594.656    2815.7712   -43410.427    19.647532   0.93254293 
   13000    223.69594   -844.56442     133995.6    -40551.87    2783.2028   -43335.073    19.773017   0.93207157 
   13100    230.58649   -852.27948     133950.7   -40556.605    2868.9344   -43425.539    19.858604     0.932384 
   13200    229.54067    -864.5041     133995.1   -40477.651    2855.9223   -43333.574    20.024722   0.93207505 
   13300    229.41966   -964.59549    134098.07   -40524.169    2854.4167   -43378.586    20.139986   0.93135933 
   13400     225.3468   -894.13007    134101.69   -40611.687    2803.7426   -43415.429    20.132202   0.93133422 
   13500    225.20925   -830.60414    134028.04    -40660.88    2802.0312   -43462.911    20.301913   0.93184595 
   13600    222.03015   -918.13733    134023.51   -40678.996    2762.4772   -43441.474    20.278419   0.93187749 
   13700    222.98668   -811.37384    134012.15   -40680.115    2774.3783   -43454.494    20.235354   0.93195649 
   13800    230.58115   -896.26152       133939   -40605.009    2868.8679   -43473.877    20.337848   0.93246544 
   13900    228.15077   -760.78977    134049.13   -40642.321    2838.6293    -43480.95    20.413007   0.93169936 
   14000    227.80296   -921.80091     134056.4   -40635.496    2834.3019   -43469.798    20.614462   0.93164884 
   14100    222.39108   -836.77072    134039.19   -40624.649    2766.9678   -43391.617    20.636061    0.9317685 
   14200    220.47873   -901.90438    133998.68   -40657.431    2743.1746   -43400.605    20.655045   0.93205017 
   14300    223.03234   -797.83992    133923.41   -40700.877    2774.9463   -43475.823    20.696081   0.93257404 
   14400    223.15867   -843.50041    134070.91   -40667.072    2776.5181    -43443.59    20.863899   0.93154801 
   14500    227.34738   -811.16019    134399.71   -40612.827    2828.6336   -43441.461    20.912446   0.92926904 
   14600    221.49844    -908.9039     134213.6   -40622.509    2755.8616    -43378.37    20.930796   0.93055761 
   14700    221.76924   -922.19915    133963.51   -40668.082    2759.2309   -43427.312    21.094539   0.93229489 
   14800    219.15445   -681.09877    134113.01   -40705.395     2726.698   -43432.093    21.179691   0.93125557 
   14900    222.70717   -852.04642    134014.35   -40792.614    2770.9006   -43563.515    21.333682   0.93194115 
   15000    219.56001   -818.42119    133769.39   -40798.563     2731.744   -43530.307    21.481308   0.93364774 
   15100    217.80477   -871.81115    133739.57   -40821.385    2709.9054    -43531.29    21.531204   0.93385591 
   15200    217.94951   -847.76127    133596.58   -40733.425    2711.7062   -43445.131    21.500448   0.93485543 
   15300    222.21852    -896.7068    133552.35   -40733.737    2764.8208   -43498.558    21.598132   0.93516505 
   15400    223.95592   -863.87718    133335.11   -40715.129    2786.4375   -43501.566    21.496411   0.93668871 
   15500    221.65026   -1060.0955    133368.12   -40682.199    2757.7506    -43439.95     21.72056   0.93645688 
   15600    228.52851   -828.12241    133415.84   -40610.654    2843.3291   -43453.983    21.779057    0.9361219 
   15700    221.80439   -751.59821    133477.28   -40693.532    2759.6683     -43453.2    21.830846   0.93569105 
   15800    222.93475   -904.50032    133440.57   -40691.949    2773.7321   -43465.681    21.862977   0.93594841 
   15900    225.89864   -796.42022    133635.78   -40739.655    2810.6086   -43550.264    21.980018   0.93458123 
   16000    224.50817   -863.41103    133781.08   -40671.406    2793.3084   -43464.715    22.113801   0.93356615 
   16100    228.35546   -709.40831    133981.36   -40623.115    2841.1761   -43464.291    22.114751   0.93217065 
   16200    229.04047   -738.65888    133915.37   -40694.264    2849.6989   -43543.963    22.201675   0.93262999 
   16300    226.12481    -868.4735    133858.17   -40723.908    2813.4225    -43537.33    22.381273   0.93302852 
   16400     226.0642   -831.83599    133880.46   -40632.458    2812.6684   -43445.127     22.43933   0.93287316 
   16500    225.61226   -983.33279    133970.51   -40626.184    2807.0454    -43433.23     22.70289   0.93224613 
   16600    226.56712   -889.92571    133967.18   -40614.399    2818.9257   -43433.325    22.707544   0.93226934 
   16700    225.90221    -769.8156    133971.36   -40663.767     2810.653    -43474.42    22.683676   0.93224025 
   16800    227.28637   -807.58653    133886.14    -40669.42    2827.8745   -43497.294     22.76221   0.93283362 
   16900    229.33461   -813.67508    133763.76    -40629.03    2853.3585   -43482.388    22.993665   0.93368705 
   17000    227.03916   -758.62318    133832.13   -40645.487    2824.7988   -43470.286    23.127784   0.93321009 
   17100      226.671   -864.25271    133901.78   -40566.646    2820.2181   -43386.864    23.200802   0.93272465 
   17200    226.50803   -892.96703    133747.69   -40589.429    2818.1905   -43407.619     23.20411   0.93379921 
   17300    226.92787   -840.50991    133925.32   -40647.292    2823.4141   -43470.707    23.077238   0.93256067 
   17400    223.64777   -925.32421    133910.21    -40663.11    2782.6034   -43445.713    23.095163   0.93266592 
   17500    229.93173   -990.77871    133838.16   -40637.155    2860.7879   -43497.943    23.149286   0.93316801 
   17600    226.96134   -868.41767    133859.31   -40638.559    2823.8306    -43462.39    23.303664   0.93302059 
   17700    225.69163   -849.64716    133824.23   -40667.969     2808.033   -43476.002    23.585837   0.93326516 
   17800     224.0311   -816.61523    133856.78   -40666.776    2787.3728   -43454.148    23.650081   0.93303823 
   17900    224.07117   -952.58007    134117.87   -40618.702    2787.8713   -43406.573    23.527867   0.93122183 
   18000    228.49798   -863.53151    134177.53   -40561.859    2842.9493   -43404.808    23.571581   0.93080777 
   18100    228.94365   -691.71799    134187.93   -40672.447    2848.4942   -43520.941    23.707024   0.93073567 
   18200    224.94411   -934.88483    134223.87   -40677.638    2798.7324    -43476.37    23.852161   0.93048642 
   18300    225.87282   -794.61232    134179.16   -40590.436    2810.2873   -43400.723    23.964319   0.93079652 
   18400    220.84345   -824.13858     134238.9   -40644.127    2747.7124   -43391.839    23.900376   0.93038229 
   18500    228.34342   -838.31092    134040.01   -40613.483    2841.0263   -43454.509    23.842317   0.93176274 
   18600    226.48574   -900.85984    133976.99   -40673.771    2817.9132   -43491.684    24.068685   0.93220108 
   18700    225.29924   -814.69796    134065.21   -40628.952    2803.1509   -43432.103    24.375343   0.93158762 
   18800    228.70425   -811.73941    133953.17   -40614.801    2845.5156   -43460.317    24.364247   0.93236685 
   18900    226.78992   -836.13554    133832.18   -40673.445    2821.6977   -43495.142    24.154421   0.93320973 
   19000    228.64533   -939.57634    133987.15   -40648.001    2844.7826   -43492.784     24.38699   0.93213036 
   19100    225.11925   -918.26697    134088.86   -40705.205    2800.9115   -43506.116    24.630574   0.93142334 
   19200    229.06663   -728.74212    134020.44   -40684.176    2850.0243     -43534.2    24.711568    0.9318988 
   19300    230.04628   -776.92979    134159.86   -40640.255    2862.2131   -43502.468    24.756684   0.93093043 
   19400    228.78544   -800.22014    134278.78   -40648.486    2846.5258   -43495.012    24.814611   0.93010595 
   19500    224.01349   -811.35381    134543.16   -40641.224    2787.1536   -43428.378    24.964384   0.92827823 
   19600     226.7178   -849.61468       134491    -40684.13    2820.8004   -43504.931    25.007753   0.92863831 
   19700    228.84745   -890.04674     134677.5   -40666.622    2847.2973   -43513.919    25.078041    0.9273523 
   19800    227.03797   -717.29141    134680.84   -40724.759     2824.784   -43549.543    25.187349   0.92732929 
   19900    227.40653   -858.16271    134645.42   -40735.336    2829.3695   -43564.705    25.324456   0.92757323 
   20000     218.5385   -830.51647    134556.95   -40778.097    2719.0345   -43497.131     25.55816   0.92818313 
   20100    226.24703   -733.04242    134662.21   -40738.013    2814.9432   -43552.956    25.659241   0.92745758 
   20200     225.4557   -1024.6751    134526.98   -40796.392    2805.0976    -43601.49    25.457912   0.92838992 
   20300    223.25556   -770.63516    134566.62   -40839.215    2777.7236   -43616.938    25.548293   0.92811646 
   20400    224.40949   -904.02612    134636.01   -40836.917    2792.0807   -43628.998    25.517589   0.92763807 
   20500    222.78524   -816.74216    134499.81   -40804.524     2771.872   -43576.396    25.488194   0.92857744 
   20600    222.23769   -944.93295     134461.1   -40837.126    2765.0594   -43602.186    25.730753   0.92884475 
   20700    225.94659   -806.39457    134409.42    -40769.62    2811.2052   -43580.825    25.775026   0.92920191 
   20800    224.76747   -998.43332    134346.94   -40762.453    2796.5346   -43558.988    25.831499   0.92963403 
   20900      223.191   -735.62026    134501.93   -40809.663    2776.9203   -43586.583    26.082216   0.92856282 
   21000    219.95828    -993.8277    134512.43   -40908.662    2736.6992   -43645.361    26.053984   0.92849035 
   21100    221.09648   -910.89066    134434.56   -40936.244    2750.8606   -43687.104    26.204321   0.92902817 
   21200    220.81113   -881.21035    134330.21   -40923.296    2747.3102   -43670.606    26.273238   0.92974984 
   21300    221.42365   -849.90054    134339.59   -40936.267    2754.9311   -43691.198    26.064608    0.9296849 
   21400    223.53329   -727.95864    134559.58   -40904.879    2781.1791   -43686.058    26.185486   0.92816496 
   21500    222.64481   -872.66244    134647.48   -40897.892    2770.1248   -43668.016     26.46213   0.92755905 
   21600    223.50815   -875.18117    134625.12   -40833.047    2780.8663   -43613.913    26.585222   0.92771312 
   21700    222.77405   -693.74807    134483.74   -40786.051    2771.7328   -43557.784      26.6844   0.92868841 
   21800    224.42465   -909.51065    134523.55   -40752.642    2792.2693   -43544.911    26.813613    0.9284136 
   21900    224.54098   -1013.7299    134544.09   -40767.739    2793.7166   -43561.456    26.856542   0.92827185 
   22000    225.04826   -784.37874    134404.51   -40803.092    2800.0282    -43603.12    26.838657   0.92923584 
   22100    224.62367   -937.35767    134461.87   -40733.148    2794.7455   -43527.894    26.968766   0.92883947 
   22200    229.01831   -793.17159    134346.46   -40776.062    2849.4231   -43625.486    26.962715   0.92963739 
   22300    229.29489   -925.64242    134466.65   -40753.404    2852.8643   -43606.268    27.082227   0.92880646 
   22400    224.69305   -957.13137    134613.85   -40716.853    2795.6087   -43512.462    27.269926   0.92779077 
   22500     229.5207   -906.95034    134469.58   -40728.745    2855.6739   -43584.419    27.465576   0.92878623 
   22600    227.47572   -816.81449     134393.2   -40689.976    2830.2304   -43520.206    27.421907   0.92931407 
   22700    228.65333   -881.89349    134203.79   -40699.072    2844.8822   -43543.955    27.433363   0.93062564 
   22800    228.23608   -878.17962    134421.89   -40662.953    2839.6908   -43502.644    27.645697   0.92911572 
   22900    227.20296   -812.67337     134392.6   -40716.697    2826.8368   -43543.534    27.627875    0.9293182 
   23000    226.97362   -788.03913    134427.26   -40700.877    2823.9834    -43524.86     27.71583   0.92907858 
   23100     224.3237   -814.59092    134304.33   -40814.526    2791.0133    -43605.54    27.737937     0.929929 
   23200    219.56195   -975.62982    134386.31   -40756.778    2731.7681   -43488.546    27.743569   0.92936168 
   23300    220.97421   -928.80041    134240.84   -40804.281    2749.3393    -43553.62    27.816272   0.93036878 
   23400    227.16201   -816.24068     134286.2   -40729.502    2826.3273   -43555.829    28.108938   0.93005457 
   23500    227.67544   -711.33169    134542.72   -40776.954    2832.7153   -43609.669    28.188837    0.9282813 
   23600    228.47148   -910.58392    134414.85   -40764.429    2842.6196   -43607.048    27.991926   0.92916438 
   23700    221.27804   -770.34944    134497.97   -40801.708    2753.1195   -43554.827    27.867737   0.92859013 
   23800    216.26526   -734.62057     134408.9   -40857.388     2690.751   -43548.138    28.185786   0.92920549 
   23900    222.21127   -975.35559    134460.86   -40857.861    2764.7307   -43622.592     28.36494   0.92884641 
   24000    228.01257   -992.28096     134458.2   -40785.167    2836.9099   -43622.077    28.435566   0.92886484 
   24100    224.75209   -880.06972    134384.12   -40795.602    2796.3433   -43591.945    28.341142   0.92937683 
   24200    223.18488   -1046.9269    134445.31   -40861.324    2776.8442   -43638.168    28.300842   0.92895384 
   24300    223.38119   -921.47153    134448.66   -40820.589    2779.2867   -43599.876    28.428416   0.92893074 
   24400    220.52968   -921.18329    134310.14   -40862.464    2743.8085   -43606.272    28.365395   0.92988878 
   24500    222.60049   -755.95401    134276.76   -40812.524    2769.5733   -43582.098    28.462304   0.93011993 
   24600    226.30537   -733.08083    134460.46   -40807.258    2815.6691   -43622.927    28.532961   0.92884917 
   24700    220.54606   -991.22785    134727.37   -40831.426    2744.0123   -43575.438    28.759881   0.92700904 
   24800    226.29088    -941.4963    134796.97   -40843.246    2815.4887   -43658.734    28.754875   0.92653039 
   24900    221.72409   -737.99883    134755.61   -40788.327    2758.6692   -43546.997    28.797145   0.92681475 
   25000    227.19103    -699.3623    134683.91   -40770.167    2826.6884   -43596.855    28.774162   0.92730815 
   25100    222.33957   -814.83856    134659.66   -40764.824    2766.3269   -43531.151    28.789293   0.92747518 
   25200    225.14767   -903.93712    134953.57   -40814.689     2801.265   -43615.954    28.877036   0.92545523 
   25300    228.24889   -990.67398    135107.58   -40832.325    2839.8501   -43672.176     28.85048   0.92440034 
   25400    227.52756   -684.08257    135162.71   -40827.607    2830.8753   -43658.482    29.096519   0.92402331 
   25500    228.86817   -845.69517    134986.36   -40794.372    2847.5552   -43641.927    29.074515   0.92523047 
   25600    226.06771   -829.78163    134944.33   -40869.588    2812.7121     -43682.3    29.035489   0.92551863 
   25700    224.00916   -921.38402    134831.53   -40892.234    2787.0999   -43679.334    29.051031   0.92629288 
   25800    224.00752   -805.94393    134827.33   -40877.614    2787.0794   -43664.693    29.152335    0.9263218 
   25900    227.38865   -900.62383     134650.2   -40834.275    2829.1471   -43663.422     29.13109   0.92754035 
   26000    232.05436   -710.91809    134709.38   -40767.928    2887.1974   -43655.126    29.132316   0.92713284 
   26100    228.44896   -852.61243    134619.66   -40864.668    2842.3394   -43707.007    29.197164   0.92775078 
   26200    225.44578   -867.13921    134540.46    -40862.77    2804.9742   -43667.745    29.219963    0.9282969 
   26300    222.29616   -805.04224     134504.5   -40832.133    2765.7869    -43597.92     29.39164   0.92854509 
   26400    226.36791   -903.64951    134589.68    -40822.53    2816.4471   -43638.977    29.373925   0.92795744 
   26500    223.58333   -615.71861     134474.4   -40868.076    2781.8017   -43649.877    29.258266   0.92875293 
   26600    221.18991    -796.8927    134666.05    -40909.59     2752.023   -43661.613    29.380913   0.92743116 
   26700    228.20332   -833.76415    134821.43   -40929.798    2839.2832   -43769.081    29.670687   0.92636227 
   26800    226.66995   -849.60913    134686.49   -40866.026    2820.2051   -43686.231    29.805395   0.92729044 
   26900    224.73783   -522.98653    134800.15   -40862.031    2796.1659   -43658.197    29.757636   0.92650855 
   27000    223.71849   -920.30431    134805.15   -40915.796    2783.4833   -43699.279    29.872542   0.92647418 
   27100    223.62936   -791.89738    134774.38   -40926.709    2782.3744   -43709.084    29.756111   0.92668567 
   27200    222.63858   -881.58338    134922.09    -40955.59    2770.0472   -43725.637    29.689069   0.92567122 
   27300    219.86923   -817.69694    134809.73   -40975.131    2735.5912   -43710.722    29.785637   0.92644272 
   27400    227.16579   -730.92651    134823.73   -40908.554    2826.3743   -43734.928    29.834645   0.92634654 
   27500    223.31794   -1000.7604    134848.43   -40844.143    2778.4998   -43622.643    29.817594    0.9261768 
   27600    225.20589   -782.52644    134866.78   -40875.073    2801.9895   -43677.063    29.834507   0.92605079 
   27700    222.72577   -1018.4487    134764.83   -40891.903     2771.132   -43663.035    30.031709   0.92675139 
   27800    225.68652   -791.66001    134735.05   -40824.031    2807.9694       -43632    30.204258   0.92695623 
   27900    230.88255   -823.73689    134782.51   -40855.282    2872.6178     -43727.9    30.501949   0.92662983 
   28000    230.37674     -832.406    134690.71   -40899.887    2866.3247   -43766.212    30.438911   0.92726135 
   28100    224.95596   -792.11424    134773.66   -40888.238    2798.8798   -43687.118    30.393989   0.92669067 
   28200    224.92385   -871.23758    134852.11   -40942.739    2798.4804   -43741.219    30.284329   0.92615153 
   28300    224.99773   -820.63683    134856.16   -40930.962    2799.3995   -43730.361    30.263454   0.92612373 
   28400    220.38961   -734.93417    134775.04   -40979.493    2742.0658   -43721.558    30.301844   0.92668113 
   28500    226.17272   -928.37015    134825.84   -41008.474    2814.0186   -43822.492    30.488842   0.92633204 
   28600    225.83483   -818.43349    134803.19   -40974.577    2809.8147   -43784.391    30.650439   0.92648768 
   28700    223.95152   -935.56626    134782.76   -40986.815    2786.3827   -43773.197    30.594075   0.92662812 
   28800     222.5053   -820.78334     134843.9   -40943.797     2768.389   -43712.186    30.688382   0.92620792 
   28900     226.5163   -896.43778    134691.49   -40904.923    2818.2935   -43723.217    30.617068   0.92725599 
   29000    222.52958   -912.99291    134522.06   -40978.087    2768.6911   -43746.779     30.63657   0.92842389 
   29100    224.20178   -861.47177    134541.61    -40919.53    2789.4964   -43709.026    30.623166   0.92828895 
   29200    226.87734   -660.58214    134483.92   -40872.388    2822.7854   -43695.174     30.61442    0.9286872 
   29300    224.88028   -830.52929    134518.36   -40926.063    2797.9382   -43724.001    30.908786   0.92844939 
   29400    222.87336   -737.14666    134563.92   -40985.283    2772.9684   -43758.251    30.928495   0.92813508 
   29500    220.81539    -781.5275    134599.33   -41013.959    2747.3633   -43761.322    30.903203   0.92789091 
   29600    225.97507   -863.69786    134528.15   -40932.093    2811.5595   -43743.652    30.955244   0.92838183 
   29700    220.91509    -862.1197    134665.33   -40971.877    2748.6038   -43720.481    30.982335   0.92743611 
   29800    223.92991   -689.28381     134780.4    -40949.82    2786.1138   -43735.934    31.122121   0.92664431 
   29900    222.87662   -889.14797    134456.57   -40987.022    2773.0089   -43760.031    30.938263   0.92887607 
   30000    226.45665   -791.31044    134571.58   -40962.409    2817.5513   -43779.961    31.248694   0.92808221 
   30100    226.30762   -666.39554    134658.77   -40954.633     2815.697    -43770.33    31.260189   0.92748133 
   30200    226.68034    -864.5226     134606.2    -40965.22    2820.3343   -43785.554    31.304707   0.92784355 
   30300    225.17498   -797.66418    134837.09   -40927.533    2801.6048   -43729.137    31.467716   0.92625469 
   30400    219.51217   -825.53968     134865.2   -40896.338    2731.1487   -43627.487    31.504115   0.92606169 
   30500    223.34173   -822.16956    134691.55    -40880.28    2778.7957   -43659.076    31.578288   0.92725556 
   30600    224.22082   -895.29457    134740.18   -40860.638    2789.7332   -43650.371    31.650308   0.92692091 
   30700    222.06757   -953.62673    134759.92   -40865.365    2762.9427   -43628.308    31.711942   0.92678515 
   30800    230.63449    -911.7908     134712.2   -40800.528    2869.5315    -43670.06    31.671494   0.92711344 
   30900    224.94549   -771.21143    134893.78   -40911.822    2798.7496   -43710.572     31.73708   0.92586547 
   31000     223.3609   -1014.1733    134801.76   -40952.697    2779.0343   -43731.731    31.806588   0.92649745 
   31100    224.01386   -831.20808    134643.81   -40946.842    2787.1583       -43734    31.683382   0.92758433 
   31200    224.06118   -984.78063    134711.83   -40961.999     2787.747   -43749.746    31.921267   0.92711598 
   31300    227.97327   -816.30172    134720.07   -40924.712    2836.4208   -43761.133    31.821648   0.92705928 
   31400    225.65921   -867.24247    134648.26   -40890.978    2807.6296   -43698.608    31.851921    0.9275537 
   31500    225.68677   -810.69259    134624.04   -40953.446    2807.9725   -43761.418    31.692339   0.92772059 
   31600    226.05927   -922.76181    134643.35   -40887.638    2812.6071   -43700.245    31.787825   0.92758754 
   31700    226.18972   -776.57564    134701.03   -40930.735    2814.2301   -43744.965    31.879728    0.9271903 
   31800    227.15587   -884.62606     134800.7   -40864.509    2826.2508    -43690.76    31.985781    0.9265048 
   31900    225.04734   -824.66762     134754.9   -40850.964    2800.0168   -43650.981    31.976817   0.92681964 
   32000    231.67387   -842.83815    134763.69   -40852.203    2882.4634   -43734.666    32.185224   0.92675919 
   32100    229.97342   -721.15703    134828.74   -40869.574    2861.3066    -43730.88    32.269395   0.92631212 
   32200    226.25187   -794.07582    134801.76   -40870.472    2815.0034   -43685.476    32.423696   0.92649751 
   32300    224.09079   -774.63415    134875.48   -40851.502    2788.1154   -43639.618    32.356839   0.92599107 
   32400    224.52775   -878.25374    134911.76   -40917.856    2793.5521   -43711.408    32.392264   0.92574208 
   32500    226.85425   -880.17079    134771.67   -40943.009    2822.4982   -43765.507    32.198139   0.92670435 
   32600    229.25938   -776.01284    134726.34   -40891.719    2852.4226   -43744.141    32.133423   0.92701613 
   32700     223.8524   -961.76652    134877.21   -40957.073    2785.1495   -43742.222    32.417397   0.92597919 
   32800    227.11693   -905.03568    134914.78   -41001.723    2825.7664   -43827.489    32.562063   0.92572131 
   32900    222.76156   -1044.4914    134957.42   -41002.366    2771.5773   -43773.943    32.550348   0.92542884 
   33000    222.01385   -916.09463    134928.79   -41052.716    2762.2744    -43814.99    32.449563   0.92562521 
   33100    219.45916    -823.9783     134863.7   -40966.998    2730.4891   -43697.488    32.510104   0.92607194 
   33200    217.56946   -1016.4948    134776.44   -40999.044    2706.9777   -43706.022    32.566481   0.92667153 
   33300    224.07768   -984.71729    134767.63   -40930.235    2787.9524   -43718.188    32.620637   0.92673214 
   33400    225.59121   -783.18729    134827.55   -41003.188    2806.7836   -43809.972    32.691094   0.92632029 
   33500    226.39239   -853.39601    134779.71    -40972.35    2816.7517   -43789.101    32.911253   0.92664909 
   33600    227.10703   -953.56222    134890.29   -40939.874    2825.6433   -43765.518    33.017458    0.9258894 
   33700    221.69643   -904.00599    134774.52   -40940.207    2758.3251   -43698.533    33.044919   0.92668471 
   33800    224.02811   -915.81837     134664.4   -40925.783    2787.3356   -43713.119    33.026655   0.92744255 
   33900    227.87113   -820.16378    134685.58    -40932.53    2835.1501   -43767.681     33.20769   0.92729669 
   34000    220.41074   -1005.9959    134705.12   -40890.324    2742.3286   -43632.653    33.399361   0.92716217 
   34100    224.25589   -776.20902    134741.42   -40925.042    2790.1696   -43715.212    33.366313   0.92691239 
   34200    221.90275   -1068.6239    134896.18   -40941.297    2760.8921   -43702.189     33.42125   0.92584899 
   34300    218.42438   -872.74641    134777.03   -40987.186    2717.6145   -43704.801    33.334063   0.92666746 
   34400    222.77266   -927.28394    134777.11    -40912.45    2771.7154   -43684.165    33.300846   0.92666694 
   34500    226.58318   -913.54413    134771.31   -40939.209    2819.1256   -43758.335    33.505583   0.92670682 
   34600    222.18587   -776.74394    134826.11   -40918.993    2764.4146   -43683.408    33.365372   0.92633018 
   34700    221.66201   -830.17718    134696.34   -40983.762    2757.8968   -43741.659    33.436325   0.92722259 
   34800    223.21959   -937.67163    134824.01   -40957.445    2777.2761   -43734.721    33.672484   0.92634457 
   34900    221.54824   -817.98149     134943.2   -40962.243    2756.4813   -43718.724    33.581637    0.9255264 
   35000    219.37498   -866.97433    134788.17   -41028.101    2729.4418   -43757.543    33.761525   0.92659086 
   35100    222.91431   -789.37918    134785.08   -40956.617    2773.4778   -43730.095    33.757936   0.92661211 
   35200    220.32342    -792.7138    134898.95   -40957.092    2741.2423   -43698.335    33.949043   0.92582996 
   35300     218.9422   -1039.9753    134777.98   -40935.874    2724.0573   -43659.931    33.940608   0.92666097 
   35400    220.77408   -958.87484    134681.18    -40959.11    2746.8492   -43705.959    33.943464   0.92732699 
   35500    224.34484   -863.66179     134590.9   -40852.239    2791.2764   -43643.516    33.867063     0.927949 
   35600    222.17416   -844.90418    134577.49   -40902.258     2764.269   -43666.527    34.058612   0.92804147 
   35700    228.36519   -876.75552    134753.92   -40850.794    2841.2971   -43692.091    33.921712   0.92682642 
   35800    226.42904   -805.11884     134578.5   -40896.942    2817.2077    -43714.15    33.928398    0.9280345 
   35900    225.32921   -792.66355    134588.67   -40848.468    2803.5238   -43651.992    33.985771   0.92796435 
   36000    227.27059   -1002.0366    134517.54    -40822.12    2827.6782   -43649.798    33.907854   0.92845507 
   36100     225.7153   -903.89205    134391.49   -40835.275    2808.3275   -43643.603    33.857936   0.92932587 
   36200    222.73089   -907.64464    134283.75   -40866.347    2771.1957   -43637.542    33.940382   0.93007152 
   36300    224.09957   -816.21544    134076.05   -40921.488    2788.2247   -43709.713    33.912989   0.93151229 
   36400    222.10048   -795.15002    134194.65    -40842.18    2763.3523   -43605.532     33.94952   0.93068904 
   36500    224.05404   -895.32809    134199.33   -40816.098    2787.6582   -43603.756    34.107149   0.93065658 
   36600    222.97544   -946.31743    134129.47   -40940.677    2774.2384   -43714.915    34.196736   0.93114133 
   36700    222.52507   -928.57545    134171.05   -40887.761    2768.6349   -43656.396    34.281048   0.93085278 
   36800    220.53213   -969.72864    134292.32   -40871.965    2743.8389   -43615.804     34.38934   0.93001219 
   36900    225.04766     -926.731    134251.76   -40904.901    2800.0208   -43704.921    34.306481   0.93029311 
   37000    227.04521   -918.36869    134259.31   -40833.231    2824.8741   -43658.105    34.286519    0.9302408 
   37100    225.53527   -807.55553    134238.82   -40810.634    2806.0876   -43616.721    34.170382   0.93038281 
   37200     221.7163   -922.65634    134349.99   -40856.882    2758.5723   -43615.454    34.320947   0.92961298 
   37300     225.6561   -1058.1614    134132.94   -40872.793    2807.5909   -43680.384    34.580833   0.93111725 
   37400    220.53783   -838.88745    134144.32   -40892.791    2743.9099   -43636.701    34.758355   0.93103825 
   37500    224.53276   -904.13962    134339.55   -40898.728    2793.6145   -43692.343    34.866323   0.92968523 
   37600    223.95995   -881.05286    134216.93   -40852.392    2786.4875   -43638.879    34.877268   0.93053453 
   37700    224.99138    -953.0261    134293.71   -40856.253    2799.3205   -43655.574    34.953704   0.93000251 
   37800    219.68869   -866.22334    134285.99     -40954.7     2733.345   -43688.045    34.890606   0.93005602 
   37900    221.80741    -983.3946    134411.91   -40908.737    2759.7058   -43668.443    34.983283    0.9291847 
   38000    226.51995   -917.46568    134343.06   -40886.407    2818.3388   -43704.746    34.839197    0.9296609 
   38100    220.54586   -812.58959    134267.39   -40837.112    2744.0098   -43581.122    35.105141   0.93018483 
   38200    221.29189   -736.99896    134367.04   -40847.576    2753.2918   -43600.867    35.255437     0.929495 
   38300    227.58948   -826.86685    134519.66   -40795.627    2831.6458   -43627.273    35.226315   0.92844043 
   38400    226.21025   -746.45424    134529.41   -40864.295    2814.4856   -43678.781    35.187032   0.92837312 
   38500    222.01515   -877.90251    134627.21    -40877.23    2762.2905   -43639.521    35.486676   0.92769872 
   38600    223.76981   -755.64388    134578.64   -40834.417    2784.1219   -43618.539    35.497433   0.92803356 
   38700    225.46078   -852.70618    134683.61   -40852.523    2805.1607   -43657.684    35.604458   0.92731027 
   38800    227.68469   -723.31115    134608.39   -40887.587    2832.8304   -43720.417    35.546558   0.92782841 
   38900    225.51025   -930.33828    134704.66    -40849.74    2805.7762   -43655.516    35.699001   0.92716532 
   39000    225.68789   -787.77062    134680.65   -40911.882    2807.9864   -43719.868    35.573932   0.92733059 
   39100    228.90434    -873.9659    134770.17   -40881.025    2848.0052    -43729.03    35.572371   0.92671467 
   39200    223.45334   -883.91837    134723.72   -40910.714    2780.1844   -43690.899    35.526027   0.92703413 
   39300    225.99565   -791.53246    134521.91   -40903.812    2811.8155   -43715.628    35.456714   0.92842489 
   39400    226.41287   -852.87229    134704.37   -40857.701    2817.0066   -43674.708    35.535204   0.92716735 
   39500    229.48776   -828.03152    134547.37   -40846.262     2855.264   -43701.526    35.495013   0.92824922 
   39600    222.72589   -803.98867    134617.36   -40887.659    2771.1335   -43658.792    35.484444   0.92776662 
   39700    229.94548    -869.9655    134725.95   -40828.968    2860.9589   -43689.927    35.716876    0.9270188 
   39800    226.11889   -920.57026     134598.2   -40899.599    2813.3489   -43712.948    35.593063   0.92789864 
   39900    220.19022   -895.23571    134385.58   -40931.346    2739.5849   -43670.931    35.646614   0.92936678 
   40000    221.95125   -879.01067    134480.24   -40964.778    2761.4956   -43726.274    35.783474   0.92871259 
   40100    227.88576    -862.1843    134443.84   -40872.827    2835.3321    -43708.16    35.949634   0.92896403 
   40200    223.40136   -746.38213    134431.86   -40894.468    2779.5376   -43674.006     36.10696   0.92904684 
   40300    225.83713   -797.83923     134516.1   -40882.223    2809.8432   -43692.066    36.071015   0.92846498 
   40400    232.14469   -677.40647    134502.75   -40783.243    2888.3212   -43671.565    36.050126   0.92855716 
   40500    226.55393   -969.06067    134591.57   -40792.463    2818.7616   -43611.225    36.343023   0.92794438 
   40600     228.1345   -891.57046    134667.45   -40843.735    2838.4269   -43682.162    36.509597   0.92742153 
   40700    223.95127    -1008.379     134727.9   -40896.701    2786.3796    -43683.08    36.769336   0.92700541 
   40800    216.91431   -894.42508    134623.53   -40946.825    2698.8264   -43645.651    36.730635   0.92772406 
   40900     222.1704   -873.39261    134569.43    -40975.24    2764.2222   -43739.463    36.531981   0.92809706 
   41000    225.90002   -817.70154    134605.84   -40885.464    2810.6257   -43696.089    36.697943   0.92784598 
   41100    225.50551   -898.88796    134498.91   -40863.213    2805.7173   -43668.931    36.751936   0.92858368 
   41200    226.43862    -936.3758    134405.19    -40873.16     2817.327   -43690.486    36.705569   0.92923119 
   41300    220.99223   -791.18708    134241.62   -41028.209    2749.5635   -43777.772    36.811823   0.93036339 
   41400    224.25114   -854.70059    134399.37   -40979.487    2790.1105   -43769.597    36.797433   0.92927144 
   41500    222.51057   -869.31294    134480.18   -40990.193    2768.4545   -43758.648    36.862392     0.928713 
   41600    222.67591   -977.42164    134371.43   -40968.195    2770.5116   -43738.707    36.971746   0.92946466 
   41700    222.42197   -883.69552     134552.7   -40953.691    2767.3522   -43721.044    36.929083   0.92821246 
   41800    222.70464   -771.34421    134596.17   -40965.428    2770.8691   -43736.297    37.181923   0.92791268 
   41900     222.6861   -778.25249    134738.49   -40939.811    2770.6385    -43710.45     37.22465   0.92693257 
   42000    228.48499   -974.98392    134623.23   -40938.851    2842.7877   -43781.639    37.171004   0.92772612 
   42100    223.98078   -876.92352    134604.47   -40938.856    2786.7467   -43725.603     37.10493   0.92785543 
   42200    225.78222   -853.06873    134718.82   -40897.751      2809.16   -43706.911    37.144241   0.92706789 
   42300    226.70097   -1041.4527    134644.76   -40864.186    2820.5911   -43684.777    37.468208   0.92757784 
   42400    227.88252   -888.65117    134598.17   -40909.313    2835.2918   -43744.605    37.421797   0.92789888 
   42500    226.41873   -717.69113    134637.74   -40900.819    2817.0795   -43717.898    37.500019   0.92762615 
   42600      227.465    -780.4676    134597.46   -40902.165     2830.097   -43732.262    37.546779   0.92790379 
   42700    224.20352   -828.41998    134702.78   -40905.577     2789.518   -43695.095    37.524401    0.9271783 
   42800    228.39754   -868.09105    134742.38   -40845.619    2841.6996   -43687.319    37.565717    0.9269058 
   42900    222.18293   -938.58288    134741.96   -40918.768    2764.3781   -43683.146    37.655756   0.92690868 
   43000    221.79456   -678.92503    134808.53   -40943.151    2759.5459   -43702.697    37.625821   0.92645098 
   43100    225.73529   -834.02418    134991.65    -40925.69    2808.5761   -43734.266    37.771397    0.9251942 
   43200    223.65916   -770.22183     134948.1   -40890.586    2782.7452   -43673.332    37.895335   0.92549278 
   43300     225.6445   -883.31307    135102.45   -40900.051    2807.4466   -43707.498    38.048852   0.92443545 
   43400    226.54967   -887.50819       135084   -40866.146    2818.7086   -43684.855    38.006899   0.92456167 
   43500    226.77955   -840.55576    135014.11   -40872.309    2821.5688   -43693.878    38.065221   0.92504032 
   43600    231.73205   -766.68318    135026.57   -40771.346    2883.1873   -43654.533    38.155205   0.92495492 
   43700    226.67681   -761.66513    135132.09   -40805.869    2820.2905    -43626.16    38.020579    0.9242327 
   43800    226.28838   -1026.9438    134943.26   -40815.413    2815.4576    -43630.87    38.100297   0.92552599 
   43900    226.41271   -747.22497    134714.87   -40849.286    2817.0046   -43666.291    38.171148   0.92709506 
   44000    223.01671   -871.23772    134768.92   -40877.329    2774.7518   -43652.081    38.224825   0.92672324 
   44100    227.47338   -786.75497    134649.36   -40900.973    2830.2013   -43731.174     38.21292   0.92754611 
   44200    225.75832   -692.72044    134676.43   -40933.455    2808.8627   -43742.317    38.232052   0.92735967 
   44300    224.12941   -857.54942    134590.68   -40941.096    2788.5959   -43729.691    38.316353    0.9279505 
   44400    228.86412   -863.77109    134645.35   -40905.216    2847.5048   -43752.721     38.51175   0.92757374 
   44500    224.27203   -858.19218    134754.92   -40939.183    2790.3704   -43729.553     38.64073   0.92681955 
   44600    222.53461   -816.83747    134805.25   -40997.758    2768.7536   -43766.512    38.573677   0.92647352 
   44700    219.96526   -968.02547     134789.9   -40968.663     2736.786   -43705.449     38.71366   0.92657899 
   44800    223.68882   -879.94671    134906.53   -40927.191    2783.1142   -43710.306    38.673085   0.92577795 
   44900     224.8522   -860.04354    134806.92   -40881.054    2797.5889   -43678.643    38.762591     0.926462 
   45000    229.11655   -905.76673    134676.44   -40898.686    2850.6455   -43749.332    38.889908   0.92735961 
   45100      227.049   -907.45071    134620.78   -40835.734    2824.9212   -43660.655    39.065623   0.92774304 
   45200     223.0523   -898.04832    134619.82   -40893.023    2775.1946   -43668.218    39.012142   0.92774967 
   45300    225.84643    -687.3877    134721.76   -40909.704     2809.959   -43719.663    39.052539   0.92704768 
   45400    228.19703   -837.58974    134747.37   -40886.082    2839.2049   -43725.287    39.021177   0.92687148 
   45500    223.71093    -781.3751    134726.13   -40898.676    2783.3893   -43682.066    39.181826   0.92701761 
   45600    223.78449   -1083.6276    134623.07   -40890.905    2784.3045    -43675.21    39.121207   0.92772726 
   45700    221.02759   -859.33472    134574.81   -40913.936    2750.0034   -43663.939    39.078155   0.92805994 
   45800    231.39952   -825.36674    134451.17   -40866.615      2879.05   -43745.665    39.082051   0.92891336 
   45900    228.94724   -938.00016    134517.72   -40813.178    2848.5389   -43661.717     39.15093   0.92845385 
   46000    225.65453   -829.69877    134525.99   -40794.375    2807.5714   -43601.946    39.144875   0.92839675 
   46100    230.13628   -724.99879    134573.01    -40748.99    2863.3328   -43612.323    39.253862   0.92807238 
   46200    231.25406   -846.58285       134609   -40750.917    2877.2401   -43628.157    39.332188   0.92782426 
   46300     229.2413   -736.00732    134727.42    -40776.24    2852.1975   -43628.438    39.422205   0.92700867 
   46400    230.55965   -946.54135    134687.33   -40817.248    2868.6003   -43685.849     39.55316   0.92728462 
   46500    227.52371   -622.72425       134588   -40839.779    2830.8275   -43670.606    39.770682   0.92796901 
   46600    233.97489   -749.10168    134818.72   -40832.435    2911.0924   -43743.528    39.671297   0.92638096 
   46700    221.15498   -996.66805    134678.37   -40925.375    2751.5884   -43676.964    39.633864   0.92734633 
   46800    221.63415   -859.82588    134616.17   -40984.061    2757.5502   -43741.611    39.859303   0.92777484 
   46900    231.29274   -776.80829     134554.2   -40921.991    2877.7214   -43799.712    40.002935   0.92820209 
   47000    226.28633   -927.48981    134573.38   -40901.162    2815.4321   -43716.594    40.092615   0.92806982 
   47100    227.60898   -645.50966    134765.31   -40870.974    2831.8885   -43702.863    40.222688    0.9267481 
   47200    226.98257   -939.04977    134813.76   -40922.985    2824.0947    -43747.08    40.262059   0.92641503 
   47300    226.63296   -960.41441    134784.38   -40945.614    2819.7449   -43765.359    40.023201   0.92661697 
   47400    221.66827   -919.29218    134500.51   -40904.785    2757.9747    -43662.76    40.067017   0.92857263 
   47500    226.72088   -721.71693     134356.9   -40834.107    2820.8388   -43654.945    40.206712   0.92956515 
   47600    228.85899    -750.3239    134617.94   -40793.738    2847.4409   -43641.179     40.35938   0.92776262 
   47700    226.86989   -784.82723    134619.78   -40840.015    2822.6928   -43662.707    40.355107   0.92774992 
   47800    225.10691   -901.39426    134699.39    -40853.46    2800.7579   -43654.218    40.319694   0.92720164 
   47900    220.34058   -849.75332    134688.45   -40929.556    2741.4557   -43671.011    40.359817    0.9272769 
   48000    224.63935    -860.4748    134783.35   -40943.107    2794.9405   -43738.048    40.429759   0.92662404 
   48100    221.76424      -932.66    134652.59   -40898.399    2759.1687   -43657.568    40.641243   0.92752388 
   48200    222.28023   -873.24991     134728.5   -40930.668    2765.5886   -43696.257    40.706261    0.9270013 
   48300    221.03264   -800.60327    134780.97     -40918.5    2750.0662   -43668.566    40.772187   0.92664041 
   48400    228.34201   -930.14555    134671.38   -40847.457    2841.0087   -43688.466    40.724489   0.92739446 
   48500    228.68679   -915.15723    134446.89   -40931.543    2845.2984   -43776.841    40.550104   0.92894297 
   48600    222.40853   -965.87999    134386.22   -40933.195    2767.1849    -43700.38    40.789918   0.92936236 
   48700    229.59113   -717.32604    134357.24   -40902.879    2856.5501    -43759.43    40.711263   0.92956282 
   48800    225.58824   -809.22181    134401.64   -40924.752    2806.7466   -43731.498    40.733147   0.92925569 
   48900    228.80206   -923.05512    134554.14    -40908.04    2846.7326   -43754.773    40.705069   0.92820254 
   49000    225.46364   -870.57658     134625.9   -40954.659    2805.1963   -43759.856    40.888526   0.92770777 
   49100     225.1646   -815.20661    134500.73   -40956.216    2801.4757   -43757.692    41.187695   0.92857113 
   49200     224.1235   -851.50376    134549.81    -40977.34    2788.5224   -43765.863    41.129289    0.9282324 
   49300    224.66175   -911.03349    134593.74   -40928.136    2795.2193   -43723.355    41.038393   0.92792945 
   49400    226.09932   -838.59318    134448.91   -40923.999    2813.1054   -43737.104    40.880878   0.92892898 
   49500    228.25562   -861.18111    134417.74   -40930.756    2839.9339    -43770.69    40.868594    0.9291444 
   49600     224.8923   -925.61592    134382.82   -40927.747    2798.0878   -43725.835    41.042668   0.92938581 
   49700    224.31679    -1006.399    134478.14   -40937.996    2790.9274   -43728.923    41.092478   0.92872706 
   49800    225.09503   -873.00067    134517.62   -40978.765    2800.6102   -43779.375    41.115769   0.92845449 
   49900    229.75843   -896.21345     134591.6   -40872.027    2858.6317   -43730.659    41.198462   0.92794417 
   50000    228.44263   -768.27082    134751.91   -40910.985    2842.2606   -43753.245    41.408466   0.92684023 
   50100    225.53721   -857.13589    134810.11   -40925.228    2806.1116    -43731.34     41.36231   0.92644007 
   50200    222.54404   -914.15507    134746.77   -40967.043     2768.871   -43735.914    41.344905   0.92687558 
   50300    228.87958   -776.94525    134866.71   -40940.547    2847.6972   -43788.244    41.542123   0.92605126 
   50400    224.17254   -908.80581    134755.65   -40964.866    2789.1326   -43753.999    41.587134   0.92681454 
   50500    223.59121   -847.06251    134572.43   -41014.202    2781.8997   -43796.102    41.795039   0.92807633 
   50600     221.7733   -909.81109    134525.65   -41028.892    2759.2815   -43788.174    41.624982   0.92839908 
   50700    222.39538   -957.69528     134512.7   -41042.574    2767.0214   -43809.596    41.903847   0.92848846 
   50800    227.12327   -920.54107    134336.96   -41033.108    2825.8453   -43858.954    41.978921   0.92970314 
   50900    226.97994   -896.61269    134275.74   -40943.705    2824.0619   -43767.767    41.863774   0.93012702 
   51000    222.78658   -764.71949    134331.63   -40975.398    2771.8886   -43747.286    41.806659   0.92974004 
   51100    222.06962   -900.32932    134685.77   -41003.325    2762.9682   -43766.293    42.050833   0.92729537 
   51200    222.23659   -906.41409    134724.48   -40988.685    2765.0457   -43753.731    42.042012   0.92702896 
   51300    222.77502   -902.59319    134515.11   -41049.268    2771.7448   -43821.013    42.068587   0.92847183 
   51400    220.70972   -821.29562     134558.7   -41035.496    2746.0485   -43781.544    42.084279   0.92817104 
   51500    222.48317   -816.16338    134520.13   -41041.442    2768.1137   -43809.556    42.347294   0.92843718 
   51600    222.97594   -877.01199       134431   -40984.261    2774.2446   -43758.506    42.127503   0.92905275 
   51700    223.55981     -688.939    134386.72   -40963.532    2781.5091   -43745.041    42.036207   0.92935886 
   51800    223.49636   -810.05938    134559.21   -40996.542    2780.7196   -43777.261    42.005406   0.92816756 
   51900    222.99991   -706.95205    134512.04   -41033.404    2774.5429   -43807.947    42.049795     0.928493 
   52000    222.13113   -1019.8393    134455.04   -41055.765    2763.7336   -43819.499     42.22625   0.92888662 
   52100    222.83028   -909.34866    134498.02   -40997.332    2772.4323   -43769.764    42.448693   0.92858982 
   52200    223.54908   -922.71526    134606.75   -41015.825    2781.3755   -43797.201    42.450877    0.9278397 
   52300    224.95892   -1022.5254    134407.26   -40992.928    2798.9166   -43791.844    42.205718   0.92921685 
   52400    224.23462   -898.37404    134388.43   -40940.819     2789.905   -43730.724    42.303373   0.92934705 
   52500     222.8684   -935.54516    134504.92   -40923.497    2772.9066   -43696.403    42.462952   0.92854217 
   52600    220.74148   -954.44902    134405.03   -40941.366    2746.4437    -43687.81    42.614023   0.92923228 
   52700    220.96549   -795.52282    134389.62   -40956.855    2749.2308   -43706.085    42.652582   0.92933886 
   52800    225.88204   -931.75823    134357.37   -40911.756     2810.402   -43722.158    42.510291   0.92956186 
   52900    223.92583   -883.39532    134453.52   -40897.921     2786.063   -43683.984     42.48541   0.92889713 
   53000    224.96769   -803.24301    134275.45   -40869.926    2799.0258   -43668.952    42.559859   0.93012901 
   53100     227.4955      -811.94    134353.21   -40918.404    2830.4765   -43748.881    42.507564   0.92959069 
   53200     224.0794     -871.925    134190.06   -40910.823    2787.9738   -43698.797    42.451063   0.93072087 
   53300    223.38233   -920.75934    134170.56   -40907.497    2779.3009   -43686.798    42.664009   0.93085617 
   53400    224.75944   -659.96893    134288.61   -40971.815    2796.4347    -43768.25    42.791777   0.93003785 
   53500    225.74638   -941.49476    134329.66   -40982.993    2808.7141   -43791.707    42.815233   0.92975368 
   53600    225.15308   -967.22854    134220.81   -40986.828    2801.3324    -43788.16    42.659049   0.93050767 
   53700    221.44156   -820.82264    134180.26   -41022.896    2755.1541    -43778.05    42.653356   0.93078889 
   53800    224.19427   -774.13131    134231.42   -40901.984     2789.403   -43691.387    42.883848   0.93043407 
   53900    221.06562    -808.9343    134284.26   -40950.455    2750.4766   -43700.932    42.910261   0.93006801 
   54000    226.28689   -701.79331    134493.57   -40910.645    2815.4391   -43726.084    43.118239   0.92862052 
   54100    223.29806   -785.94238    134338.97   -40933.057    2778.2523    -43711.31    42.804469   0.92968924 
   54200    224.13184   -723.50434    134418.49   -40903.091    2788.6262   -43691.717    42.907254   0.92913922 
   54300    227.41994   -1054.9731    134434.09   -40869.014    2829.5364   -43698.551    43.070525   0.92903142 
   54400    224.32146   -885.17122    134341.71   -40898.364    2790.9854    -43689.35    43.244762   0.92967024 
   54500     222.6348   -830.77832    134387.19   -40885.354    2770.0002   -43655.354    43.152162   0.92935565 
   54600    230.19971   -795.78141    134428.73   -40774.135    2864.1221   -43638.257    43.240615   0.92906844 
   54700      225.736   -926.52507    134562.27   -40783.051     2808.585   -43591.636    43.418223   0.92814645 
   54800    226.49299   -930.67184    134392.15   -40846.878    2818.0034   -43664.882     43.44539   0.92932135 
   54900    224.03806   -783.72077    134105.14   -40898.764    2787.4594   -43686.223     43.41452   0.93131025 
   55000     221.9403   -943.26289     134073.5   -40961.117    2761.3592   -43722.477    43.263193   0.93153005 
   55100    221.72015   -854.95367    134104.48   -40919.022    2758.6202   -43677.642    43.526033   0.93131482 
   55200    218.96862   -682.59826    134171.97   -40910.123     2724.386   -43634.509    43.634468   0.93084635 
   55300    223.02967   -777.90431    134184.82   -40863.836    2774.9131   -43638.749     43.82726   0.93075721 
   55400    224.05865   -821.95641    134261.77   -40829.259    2787.7156   -43616.975    43.932579   0.93022379 
   55500    225.90597   -928.14099     134584.6   -40770.447    2810.6997   -43581.147    44.063091   0.92799245 
   55600    222.14334    -819.7483    134514.05   -40797.685    2763.8855    -43561.57    44.144093   0.92847913 
   55700    226.75641    -822.2542    134597.88   -40790.347    2821.2809   -43611.628    44.205717   0.92790085 
   55800    227.49337   -905.73385    134480.69   -40804.865      2830.45   -43635.315    44.316568   0.92870947 
   55900    223.23515   -845.32743    134495.88   -40764.236    2777.4696   -43541.705     44.17096   0.92860462 
   56000    228.42618   -891.59757    134435.92   -40762.635    2842.0559   -43604.691    44.163853   0.92901876 
   56100    230.22966   -883.65149    134382.57   -40737.099    2864.4947   -43601.594    44.366055   0.92938759 
   56200    227.16395   -876.40924    134385.28   -40738.532    2826.3514   -43564.883    44.333324   0.92936881 
   56300    223.89411   -823.00734    134327.84   -40776.772    2785.6684    -43562.44     44.47317   0.92976627 
   56400    223.21281   -870.04822    134256.61    -40773.13    2777.1918   -43550.322    44.436069   0.93025953 
   56500    226.20487   -902.04878    134255.39   -40877.304    2814.4187   -43691.723    44.516321   0.93026797 
   56600    223.72242    -867.9225       134252   -40905.778    2783.5322   -43689.311    44.497305   0.93029146 
   56700    219.09879   -939.53526    134307.09   -40941.563    2726.0055   -43667.569     44.68521   0.92990992 
   56800     223.4427    -738.0982    134329.74   -40864.612     2780.052   -43644.664     44.92281   0.92975311 
   56900     223.8435   -934.07691    134413.75   -40849.682    2785.0387   -43634.721    45.068414     0.929172 
   57000    229.54676   -712.25257    134297.89   -40806.595    2855.9981   -43662.593     45.01504   0.92997361 
   57100    228.46147   -903.75861     134458.6   -40879.508     2842.495   -43722.003    45.358579   0.92886206 
   57200    221.49337   -872.98109    134305.75   -40921.334    2755.7986   -43677.133    45.448187   0.92991916 
   57300    222.13979   -829.26027    134303.62   -40974.951    2763.8414   -43738.792    45.397041    0.9299339 
   57400     220.6341   -879.51317    134333.39   -40985.621    2745.1076   -43730.729    45.317482   0.92972781 
   57500    218.09057   -845.29111    134487.94   -41019.796    2713.4614   -43733.257    45.521117   0.92865942 
   57600    225.69356   -785.32431     134450.5   -40981.378     2808.057   -43789.435    45.559319   0.92891799 
   57700    220.06977   -725.20175    134417.01   -41035.459    2738.0863   -43773.545    45.727777   0.92914942 
   57800    218.38318   -941.22095    134444.88   -41046.331    2717.1019   -43763.433    45.811896   0.92895688 
   57900    221.26704   -932.85048     134577.2   -41017.838    2752.9826   -43770.821    46.009805   0.92804343 
   58000     220.6439   -833.38878    134595.82   -41032.487    2745.2296   -43777.716    46.079722   0.92791508 
   58100    222.03301   -881.81249    134717.85   -40957.696    2762.5128   -43720.209     46.08214   0.92707459 
   58200    224.72463    -686.4662    134842.18   -40893.196    2796.0016   -43689.198    46.037207   0.92621975 
   58300    227.48181   -945.13352    134614.45    -40834.19    2830.3063   -43664.497    45.883828   0.92778665 
   58400    225.67563   -743.29371    134619.62   -40836.591    2807.8339   -43644.425    45.842154   0.92775105 
   58500     227.6161   -771.92537    134750.38   -40843.248    2831.9771   -43675.226    45.994326   0.92685074 
   58600    225.40886   -887.43201    134792.88   -40816.139    2804.5148   -43620.653    45.997042    0.9265585 
   58700    230.04234   -916.72068    134606.98   -40821.469     2862.164   -43683.633    45.943733   0.92783813 
   58800    225.69143   -789.85426    134637.19    -40875.86    2808.0305   -43683.891     46.25092   0.92762994 
   58900    223.01398   -740.99019    134692.99   -40920.639    2774.7179   -43695.356    46.377755   0.92724568 
   59000    223.86146   -784.64416    134785.11   -40911.304    2785.2622   -43696.567    46.560996   0.92661193 
   59100    225.10066   -991.67799    134694.84    -40915.21    2800.6801    -43715.89    46.361573   0.92723296 
   59200    223.27067   -820.09299    134631.77   -40932.401    2777.9116   -43710.313    46.429367   0.92766729 
   59300    223.09005   -968.33197    134462.13   -40929.732    2775.6643   -43705.396     46.47007    0.9288377 
   59400    221.75011   -888.74968     134607.7   -40977.577    2758.9929    -43736.57    46.414259   0.92783321 
   59500    223.63923   -826.42925    134626.25   -40944.391    2782.4972   -43726.888    46.552409   0.92770533 
   59600    224.39636   -887.45611    134558.66   -40942.776    2791.9173   -43734.694    46.469433   0.92817131 
   59700    220.93037   -755.52559    134466.21   -40972.725    2748.7938   -43721.519     46.41787   0.92880951 
   59800    221.56122   -936.14322    134498.42   -40968.495    2756.6428   -43725.138    46.559965   0.92858705 
   59900    223.54697   -1020.1829    134281.91   -40947.792    2781.3493   -43729.141    46.783209   0.93008426 
   60000    223.06379   -782.04343    134380.48   -40966.409    2775.3376   -43741.746    46.873082   0.92940203 
   60100    225.51931   -1005.0131    134410.35    -40923.17     2805.889   -43729.059    47.070897    0.9291955 
   60200    221.42398   -841.99565    134180.28   -40898.983    2754.9353   -43653.918    47.097173   0.93078871 
   60300    229.21832   -1003.3068    134305.22   -40852.599    2851.9117    -43704.51    47.329478   0.92992286 
   60400    228.53404   -801.85353    134306.72   -40811.775    2843.3979   -43655.173    47.156091   0.92991243 
   60500    223.17322   -882.50975    134370.23   -40848.115    2776.6991   -43624.814     46.84558   0.92947292 
   60600    227.85655   -745.39871    134444.36   -40906.576    2834.9687   -43741.545    46.949604   0.92896042 
   60700    222.85318   -799.83656     134460.1   -40925.032    2772.7173   -43697.749      47.0313   0.92885168 
   60800    230.68497   -783.68086    134490.54   -40889.899    2870.1596   -43760.059    47.071689   0.92864145 
   60900    227.73841   -810.75762    134761.69   -40897.605    2833.4988   -43731.104    47.355979   0.92677297 
   61000    223.46363   -829.83423    134645.87   -40931.389    2780.3124   -43711.701    47.493736   0.92757017 
   61100    224.50844   -842.91136    134506.98   -40979.479    2793.3118   -43772.791    47.494113   0.92852795 
   61200    221.44152   -809.66915    134581.51   -40981.509    2755.1535   -43736.663    47.899938   0.92801372 
   61300    222.99569   -785.99485    134579.68   -40965.203    2774.4904   -43739.693    47.807677   0.92802639 
   61400    221.78708   -774.43456     134654.5   -41006.397    2759.4529    -43765.85    47.633779   0.92751073 
   61500    223.15425   -785.67051    134548.76   -41020.196    2776.4631   -43796.659    47.811147   0.92823962 
   61600    224.97667   -776.50473    134610.69   -40968.994    2799.1375   -43768.131    48.006748   0.92781259 
   61700    223.48146   -853.18608    134478.75   -41053.027    2780.5342   -43833.562    48.073783   0.92872284 
   61800    219.86331   -732.61573     134292.6   -41124.611    2735.5176   -43860.129    48.191935   0.93001025 
   61900    223.97658   -678.03922    134500.69   -41065.841    2786.6945   -43852.535    48.200497   0.92857141 
   62000    226.64711   -855.97471    134515.58   -41018.631    2819.9209   -43838.552    48.095711   0.92846857 
   62100    225.91019   -702.30874    134563.09   -41036.512    2810.7522   -43847.264    48.070019   0.92814078 
   62200    224.58795   -853.50241    134510.29   -40988.724    2794.3011   -43783.025    47.859271   0.92850509 
   62300    221.29918   -784.16995    134415.82    -41031.88    2753.3825   -43785.263    48.054755   0.92915765 
   62400    226.77835   -740.51578    134485.65   -40975.024    2821.5538   -43796.578    48.381595   0.92867525 
   62500    225.92661   -826.50344    134544.82   -40994.815    2810.9565   -43805.771    48.590932   0.92826679 
   62600    229.10847   -890.87935    134558.49   -41004.189     2850.545   -43854.734    48.589692   0.92817249 
   62700    225.31553   -911.89595    134530.73   -41039.067    2803.3535   -43842.421    48.449017   0.92836403 
   62800     226.7021   -836.37163    134397.51   -41019.253    2820.6051   -43839.858    48.241706   0.92928428 
   62900    222.43251   -860.67165    134386.03   -40971.061    2767.4832   -43738.544    48.100487   0.92936368 
   63000     224.5323   -766.63528    134467.62   -40920.063    2793.6087   -43713.671    48.497336   0.92879975 
   63100    227.65751   -869.82699    134478.33   -40903.423    2832.4922   -43735.916    48.801752   0.92872575 
   63200    226.63156   -863.39417    134529.71   -40934.323    2819.7274   -43754.051     48.82075   0.92837109 
   63300    226.99511   -894.40101    134444.89    -40983.33    2824.2507   -43807.581    48.944904   0.92895678 
   63400    228.04985   -864.22456     134588.4   -40910.452    2837.3737   -43747.826    49.003596   0.92796622 
   63500    225.77296   -819.71847    134766.12   -41003.053    2809.0448   -43812.098    49.123835    0.9267425 
   63600    221.83908   -809.36999    134639.82   -41002.245       2760.1   -43762.345    49.065868   0.92761182 
   63700     225.8823   -719.76255    134765.07   -41000.303    2810.4052   -43810.708    49.070531    0.9267497 
   63800    224.66859   -785.48595    134879.38   -41102.587    2795.3044   -43897.892    49.162189    0.9259643 
   63900    221.89265   -694.22261    135079.72   -41104.072    2760.7664   -43864.839    49.252893   0.92459101 
   64000    225.60861   -742.50105    135189.34   -41092.272         2807   -43899.272    49.425922   0.92384127 
   64100    227.75847   -838.26248    135138.82   -41007.522    2833.7483    -43841.27    49.504508    0.9241866 
   64200     227.2647   -849.84289    134953.56   -41015.871    2827.6049   -43843.476    49.609899   0.92545535 
   64300    228.57485   -758.55502    134952.14   -40920.043    2843.9057   -43763.948    49.258134   0.92546504 
   64400    224.40955   -825.33885    134913.32   -40932.657    2792.0814   -43724.738    49.240636   0.92573136 
   64500    231.64948   -825.89517    134744.94    -40923.63    2882.1599    -43805.79    49.484867   0.92688818 
   64600    222.53768   -751.46704    134879.61   -40970.555    2768.7919   -43739.346    49.520347   0.92596269 
   64700    226.54164   -895.35362    134728.01   -40982.716    2818.6087   -43801.324    49.494788   0.92700464 
   64800    226.12532   -805.33347    134836.98   -41008.239    2813.4289   -43821.668     49.63125   0.92625545 
   64900    222.98126   -735.53549    134871.52   -40989.867    2774.3108   -43764.178    49.677567   0.92601825 
   65000    226.39696   -767.60138    134878.19    -40961.47    2816.8085   -43778.279    49.647684    0.9259725 
   65100    222.58565   -944.63296    134983.45   -40985.847    2769.3886   -43755.236    49.624173   0.92525043 
   65200    224.44917   -883.56581    134736.89    -40971.77    2792.5744   -43764.344    49.462006   0.92694353 
   65300     225.4547   -823.59304    134860.85   -40971.686    2805.0851   -43776.771    49.517972   0.92609153 
   65400    226.42266   -879.95933    135065.69   -40920.564    2817.1283   -43737.692    49.783282   0.92468699 
   65500     225.3901   -947.84943    135033.57   -40992.227    2804.2813   -43796.509    49.910242   0.92490698 
   65600     223.4254   -808.95954    135059.99    -41029.33    2779.8367   -43809.167    49.803114   0.92472603 
   65700    224.17466    -846.5585    134854.17   -41077.864     2789.159   -43867.023    49.815721   0.92613743 
   65800    220.78521   -873.81969    134948.51   -41079.515    2746.9877   -43826.503    49.612664   0.92548993 
   65900    222.53122   -977.12328    134879.87   -41046.949    2768.7115    -43815.66     49.77635   0.92596094 
   66000    227.92276   -924.21137    135032.43   -40953.982    2835.7924   -43789.775    49.638938   0.92491481 
   66100    227.54174   -838.08927     135072.1   -40907.956    2831.0518   -43739.008    49.747352   0.92464314 
   66200    230.12482    -764.5799    135157.19   -40893.521    2863.1902   -43756.711    50.028761   0.92406105 
   66300    229.15468   -898.57525    134999.84   -40932.445    2851.1199   -43783.565    50.222005   0.92513806 
   66400    227.98547   -662.99098     134752.2    -40990.73    2836.5727   -43827.303    50.271695   0.92683822 
   66500     225.8903    -899.1792    134818.33   -41003.491    2810.5048   -43813.995    50.415103   0.92638359 
   66600    226.32027     -759.699    135018.49   -41006.213    2815.8544   -43822.068    50.491637   0.92501026 
   66700    221.73673   -611.61038    135026.84   -41036.415    2758.8265   -43795.241    50.565253   0.92495308 
   66800    229.15645    -886.9557     135006.8   -40969.967    2851.1419   -43821.109    50.422537   0.92509038 
[...]
   84600    216.86389   -901.99481    134808.54   -41095.874    2698.1991   -43794.073    57.893555   0.92645086 
   84700    222.68425   -850.79856    134793.01   -41105.437    2770.6154   -43876.053    58.177671   0.92655763 
   84800    223.74769    -911.3542    134808.13   -41066.823    2783.8466    -43850.67    58.069145    0.9264537 
   84900    225.62147   -784.73356    134799.91    -41045.59      2807.16    -43852.75    57.874122   0.92651023 
   85000    225.22613   -840.22788    134825.61   -40997.928    2802.2412   -43800.169    57.949482   0.92633358 
   85100    223.64193   -849.89418    134861.85   -40992.526    2782.5308   -43775.057    57.956791   0.92608468 
   85200    224.32277   -885.25885    134786.09   -41015.946    2791.0017   -43806.948    57.978095   0.92660518 
   85300    223.92609   -747.10184    134822.26   -41062.969    2786.0662   -43849.035    58.019782   0.92635659 
   85400    225.42817   -977.06447    134755.84   -41056.387     2804.755   -43861.142    58.170392   0.92681317 
   85500    220.35338    -757.4015    134750.91   -41023.744     2741.615   -43765.359    58.241769   0.92684712 
   85600    226.29208   -796.27631    134897.26   -40995.489    2815.5036   -43810.993    58.539556   0.92584155 
   85700     223.8801   -936.99706    134739.46   -41047.402     2785.494   -43832.896    58.309105   0.92692586 
   85800    222.23644   -965.20062    134862.26   -41029.034    2765.0439   -43794.078    58.348747   0.92608187 
   85900    225.44226   -941.01395    134972.66   -40934.119    2804.9303   -43739.049    58.261628   0.92532436 
   86000    224.82402    -818.2199    134909.57   -40997.008    2797.2383   -43794.246    58.259905   0.92575711 
   86100    225.83301   -880.49923     134849.7   -41002.589    2809.7919   -43812.381    58.444566   0.92616808 
   86200    229.17172   -914.28268    134857.18   -40976.816    2851.3318   -43828.148     58.62108   0.92611673 
   86300     228.5779   -819.19993    135091.65   -41010.668    2843.9437   -43854.611    58.771681   0.92450932 
   86400    226.17446   -808.59919    135062.17   -41033.405    2814.0402   -43847.445    58.783953   0.92471115 
   86500    225.27253    -815.7623    135125.08   -41018.285    2802.8186   -43821.104     58.68219    0.9242806 
   86600    228.92159   -756.77912    135187.27   -40964.265    2848.2198   -43812.485    58.826359   0.92385544 
   86700    229.67961   -790.85023    135409.43   -40955.693    2857.6509   -43813.343    58.951253   0.92233972 
   86800    226.72082   -656.58268    135416.29   -41030.996     2820.838   -43851.834    58.865774   0.92229293 
   86900    224.13524   -841.85178    135478.24   -41004.875    2788.6685   -43793.543    59.096716   0.92187123 
   87000    227.34944   -844.49381    135477.42   -41011.472    2828.6593   -43840.132    59.104392   0.92187679 
   87100    226.16357   -771.49809     135389.2   -41044.776    2813.9048   -43858.681    59.196511   0.92247753 
   87200    227.22281   -827.53724    135415.22   -41039.513    2827.0838   -43866.597    59.045755   0.92230023 
   87300    227.62956   -884.49012    135585.57   -41040.703    2832.1445   -43872.848    59.415584   0.92114147 
   87400    230.77207    -887.9323    135604.94   -41063.715    2871.2433   -43934.958    59.298974   0.92100989 
   87500    226.34702   -878.46278    135654.13   -41097.841    2816.1873   -43914.028    59.445707   0.92067594 
   87600    222.35287   -791.94917    135568.21   -41120.744    2766.4924   -43887.236    59.514482   0.92125943 
   87700    224.35211   -772.93111    135790.83   -41133.378    2791.3667   -43924.745    59.582861   0.91974905 
   87800    226.28863   -1038.7753    135611.89   -41118.838    2815.4607   -43934.299    59.610943    0.9209627 
   87900    222.75349   -937.59988    135433.93   -41130.278    2771.4769   -43901.755    59.542626   0.92217284 
   88000    221.06132    -767.9041    135528.55   -41130.591    2750.4231   -43881.014    59.578598     0.921529 
   88100    224.90297    -921.3415     135570.1   -41064.545    2798.2205   -43862.766    59.600571   0.92124658 
   88200    224.75137   -846.47922    135448.56   -41040.035    2796.3344    -43836.37    59.728462   0.92207323 
   88300    227.08996   -801.10742     135425.1   -41054.783    2825.4308   -43880.214    59.765281   0.92223294 
   88400    219.07552   -827.90755    135479.05   -41154.964    2725.7159    -43880.68    59.794685    0.9218657 
   88500    226.76933   -834.73349    135370.73   -41062.902    2821.4415   -43884.344    59.741571   0.92260336 
   88600     224.4456   -827.22938    135256.52   -41022.294    2792.5299   -43814.824    59.628969   0.92338239 
   88700    225.28915   -870.40284    135433.92   -41000.745    2803.0253    -43803.77    59.825832   0.92217288 
   88800    229.10898   -876.83992     135124.5   -40947.404    2850.5513   -43797.955    59.965685   0.92428457 
   88900    233.16126   -720.10181    134924.59   -40993.589    2900.9694   -43894.558    59.986492   0.92565403 
   89000    225.86191   -905.30606    134975.29   -40978.671    2810.1515   -43788.822    59.786651   0.92530636 
   89100    221.88863   -957.04567    134904.29   -41071.498    2760.7164   -43832.215    59.778596   0.92579334 
   89200    222.11182   -708.78344    134915.55   -41096.165    2763.4933   -43859.659    59.850012   0.92571604 
   89300    224.09004   -800.39253    135121.43   -41103.717    2788.1062   -43891.823     59.96668   0.92430558 
   89400    221.28199   -869.88775    134946.98   -41136.085    2753.1686   -43889.254    59.917341   0.92550048 
   89500    220.11769   -854.07133    134816.07   -41174.042    2738.6825   -43912.724    59.877338   0.92639911 
   89600     216.2757   -832.38126    134748.84   -41216.227    2690.8808   -43907.108    59.911172   0.92686137 
   89700     216.2846   -710.54868    134983.93    -41161.25    2690.9916   -43852.242    60.090201    0.9252471 
   89800    220.15997   -934.01926    135063.14   -41114.055    2739.2086   -43853.264    60.317471   0.92470448 
   89900    222.17934   -886.91031    135088.86   -41159.077    2764.3334    -43923.41    60.320218    0.9245284 
   90000    223.36766   -883.01742     135067.4   -41058.944    2779.1184   -43838.062    60.344217   0.92467529 
   90100    220.08883   -845.04661    135125.25    -41058.37    2738.3234   -43796.693    60.469989   0.92427944 
   90200    223.18472   -875.02327    135054.58   -41088.287    2776.8422   -43865.129    60.488315   0.92476307 
   90300     218.1534   -820.24441    135057.17   -41099.247    2714.2431    -43813.49    60.434939   0.92474533 
   90400    220.62746   -648.90861    135049.68   -41082.068    2745.0251   -43827.093    60.304809   0.92479662 
   90500    226.11645   -903.89092    135196.66   -41053.227    2813.3185   -43866.545     60.27811   0.92379123 
   90600    226.55894   -973.92508    135122.32   -40954.116    2818.8239    -43772.94    60.421607    0.9242995 
   90700    226.87911   -858.78797    135263.87   -40973.571    2822.8075   -43796.378      60.6756   0.92333227 
   90800    222.14756   -921.40908     135148.8   -41011.991     2763.938   -43775.929    60.675716   0.92411839 
   90900    224.55384   -971.69455    135250.47   -41095.013    2793.8767    -43888.89     60.90373   0.92342374 
   91000    222.63214   -890.26405    135273.68   -41106.579    2769.9671   -43876.546    60.654965   0.92326528 
   91100    220.49387   -901.37765    135295.09   -41104.253     2743.363   -43847.616    60.682745   0.92311916 
   91200    223.45449    -911.5878    135271.53   -41069.697    2780.1986   -43849.895    60.663023   0.92327996 
   91300    228.76106   -691.33021     135371.1   -40974.549    2846.2225   -43820.772    60.889942   0.92260088 
   91400    229.04612    -963.2779    135356.84   -40958.045    2849.7692   -43807.814    60.892056   0.92269807 
   91500     228.8271   -926.50528     135315.8   -40972.873    2847.0442   -43819.918    60.914344   0.92297787 
   91600    226.67335   -819.80574    135290.19   -41027.712    2820.2474    -43847.96    60.916161   0.92315263 
   91700    222.52008   -939.07012    135103.72   -41099.838    2768.5728    -43868.41    60.694375   0.92442675 
   91800    224.45105   -793.64491    135139.57   -41060.162    2792.5978   -43852.759    60.722223   0.92418149 
   91900    225.39277   -819.39139    135183.45   -41057.585    2804.3145     -43861.9    60.883961   0.92388153 
   92000    218.19588   -881.06164    135038.65   -41060.068    2714.7716    -43774.84     60.86966   0.92487217 
   92100    222.22237   -865.19965    135065.12   -41097.825    2764.8688   -43862.694    61.074311   0.92469091 
   92200    225.73733   -920.78068     134960.5   -41041.955    2808.6016   -43850.557    61.038764   0.92540775 
   92300    223.40558   -986.16963    134956.93   -40961.664    2779.5901   -43741.254     61.01177   0.92543225 
   92400    226.83806    -706.8878    134972.63   -40965.047    2822.2967   -43787.343    61.210935   0.92532454 
   92500    225.31444   -940.28939    134893.01    -41007.86    2803.3399     -43811.2    61.074536   0.92587075 
   92600    230.64631   -766.47672       135008   -40989.299    2869.6786   -43858.978    61.081166   0.92508213 
   92700    225.35804   -1023.9621    134929.86    -40990.71    2803.8824   -43794.592    61.253975    0.9256179 
   92800    222.43719   -948.61065    134772.57   -41038.731    2767.5415   -43806.273    61.278565   0.92669817 
   92900    224.71607   -918.12156    134934.05   -41003.391    2795.8951   -43799.286      61.2145   0.92558916 
   93000    226.78285   -936.32078    134935.42   -41029.461    2821.6098    -43851.07    61.435991   0.92557977 
   93100    223.62836   -697.92171     134861.5   -40962.919     2782.362   -43745.281    61.219804   0.92608708 
   93200    224.48725   -912.65982    135005.34   -40976.567    2793.0482   -43769.616    61.299452   0.92510037 
   93300    224.93135   -791.06033    135041.73   -40986.953    2798.5736   -43785.527    61.244846   0.92485106 
   93400    222.23612    -854.8202    135093.91   -41009.082    2765.0399   -43774.122    61.360014   0.92449385 
   93500    221.10938   -809.42092    135152.56   -41042.666    2751.0211   -43793.687    61.155497   0.92409267 
   93600    222.14705   -958.61778    135157.09   -41111.102    2763.9316   -43875.034    61.474844   0.92406171 
   93700    221.94645   -730.42898    135174.22    -41064.87    2761.4358   -43826.306    61.759165   0.92394458 
   93800    228.28584    -912.9247    135201.23   -41035.947    2840.3098   -43876.257    61.975283   0.92375999 
   93900    229.09237   -866.41189    135356.83   -41031.769    2850.3447   -43882.114    62.033344   0.92269812 
   94000    221.28443   -784.48545    135342.72   -41051.734    2753.1991   -43804.933    61.824336   0.92279429 
   94100    221.12608   -962.74637    135202.25   -41055.282    2751.2288   -43806.511     61.84022   0.92375302 
   94200    222.33926   -939.19946     135245.9   -41048.127    2766.3231    -43814.45    61.919743   0.92345491 
   94300    222.02417    -813.9751    135149.04   -40994.703    2762.4028   -43757.105     62.09104   0.92411675 
   94400    226.46338   -912.71698    135220.29   -40987.363     2817.635   -43804.998    62.124701   0.92362984 
   94500    233.95201   -788.05304    135155.38   -40927.828    2910.8077   -43838.636    62.217218   0.92407336 
   94600    229.93787   -893.34877    135100.51   -40986.056    2860.8642    -43846.92    62.037527   0.92444873 
   94700    225.48626   -785.02087    134886.39   -41026.988    2805.4777   -43832.466     61.83969   0.92591618 
   94800    223.64296   -947.78168    134940.47   -41016.919    2782.5436   -43799.463    61.897998   0.92554513 
   94900    225.65334   -976.76466    134871.59   -40989.984    2807.5566    -43797.54    62.236866   0.92601782 
   95000    223.86232   -867.55708    134747.89   -40970.756    2785.2729   -43756.029    62.273279    0.9268679 
   95100    229.08496   -845.85335    134729.63   -40967.774    2850.2524   -43818.027    62.366186   0.92699351 
   95200    226.51689   -826.02003    134738.45   -40981.777    2818.3008   -43800.078    62.476489    0.9269328 
   95300     223.6356   -972.31549     134624.3   -40884.503    2782.4521   -43666.955    62.516529   0.92771877 
   95400    227.94925   -922.11806    134750.98   -40930.756     2836.122   -43766.878    62.330034   0.92684665 
   95500    228.91702   -721.63569    134640.05   -40932.522    2848.1629   -43780.685    62.381457   0.92761023 
   95600    229.04961     -843.231    134753.27   -40928.824    2849.8126   -43778.636    62.355296   0.92683086 
   95700    226.98163   -904.95106    134672.55   -41002.901     2824.083   -43826.984    62.451275   0.92738641 
   95800    228.25112   -1025.9456     134656.2   -41058.055    2839.8779   -43897.933    62.500476   0.92749901 
   95900    221.21206   -766.49588     134704.6   -41008.447    2752.2986   -43760.745    62.617066   0.92716576 
   96000    223.53981   -838.32641    134778.93   -41085.839    2781.2602   -43867.099    62.791618    0.9266544 
   96100    227.35495    -952.5589    134656.39   -41038.064    2828.7278   -43866.792    62.634647    0.9274977 
   96200     218.7213   -892.30817    134525.46   -41071.023    2721.3087   -43792.332    62.664638   0.92840044 
   96300    224.23007   -881.74739    134753.21   -41020.017    2789.8484   -43809.865    62.880587   0.92683127 
   96400    225.95215   -932.57171     134644.4   -40995.486    2811.2743    -43806.76    62.774258    0.9275803 
   96500    225.13061   -862.38506    134696.47   -41039.177    2801.0528    -43840.23    62.797243    0.9272217 
   96600    227.73558   -866.83004    134698.86    -41031.98    2833.4636   -43865.444    62.820848   0.92720528 
   96700    222.78949   -935.96505    134737.42     -41111.4    2771.9248   -43883.324    62.882595   0.92693987 
   96800    217.35334   -780.62603    134763.16   -41161.394    2704.2888   -43865.682    63.065298   0.92676284 
   96900    219.71068    -851.7463    134813.14   -41091.853    2733.6186   -43825.471    63.228261   0.92641926 
   97000    220.60002   -915.26805    134571.59   -41092.906    2744.6836   -43837.589     63.13852   0.92808216 
   97100     223.0975   -797.38893    134652.72   -41090.532     2775.757   -43866.289     63.20291   0.92752297 
   97200    219.71508   -772.60088    134553.67   -41096.202    2733.6733   -43829.876    63.371544   0.92820573 
   97300    223.51515   -712.07367    134699.24    -41094.76    2780.9535   -43875.713    63.255103   0.92720263 
   97400    223.50051   -798.50836    134827.46   -41104.391    2780.7713   -43885.162    63.425642   0.92632085 
   97500     224.3697   -1014.2791    134671.07   -41009.593    2791.5856   -43801.178    63.412487   0.92739656 
   97600    226.28779   -901.76234    134730.31   -41076.727    2815.4503   -43892.177    63.689193   0.92698884 
   97700    227.76191   -745.99806    134799.33   -41014.982    2833.7912   -43848.773    63.782247   0.92651418 
   97800    222.53248   -872.98441    134970.77   -40991.599    2768.7271   -43760.326    63.703288   0.92533731 
   97900    229.66468   -803.95811    134812.35   -40956.666    2857.4652   -43814.131    63.508021   0.92642469 
   98000    228.19952    -779.3384    134947.86   -40986.441    2839.2358   -43825.677    63.262009   0.92549443 
   98100    226.48832   -690.69377    135107.56   -41076.286    2817.9453   -43894.232    63.487396   0.92440045 
   98200    225.62884    -835.0907    134979.73   -41055.271    2807.2517   -43862.523    63.444299   0.92527592 
   98300    222.55287   -855.40863    134920.13   -41073.841    2768.9808   -43842.822    63.650624    0.9256846 
   98400    222.50888   -849.10137    135041.32   -41088.304    2768.4335   -43856.738    63.546059   0.92485393 
   98500     223.8565    -875.9902    134942.74   -41102.851    2785.2004   -43888.052    63.725783   0.92552953 
   98600    222.75235   -834.89285     134820.3   -41123.589    2771.4627   -43895.052    63.557053   0.92637005 
   98700    219.41299   -882.93189    134916.92   -41174.775    2729.9147    -43904.69    63.871232   0.92570664 
   98800    222.46052   -966.17229    135035.47   -41133.799    2767.8318   -43901.631     63.99955   0.92489397 
   98900    222.64648   -846.47892    134995.95   -41132.583    2770.1455   -43902.728    63.985465   0.92516476 
   99000    219.64603    -830.5826    135145.07   -41159.311    2732.8142   -43892.125    63.810406    0.9241439 
   99100    227.16191   -778.39526    135088.07   -41062.875     2826.326   -43889.201    64.067073   0.92453386 
   99200    225.58662   -846.83849    135045.47   -41047.598    2806.7265   -43854.324    64.063748   0.92482545 
   99300    227.84517   -966.88999    135131.54    -40990.66    2834.8271   -43825.487     64.20396   0.92423639 
   99400    223.80735   -801.69374    135228.25    -40958.33    2784.5889   -43742.919    64.441685   0.92357546 
   99500    229.39623    -820.2977    135273.42   -40832.177    2854.1252   -43686.303    64.033781   0.92326706 
   99600    228.94957   -902.40424    135498.59   -40841.765    2848.5679   -43690.333     64.16465   0.92173277 
   99700    227.61418   -769.50728    135475.18   -40857.912    2831.9532   -43689.865    64.294999   0.92189204 
   99800    226.10118   -981.22423     135343.1   -40870.502    2813.1285    -43683.63    64.234541   0.92279169 
   99900    226.09042    -938.8543    135308.73   -40931.834    2812.9946   -43744.828    64.512119   0.92302609 
  100000    224.98379   -869.48999    135263.97   -40944.636    2799.2261   -43743.862    64.645595   0.92333154 
  100100    227.37139   -886.65055    135452.71   -40886.942    2828.9324   -43715.874    64.604201   0.92204495 
  100200    226.98931   -941.04509    135335.32   -40909.891    2824.1785    -43734.07    64.670895   0.92284479 
  100300    226.03302   -714.66461    135511.54   -40900.236    2812.2805   -43712.517    64.792296   0.92164468 
  100400    224.95714   -1008.4066    135480.44   -40943.254    2798.8945   -43742.149     64.72029   0.92185626 
  100500    229.39383   -851.61428    135321.75   -40859.563    2854.0953   -43713.658    64.444466    0.9229373 
  100600    229.34261   -935.20869    135089.43   -40948.016    2853.4581   -43801.474    64.318698    0.9245245 
  100630    229.09241   -802.36564    135131.34   -40933.194    2850.3451   -43783.539    64.421691   0.92423781 
Loop time of 75.9262 on 6 procs for 100000 steps with 4175 atoms

Performance: 568.974 ns/day, 0.042 hours/ns, 1317.068 timesteps/s
98.3% CPU use with 6 MPI tasks x no OpenMP threads

MPI task timing breakdown:
Section |  min time  |  avg time  |  max time  |%varavg| %total
---------------------------------------------------------------
Pair    | 58.109     | 60.065     | 63.693     |  25.5 | 79.11
Neigh   | 5.0678     | 5.0832     | 5.1018     |   0.4 |  6.69
Comm    | 4.5113     | 8.1701     | 10.132     |  69.8 | 10.76
Output  | 0.15861    | 0.15936    | 0.16282    |   0.4 |  0.21
Modify  | 1.7477     | 1.7631     | 1.7835     |   1.0 |  2.32
Other   |            | 0.6857     |            |       |  0.90

Nlocal:        695.833 ave         699 max         690 min
Histogram: 1 0 0 0 0 1 1 1 1 1
Nghost:        1442.67 ave        1448 max        1431 min
Histogram: 1 0 0 0 1 0 0 1 0 3
Neighs:        0.00000 ave           0 max           0 min
Histogram: 6 0 0 0 0 0 0 0 0 0
FullNghs:      18791.3 ave       18956 max       18538 min
Histogram: 1 1 0 0 0 0 0 2 0 2

Total # of neighbors = 112748
Ave neighs/atom = 27.005509
Neighbor list builds = 5573
Dangerous builds = 0

undump              1
unfix               2
unfix               3
unfix               4


################################################
#######         Run Simulation         #########
################################################

reset_timestep      0
log                 log.run_${NAME}
log                 log.run_liquid_density_MLmW
