
# Define the lattice
#
variable	    lattice_constant equal 6.36339
lattice		    diamond ${lattice_constant}
lattice		    diamond 6.36339
Lattice spacing in x,y,z = 6.3633900 6.3633900 6.3633900

# Define region
# multiples of lattice spacing
#
region 		    simbox block 0 8 0 8 0 8

# Create Atoms
#
create_box          1 simbox
Created orthogonal box = (0.0000000 0.0000000 0.0000000) to (50.907120 50.907120 50.907120)
  1 by 2 by 3 MPI processor grid
create_atoms        1 box
Created 4096 atoms
  create_atoms CPU = 0.000 seconds
mass                1 18.015

# Define potential
#
pair_style          sw
pair_coeff          * * ML_mW.sw mW
Reading sw potential file ML_mW.sw with DATE: 2019-02-27

# Add velocity/set timestep
#
velocity            all create ${TEMP} 120598 rot yes dist gaussian
velocity            all create 292 120598 rot yes dist gaussian
timestep            5.0

# Define output
#
compute	            1 all msd
thermo              100
thermo_style        custom step temp press vol etotal ke pe c_1[4]

# Neighbor lists
#
neigh_modify        delay 0 every 1 check yes

# Set fixes
#
fix                 1 all momentum 10 linear 1 1 1 rescale
fix                 2 all nve
fix                 3 all temp/csvr ${TEMP} ${TEMP} 500.0 928347
fix                 3 all temp/csvr 292 ${TEMP} 500.0 928347
fix                 3 all temp/csvr 292 292 500.0 928347
fix                 4 all press/berendsen iso ${PRES} ${PRES} 1000.0 modulus 20000
fix                 4 all press/berendsen iso 1 ${PRES} 1000.0 modulus 20000
fix                 4 all press/berendsen iso 1 1 1000.0 modulus 20000

# Run 0.5 ns equilibration
#
dump		    1 all custom 1000 eq.${NAME}.dump id type x y z vx vy vz
dump		    1 all custom 1000 eq.ice_292K_1atm_ML.dump id type x y z vx vy vz
run                 100000
Neighbor list info ...
  update every 1 steps, delay 0 steps, check yes
  max neighbors/atom: 2000, page size: 100000
  master list distance cutoff = 6.0032907
  ghost atom cutoff = 6.0032907
  binsize = 3.0016454, bins = 17 17 17
  1 neighbor lists, perpetual/occasional/extra = 1 0 0
  (1) pair sw, perpetual
      attributes: full, newton on
      pair build: full/bin/atomonly
      stencil: full/bin/3d
      bin: standard
Per MPI rank memory allocation (min/avg/max) = 4.800 | 4.800 | 4.801 Mbytes
Step Temp Press Volume TotEng KinEng PotEng c_1[4] 
       0          292   -627.28843    131927.58   -46122.112    3564.2738   -49686.386            0 
     100    196.33644     120.2859    131291.13   -44683.293    2396.5645   -47079.858   0.10116113 
     200    227.37834    102.03964    131523.15    -43821.83    2775.4749   -46597.305   0.11420067 
     300    244.61326    78.573835    131663.62   -43254.808    2985.8515    -46240.66   0.13536034 
     400    259.27585   -47.083984    131783.47   -42919.993    3164.8292   -46084.823   0.14594336 
     500    274.50605   0.47849524    131908.22   -42678.031    3350.7354   -46028.766   0.13175442 
     600    284.60631   -51.403767     131952.9   -42398.443    3474.0233   -45872.466   0.16070638 
     700    295.75614    33.448218    132018.04    -42362.92    3610.1228   -45973.042   0.14878665 
     800    295.21464    58.998899    131994.41   -42258.231    3603.5131   -45861.744   0.15771743 
     900    290.64673    13.005743     132024.3   -42251.467    3547.7553   -45799.222   0.16535044 
    1000    296.36264     92.11724    132010.46   -42318.271    3617.5261   -45935.797   0.12692765 
    1100    293.18524    19.089603     132016.7   -42261.316    3578.7413   -45840.057   0.15262222 
    1200    291.30247    5.3372049    132007.14   -42231.142    3555.7594   -45786.902   0.14660054 
    1300    291.43322   -44.378738    132044.82   -42178.221    3557.3555   -45735.576   0.16535348 
    1400    294.35355  -0.57330154     132045.1   -42239.914    3593.0022   -45832.916   0.15514872 
    1500    292.88046    29.366111    132053.38   -42304.619     3575.021    -45879.64   0.13465139 
    1600    296.63863    28.310292    132046.54   -42251.351    3620.8948   -45872.246   0.15643404 
    1700    298.53065    12.393674    132041.41   -42265.631    3643.9896    -45909.62    0.1388634 
    1800    293.30447    28.547353    132020.22   -42225.163    3580.1967    -45805.36   0.16119042 
    1900    301.04664    35.616162    132054.96   -42156.452    3674.7008   -45831.153   0.14330306 
    2000    300.49193    54.059185    132070.35    -42116.04    3667.9299    -45783.97   0.15278069 
    2100    291.90717   -19.716551    132043.66   -42263.006    3563.1407   -45826.147    0.1584472 
    2200    293.14059   -13.506633    132022.74   -42204.821    3578.1963   -45783.017   0.16216845 
    2300    301.74475    13.691704    132042.93    -42158.71    3683.2223   -45841.932   0.16465246 
    2400    294.85818   -13.114243     132068.3   -42191.784    3599.1619   -45790.946   0.15509979 
    2500    292.96984    7.8227682     132067.4   -42216.223    3576.1121   -45792.335   0.14705609 
    2600     295.3884    -8.525871    132048.83   -42252.382    3605.6341   -45858.016   0.15804226 
    2700    296.52323    68.902955    132023.24   -42244.171    3619.4862   -45863.657   0.13444973 
    2800    292.32707   -6.4218368    132035.77   -42150.669    3568.2661   -45718.935   0.17019761 
    2900    298.62004    48.890543    132039.13   -42143.513    3645.0808   -45788.593   0.14278907 
    3000    293.85062    16.803113    132044.49   -42203.243    3586.8633   -45790.106   0.15638334 
    3100    294.76334    28.136572    132034.19   -42172.909    3598.0043   -45770.914    0.1575741 
    3200    297.18268    12.628383    132036.98    -42273.27    3627.5357   -45900.806   0.14413846 
    3300    285.92002   -11.241313    132002.39    -42364.55     3490.059   -45854.609   0.16788567 
    3400    288.36598   -2.8048294    132046.51   -42298.534    3519.9154   -45818.449   0.14305445 
    3500    287.97674    18.549565     132029.8   -42257.001    3515.1643   -45772.165   0.15821295 
    3600    293.95993    11.084749    132043.36   -42262.959    3588.1976   -45851.157   0.14715335 
    3700    287.94879   -64.216558    132020.59   -42223.278    3514.8231   -45738.101   0.15385758 
    3800    296.88189   -19.685821    132024.72   -42205.871    3623.8642   -45829.735   0.16274888 
    3900    288.49884    14.650125     132044.6   -42213.681    3521.5372   -45735.218   0.15041591 
    4000    293.85482    26.421593    132026.16   -42255.222    3586.9146   -45842.137   0.15063007 
    4100    288.44091     2.462135    132016.78     -42267.7      3520.83    -45788.53   0.15996834 
    4200    286.15286   -55.571175    132019.57   -42227.501    3492.9012   -45720.402    0.1502937 
    4300    286.97096    -11.36305    131978.76   -42353.804    3502.8872   -45856.692   0.16449989 
    4400    300.92293    72.562765    132043.51   -42253.842    3673.1909   -45927.033    0.1311429 
    4500    292.34657   0.77010804    132036.95   -42310.451    3568.5042   -45878.955    0.1545804 
    4600    292.73122     35.88055     131989.5   -42327.387    3573.1994   -45900.587   0.14728383 
    4700    292.44442    68.736139    132006.64   -42237.402    3569.6986   -45807.101   0.15092761 
    4800    291.06358   -13.943681    132034.18   -42142.007    3552.8434    -45694.85   0.16954561 
    4900     295.7368    26.562568    132070.98   -42116.187    3609.8868   -45726.074   0.15422078 
    5000    291.55618   -46.354348    132052.51   -42242.391    3558.8563   -45801.247    0.1619048 
    5100    296.18358    27.689964    132053.56   -42172.477    3615.3404   -45787.817   0.14972234 
    5200    297.82696    15.124661    132069.17   -42248.025    3635.4001   -45883.425   0.15058929 
    5300    291.41399   -13.832799    132006.45   -42339.503    3557.1207   -45896.624   0.15551257 
    5400    290.59165    34.429015    131993.48   -42302.394    3547.0829   -45849.477   0.15057885 
    5500    295.79927    14.776617    132008.06   -42276.082    3610.6493   -45886.731   0.15181264 
    5600    289.60482   -10.521064    131982.56   -42301.461    3535.0373   -45836.499   0.14967727 
    5700    288.69263   -51.858286    132008.15   -42296.063    3523.9027   -45819.965   0.15572181 
    5800    292.14459    12.479547    132010.31   -42235.943    3566.0387   -45801.982   0.16093648 
    5900    293.69966    24.780229    132002.67   -42312.014    3585.0205   -45897.035   0.14118782 
    6000     290.1253    18.271673    132018.96   -42297.133    3541.3904   -45838.523   0.16033487 
    6100    287.42008   -19.174778    131987.27   -42363.281    3508.3694    -45871.65   0.14296639 
    6200    291.17141   -6.1921795    131993.19   -42347.006    3554.1597   -45901.166   0.15861659 
    6300    291.13705    16.672338    132016.89   -42227.267    3553.7402   -45781.007   0.15294165 
    6400    289.27717   -12.759462    132025.34   -42283.513    3531.0378   -45814.551   0.15614278 
    6500    285.63511    3.5343149    132026.76   -42299.302    3486.5813   -45785.883   0.16041766 
    6600    285.27916    34.778242    132011.59   -42303.077    3482.2365   -45785.314   0.14984108 
    6700    287.40449   -2.1543599    132023.41   -42358.527    3508.1791   -45866.706   0.16118898 
    6800    294.43115    40.596653    132044.21   -42318.493    3593.9495   -45912.442   0.14551311 
    6900     292.4858   -51.128421    132046.67   -42247.455    3570.2037   -45817.659   0.15309695 
    7000    291.31076    9.8055545    132039.14   -42246.274    3555.8607   -45802.135   0.15698711 
    7100      292.023    5.4764254    132029.04   -42246.284    3564.5545   -45810.839   0.14114159 
    7200    287.06259   -36.500413    132019.36   -42360.847    3504.0058   -45864.853   0.15646634 
    7300    284.03087    8.0102464    131962.65   -42398.616    3466.9992   -45865.615    0.1524118 
    7400    287.42036   -14.849815    131992.29   -42290.419    3508.3728   -45798.792   0.15403016 
    7500    291.75646    37.435521    132021.86   -42229.029     3561.301    -45790.33   0.16353576 
    7600    288.58247   -4.4807055    132027.48   -42205.095     3522.558   -45727.653   0.15003527 
    7700    282.72655    -70.51037     132019.6   -42303.949    3451.0782   -45755.027   0.17318529 
    7800    286.53057   -6.8146818    132010.51   -42357.991    3497.5116   -45855.503   0.15039194 
    7900    287.37524   -6.5589606    132017.89   -42306.043     3507.822   -45813.865    0.1566713 
    8000    294.28382    9.4752809    132027.94   -42210.526    3592.1511   -45802.678   0.15557882 
    8100    292.07198   -2.4973975    132054.21   -42176.287    3565.1524   -45741.439   0.15213963 
    8200    295.32538    -21.31956     132038.2   -42191.642    3604.8648   -45796.506   0.15615724 
    8300    296.80833    36.750716    132040.78   -42152.885    3622.9663   -45775.851   0.15421927 
    8400    300.87138    22.631721    132066.76   -42140.847    3672.5616   -45813.408    0.1480613 
    8500    292.76717    4.7254091    132039.79    -42218.73    3573.6382   -45792.368   0.16025519 
    8600    296.67693    1.1141559    132023.05   -42232.402    3621.3623   -45853.764   0.14656086 
    8700    292.22909    3.4313178    132004.37   -42204.335    3567.0702   -45771.405   0.16328791 
    8800    296.20765   -9.1440648    131999.61    -42239.25    3615.6341   -45854.884   0.15321423 
    8900    289.29681   -3.0392211    132016.77   -42307.029    3531.2775   -45838.307   0.15355753 
    9000    294.57542    13.067885    132023.03   -42228.295    3595.7105   -45824.006   0.15463923 
    9100    291.92054     10.06423    132039.14   -42286.714    3563.3039   -45850.018    0.1474463 
    9200    290.93834    -6.945845    132046.82   -42184.867    3551.3148   -45736.182   0.16710814 
    9300    285.87846   -47.581119    132043.76   -42328.501    3489.5517   -45818.053   0.15184047 
    9400    288.36736   -38.266965     132043.1    -42294.63    3519.9323   -45814.563   0.15973626 
    9500     296.2199   -7.5867182     132038.8   -42331.007    3615.7836   -45946.791   0.14133395 
    9600    288.73813    28.988906     132048.7   -42330.968     3524.458   -45855.426   0.14451244 
    9700    294.08986    24.887393    132050.35   -42204.189    3589.7835   -45793.972   0.15230995 
    9800     291.9964   -31.075796    132060.18   -42160.339    3564.2299   -45724.569   0.15656688 
    9900    292.44147    1.2636088    132096.12   -42192.645    3569.6625   -45762.307   0.15113754 
   10000    288.85726   -31.871095    132081.81   -42241.322    3525.9122   -45767.234     0.153106 
   10100    296.38287    32.718073     132078.6     -42193.6     3617.773   -45811.373    0.1462637 
   10200    290.11133   -30.982123    132083.79   -42163.246    3541.2199   -45704.466   0.16732876 
   10300    294.45537   -64.702745    132095.22   -42163.391    3594.2451   -45757.636   0.15161736 
   10400    291.60396   -22.771504    132084.15   -42160.768    3559.4395   -45720.207   0.16509664 
   10500    293.46602   -27.573518    132070.38   -42207.444    3582.1686   -45789.613   0.14802854 
   10600    290.53915    4.0428961    132072.33   -42236.922    3546.4421   -45783.364   0.15241909 
   10700    295.16235    5.7659355    132068.14   -42271.536    3602.8748   -45874.411   0.15097781 
   10800    287.13608    -3.680955    132068.08   -42389.619    3504.9027   -45894.522    0.1396168 
   10900    286.69639   -36.875903    132034.72   -42376.731    3499.5357   -45876.267   0.15799344 
   11000    290.13405   -9.5902113    132048.68   -42385.944    3541.4973   -45927.441   0.14055761 
   11100     286.8685   -17.308363    132067.26   -42303.615    3501.6366   -45805.251   0.15498167 
   11200    284.08004   -8.9284361    132053.79   -42400.482    3467.5994   -45868.081   0.15094609 
   11300    288.26795    12.021815    132058.61    -42323.74    3518.7189   -45842.459    0.1466537 
   11400    289.36465    18.525264    132048.89   -42298.602    3532.1056   -45830.708   0.15821424 
   11500    297.41192    7.9365738    132074.86   -42201.785    3630.3339   -45832.119   0.14662374 
   11600     294.3192   -42.078022    132127.52    -42212.61    3592.5829   -45805.193   0.14688184 
   11700    296.46389    26.821178     132117.3   -42073.107    3618.7619   -45691.869   0.16243868 
   11800    293.33103   -40.002643    132135.64   -42162.339     3580.521    -45742.86   0.14535833 
   11900    292.32812    16.954225    132104.85   -42203.839     3568.279   -45772.118    0.1678568 
   12000    300.53057    18.589594    132135.73   -42152.484    3668.4015   -45820.886   0.14069826 
   12100    290.14014   -37.073093    132087.47   -42230.979    3541.5715    -45772.55   0.15715961 
   12200    293.51447    -16.12036    132105.52   -42221.037      3582.76   -45803.797   0.15031086 
   12300    293.43827    38.211959    132112.19   -42285.295    3581.8299   -45867.124   0.14228017 
   12400    292.81481    5.0826239    132100.19   -42239.241    3574.2197   -45813.461   0.15378018 
   12500    295.28869   -17.139799    132127.91   -42190.536     3604.417   -45794.953   0.14659824 
   12600    292.72032   -1.7805273    132125.36   -42180.172    3573.0663   -45753.239   0.15254693 
   12700    290.93438    74.855201    132101.39   -42205.918    3551.2665   -45757.185   0.14906164 
   12800    289.48644    14.808757     132125.5   -42240.973    3533.5923   -45774.565   0.14656998 
   12900    281.35293   -33.928049    132102.67   -42283.162    3434.3112   -45717.473   0.16025159 
   13000    289.89792    11.391692    132093.19   -42283.518     3538.615   -45822.133   0.14385479 
   13100    292.77773   -20.967344    132081.16   -42313.187    3573.7671   -45886.954   0.15023725 
   13200    287.16069    16.167361     132064.2   -42351.741    3505.2031   -45856.944   0.14574423 
   13300    286.77603   -7.1056446    132068.91   -42411.013    3500.5079   -45911.521   0.14358436 
   13400    282.53973     8.044026    132013.15    -42449.01    3448.7978   -45897.808   0.15060687 
   13500    293.76458    8.7011309    132056.43   -42334.159     3585.813   -45919.972   0.13826529 
   13600    289.98792   -43.171998    132044.51   -42306.554    3539.7135   -45846.267   0.15887983 
   13700    290.67084    33.831975    132037.44   -42313.886    3548.0496   -45861.936   0.14240583 
   13800    290.52621   -17.129671    132061.76   -42277.083    3546.2841   -45823.368   0.15828135 
   13900    290.95054    24.260417    132076.03    -42238.13    3551.4637   -45789.593   0.14870523 
   14000    297.75317    43.573975     132111.7   -42146.975    3634.4994   -45781.475   0.14592086 
   14100     294.7982   -27.722092     132088.7   -42231.752    3598.4298   -45830.181   0.14878205 
   14200    297.04598   -18.463744    132087.96   -42230.065    3625.8672   -45855.932   0.14458082 
   14300    291.66689   -1.7126026    132086.97   -42262.419    3560.2077   -45822.626   0.14818012 
   14400    288.22837   -22.675466     132062.6   -42308.293    3518.2357   -45826.529   0.15569445 
   14500    290.70738     29.75121    132032.34   -42306.655    3548.4956   -45855.151   0.13978985 
   14600    290.33025    13.556096    132047.13   -42306.621    3543.8921   -45850.513   0.15573936 
   14700    292.70167    50.574541    132063.46   -42255.868    3572.8387   -45828.707   0.13834332 
   14800    291.73246   -8.4334854    132084.99   -42225.389    3561.0081   -45786.397   0.15953006 
   14900    295.45434    2.1754947    132076.04   -42204.564    3606.4389   -45811.003   0.15053779 
   15000    288.48556   -4.1791385    132087.29   -42277.744    3521.3751    -45799.12    0.1413714 
   15100    288.35588    20.920779    132057.23   -42297.517    3519.7922   -45817.309   0.15486892 
   15200     289.4449    7.0523912    132074.63   -42254.217    3533.0852   -45787.302   0.13668821 
   15300    294.59567    26.193091    132042.73   -42299.156    3595.9576   -45895.113   0.15538117 
   15400    288.48091    23.425269    132060.62   -42342.149    3521.3183   -45863.467   0.14284281 
   15500    291.51187   -1.2361211    132074.85   -42267.186    3558.3155   -45825.502   0.14760715 
   15600    299.17613    2.8236864    132107.85   -42150.972    3651.8686    -45802.84   0.15441812 
   15700    297.49532    21.300419    132131.29   -42136.404    3631.3519   -45767.756   0.14399521 
   15800    296.83112    41.979693    132099.79   -42143.198    3623.2445   -45766.442   0.15470739 
   15900    297.09216   -4.8075794    132100.13   -42151.376    3626.4309   -45777.807   0.15245906 
   16000    292.88135   -20.610652    132095.55   -42208.812     3575.032   -45783.844   0.14612075 
   16100    290.02132     -28.7708    132069.54   -42276.584    3540.1212   -45816.705   0.16057767 
   16200    295.42846   -4.2538764    132097.69   -42244.411     3606.123   -45850.534   0.13730235 
   16300     290.0718   -18.666612    132069.95   -42251.162    3540.7374   -45791.899   0.16152404 
   16400    288.57989    -21.00548    132085.21    -42279.36    3522.5265   -45801.887   0.14417233 
   16500    295.44745    3.3558609    132082.75   -42194.878    3606.3548   -45801.233   0.15323349 
   16600    293.88611     42.71429    132100.85   -42163.373    3587.2964    -45750.67   0.14737481 
   16700    296.19249    27.713293    132093.75    -42199.71    3615.4491   -45815.159   0.14160821 
   16800    287.82407    12.251287    132071.59   -42236.017    3513.3007   -45749.317   0.15531734 
   16900    292.56372   -6.8698187    132061.89   -42257.286    3571.1549   -45828.441   0.14237473 
   17000    292.28338    15.913351    132051.57   -42310.226    3567.7329   -45877.959   0.15294315 
   17100    294.31723    19.147159    132065.17   -42245.363    3592.5588   -45837.922   0.14525101 
   17200    290.62023   -16.862803    132035.94   -42301.316    3547.4318   -45848.748   0.15036228 
   17300    286.29674   -5.5150144    132043.16    -42373.57    3494.6575   -45868.228   0.15255982 
   17400    287.82015    11.310608    132016.31   -42393.981    3513.2529   -45907.234   0.14337659 
   17500    288.74199   -10.013555    132061.31   -42280.205    3524.5052   -45804.711   0.15151648 
   17600     289.5968    -34.68681    132076.46   -42295.708    3534.9394   -45830.647   0.14785853 
   17700    287.72561   -40.066949    132068.83   -42326.594    3512.0988   -45838.693   0.14420317 
   17800    282.66316   -7.4986147    132053.66    -42317.69    3450.3045   -45767.995    0.1567551 
   17900     294.2648    38.389366    132093.59   -42243.204    3591.9188   -45835.122   0.13267284 
   18000    296.98761   -8.2268399    132089.92   -42204.979    3625.1546   -45830.133   0.15979104 
   18100    298.13459   -22.799206    132112.58    -42164.83    3639.1552   -45803.985   0.14014561 
   18200    293.11559    28.669904    132090.21   -42269.782    3577.8911   -45847.673    0.1481221 
   18300    297.53506    21.085764    132100.68   -42207.225    3631.8371   -45839.063   0.14521781 
   18400    292.18137   -14.562299    132107.94    -42321.21    3566.4877   -45887.697   0.13919839 
   18500    293.31041   -14.967186    132090.29   -42281.438    3580.2692   -45861.707   0.15494289 
   18600     297.4967    29.124972    132111.88   -42205.854    3631.3688   -45837.223   0.13975281 
   18700    293.93588   -50.657422     132125.2   -42240.447    3587.9039   -45828.351   0.14927554 
   18800    295.65881      9.20101     132102.3   -42270.541    3608.9347   -45879.476   0.14657692 
   18900    291.10025   -2.1566747    132109.36   -42242.342    3553.2911   -45795.633   0.14148381 
   19000     291.2101   -22.653468    132132.97   -42221.512    3554.6319   -45776.144   0.15654115 
   19100    292.45029   -9.7712448    132135.93     -42196.2    3569.7702    -45765.97   0.14341396 
   19200    291.31916    28.600723    132138.74   -42251.605    3555.9632   -45807.568   0.14796062 
   19300     300.4766    58.974825    132143.06    -42098.93    3667.7428   -45766.672   0.14742649 
   19400    297.74238   -12.646678    132138.55   -42185.486    3634.3676   -45819.854    0.1381389 
   19500    296.36464     26.91217    132132.76   -42147.356    3617.5505   -45764.906   0.15644401 
   19600     296.5379    41.021393    132138.05   -42178.937    3619.6653   -45798.602   0.13592353 
   19700    295.86149     3.275167    132112.88   -42187.521    3611.4088    -45798.93   0.15741927 
   19800      293.736    8.2510136    132112.25   -42175.271    3585.4642   -45760.735    0.1442274 
   19900    295.81123   -10.152086     132111.8   -42204.887    3610.7952   -45815.682   0.15080305 
   20000    293.42065   -9.3239586    132115.57   -42245.735    3581.6148    -45827.35   0.15052172 
   20100    293.40594    2.5071281    132080.21   -42285.383    3581.4352   -45866.818   0.14375052 
   20200      289.038    -8.396455    132048.03   -42303.927    3528.1185   -45832.045    0.1489851 
   20300     289.0582    3.7844954    132071.65   -42227.754     3528.365   -45756.119   0.14780663 
   20400    291.04766    22.797781    132085.44   -42245.452    3552.6491   -45798.101   0.14662806 
   20500    287.57525    12.533195    132090.39   -42303.848    3510.2635   -45814.112   0.14900326 
   20600    290.37154    62.718925    132054.22   -42325.254    3544.3961    -45869.65   0.13639391 
   20700    290.07851    27.053882    132052.85   -42287.172    3540.8193   -45827.991   0.14918316 
   20800    295.36251    2.1428259    132066.98   -42205.757    3605.3181   -45811.075   0.14218091 
   20900    293.32025   -52.190924    132074.47   -42222.292    3580.3894   -45802.681   0.15374706 
   21000    293.92406    23.532163    132059.22   -42259.643    3587.7597   -45847.403   0.14974754 
   21100    291.50217    0.7346892    132061.91   -42213.296     3558.197   -45771.493   0.14547229 
   21200    293.76779   -12.353692    132050.27   -42198.146    3585.8521   -45783.998   0.15922565 
   21300    294.55693    39.279509    132061.85   -42159.803    3595.4847   -45755.288   0.13956598 
   21400    294.05291   -7.3724047    132037.57   -42207.752    3589.3325   -45797.085   0.16185654 
   21500    293.78693   -43.834486    132075.64   -42159.195    3586.0859   -45745.281   0.15042337 
   21600    293.17958    8.9117983    132062.43   -42135.754    3578.6723   -45714.426   0.15396518 
   21700    292.62118   -30.891245    132044.89   -42239.949    3571.8562   -45811.805   0.15309394 
   21800    292.79013    23.075004    132020.88   -42255.059    3573.9184   -45828.978   0.14604856 
   21900    290.17838   -2.9350035    132008.55   -42251.783    3542.0383   -45793.822   0.15408884 
   22000    294.64708    19.306817     132020.9   -42325.072    3596.5852   -45921.657   0.14809349 
   22100    288.58301   -14.123014    132039.24   -42293.146    3522.5647   -45815.711   0.14566901 
   22200    284.66351  -0.97550075    132011.63   -42418.178    3474.7216     -45892.9   0.15033267 
   22300    293.61178    44.077503    132027.84   -42329.427    3583.9479   -45913.375    0.1354967 
   22400    295.51337   -18.071634    132029.46   -42220.407    3607.1595   -45827.567   0.16074014 
   22500     290.6552   -1.1647766    132038.17   -42225.758    3547.8586   -45773.617   0.15195005 
   22600    292.54622   -15.263562    132055.13   -42249.271    3570.9412   -45820.212   0.14867852 
   22700    289.85318    4.3148733    132044.55   -42300.237    3538.0688   -45838.305   0.15004299 
   22800    294.78906    4.5814439    132048.83    -42232.83    3598.3182   -45831.148   0.14339663 
   22900    291.37583   -21.144585    132024.06   -42261.771     3556.655   -45818.426   0.15977024 
   23000    295.70536     34.46434    132050.37   -42328.964     3609.503   -45938.467   0.13796606 
   23100    290.32313    4.2184908    132059.53   -42240.198    3543.8052   -45784.004   0.15090188 
   23200    287.59313   -16.657837    132059.93   -42231.872    3510.4817   -45742.353    0.1501085 
   23300    294.02421    32.577053    132067.83   -42234.296    3588.9821   -45823.278   0.14786418 
   23400    294.23508   -1.0247491    132052.46   -42213.809    3591.5561   -45805.365   0.15215414 
   23500    289.77955    -12.45391    132058.15   -42198.048      3537.17   -45735.218   0.15356787 
   23600    294.66531   -33.478602    132088.63   -42147.491    3596.8077   -45744.299   0.15281959 
   23700    298.14093    23.662218    132069.18   -42170.814    3639.2326   -45810.047   0.15022879 
   23800    294.32682   -11.808112    132073.65   -42175.234     3592.676    -45767.91   0.14693187 
   23900    288.41905   -10.035988    132069.07   -42274.043    3520.5633   -45794.606   0.15568103 
   24000     297.8161    23.458315    132073.49   -42218.295    3635.2676   -45853.563   0.14123063 
   24100    296.08399    1.0535315    132084.37   -42187.331    3614.1247   -45801.456   0.15340835 
   24200    295.36803   -5.2333167    132099.32   -42248.439    3605.3854   -45853.825    0.1402806 
   24300    289.85569   -24.450253    132068.25   -42295.376    3538.0994   -45833.476   0.15086652 
   24400    287.35707   -29.229646    132060.41   -42341.464    3507.6003   -45849.064   0.15361635 
   24500    289.83409    6.1946631     132057.7   -42298.722    3537.8358   -45836.558   0.14527711 
   24600    288.53965   -11.088619    132057.58   -42349.963    3522.0353   -45871.999   0.14943944 
   24700    287.43114   -24.229426    132056.35   -42353.302    3508.5043   -45861.806   0.14160894 
   24800    287.36398    9.5697131    132051.16   -42320.562    3507.6847   -45828.247   0.15125453 
   24900    287.80783   -31.689566    132037.14   -42336.379    3513.1025   -45849.481   0.15012974 
   25000    288.63073   -10.868752    132046.47   -42295.861    3523.1471   -45819.008    0.1448833 
   25100    285.13625   -36.468074    132033.13   -42350.435     3480.492   -45830.927   0.15118743 
   25200     282.4114   -9.4448466    132028.54   -42454.332    3447.2314   -45901.563   0.14175978 
   25300    285.17256    21.625024    132040.63   -42399.709    3480.9352   -45880.644    0.1421382 
   25400    289.07452   -1.0797245    132063.53   -42338.616    3528.5642   -45867.181   0.15252536 
   25500    289.79665    4.0788467     132064.6   -42291.467    3537.3787   -45828.845   0.14047643 
   25600     293.8785    -2.231885    132079.48   -42142.288    3587.2035   -45729.492   0.16281269 
   25700    293.44504    0.8546059    132080.22    -42259.45    3581.9126   -45841.363   0.13851644 
   25800    295.93769    -18.32445    132089.57   -42150.777    3612.3389   -45763.116   0.15900126 
   25900    294.70825   -24.382915     132088.2   -42147.584    3597.3318   -45744.916   0.15196157 
   26000    297.90449   -41.093322    132078.98   -42181.141    3636.3465   -45817.487   0.15110594 
   26100    290.36534   -3.2529037    132095.75   -42205.199    3544.3204   -45749.519   0.15148945 
   26200    292.67633   -15.703059    132083.07    -42245.04    3572.5294    -45817.57   0.14495013 
   26300     287.0104   -31.363737    132056.42   -42297.999    3503.3686   -45801.367   0.15175749 
   26400      291.758    3.9782178    132064.09   -42317.287    3561.3199   -45878.607   0.15130959 
   26500    291.87791    -12.89473    132079.99   -42220.734    3562.7835   -45783.517   0.14973111 
   26600    298.15546    23.678268    132082.69   -42182.993      3639.41   -45822.403   0.15220051 
   26700    293.24939    24.368653    132085.76   -42145.848    3579.5243   -45725.373    0.1491578 
   26800    294.19926    32.728172    132108.25   -42215.231    3591.1189    -45806.35   0.14632522 
   26900      291.926     15.58693    132079.15   -42175.656    3563.3705   -45739.026    0.1546979 
   27000     289.6201   -30.792289    132106.84   -42184.662    3535.2237   -45719.885   0.15153426 
   27100     295.1643   -2.7011759    132080.51   -42164.653    3602.8985   -45767.552    0.1585558 
   27200    294.14386   -7.5867575     132075.1   -42204.912    3590.4427   -45795.355   0.14433363 
   27300    298.65417   -35.673707     132072.6   -42100.958    3645.4974   -45746.455   0.15999699 
   27400    297.92228   -38.516966    132068.52   -42134.292    3636.5636   -45770.856   0.15122285 
   27500    295.31109   -31.584406    132045.47   -42253.032    3604.6903   -45857.722   0.15468829 
   27600    288.04996   -21.553215    132008.55   -42357.319    3516.0579   -45873.377   0.14687733 
   27700    292.86326    21.970056    132024.67   -42265.834    3574.8112   -45840.645    0.1506874 
   27800    301.26606    16.262008    132045.35   -42183.614    3677.3792   -45860.993   0.14899917 
   27900     288.1145   -6.3692101     132012.5   -42270.806    3516.8458   -45787.652   0.15483505 
   28000    290.98719   -20.065689    132031.36   -42337.447     3551.911   -45889.358   0.14894967 
   28100     291.2314   -10.552734    132021.74   -42317.003     3554.892   -45871.895   0.15256071 
   28200     294.9123    9.1574827    132043.42   -42290.804    3599.8226   -45890.626   0.14258946 
   28300    289.99853   -1.1693751    132036.82   -42282.985     3539.843   -45822.828   0.15246795 
   28400    289.76212   -16.954336    132047.71   -42269.326    3536.9573   -45806.283   0.14834419 
   28500    291.24645    -19.08144    132053.57   -42283.043    3555.0756   -45838.119    0.1535412 
   28600    288.18694   -14.707225    132029.36   -42295.708    3517.7301   -45813.438   0.15148441 
   28700    287.20907   -16.995404    132047.16    -42288.46    3505.7938   -45794.253   0.14768827 
   28800    289.51188   -21.380002    132028.65    -42311.88    3533.9027   -45845.783   0.15501638 
   28900    293.88375     20.59037    132042.01    -42283.99    3587.2676   -45871.258   0.14511835 
   29000    293.61191    9.8398975     132024.3   -42252.584    3583.9494   -45836.534    0.1567797 
   29100    293.14919   -2.7733241    132029.75   -42212.476    3578.3013   -45790.777    0.1517605 
   29200     297.2885    55.780747    132056.73   -42124.261    3628.8275   -45753.088   0.15080318 
   29300    292.00457   -20.299814    132058.31   -42155.943    3564.3295   -45720.273   0.15714303 
   29400    287.93292   -38.014501    132058.56   -42203.454    3514.6293   -45718.083   0.15620454 
   29500    287.70367   -4.2382843    132045.31   -42187.923    3511.8311   -45699.754   0.15544707 
   29600    294.23953    7.5738592    132049.97   -42180.567    3591.6104   -45772.178   0.15685645 
   29700    294.50141   -20.200476    132056.22   -42248.721     3594.807   -45843.528   0.14188544 
   29800    286.29277    11.606361    131996.51   -42341.892     3494.609   -45836.501   0.15633713 
   29900    287.57089    5.7152512    132004.91    -42288.01    3510.2103    -45798.22   0.14362053 
   30000    291.13883    9.9130756     132001.3   -42344.559    3553.7621   -45898.321   0.15325738 
   30100      290.263   -4.5534528    132015.45   -42241.024    3543.0713   -45784.095    0.1518882 
   30200    288.03291     5.798307    132011.19   -42289.476    3515.8498   -45805.326   0.15114431 
   30300    291.67173    30.479183    131994.47   -42282.905    3560.2668   -45843.171   0.15350348 
   30400    289.56187    30.426466    132036.03   -42261.001     3534.513   -45795.514   0.14687423 
   30500    285.93025   -16.897319     131995.5   -42376.119    3490.1839   -45866.302   0.15271443 
   30600    291.22627     5.419658    131999.95   -42312.264    3554.8293   -45867.093   0.15056638 
   30700    286.48323   -4.0303385    132013.37   -42343.898    3496.9338   -45840.831   0.14665056 
   30800    288.84769   -2.5067663    132026.76    -42289.46    3525.7953   -45815.255   0.15285154 
   30900    290.42774   -38.886544    132038.77   -42220.231    3545.0822   -45765.313   0.15118353 
   31000    294.77208    24.392827    132039.64   -42249.222     3598.111   -45847.333   0.14790841 
   31100    296.15698    19.442201    132035.68   -42256.834    3615.0157    -45871.85     0.150325 
   31200    293.94161    14.068908    132051.92   -42251.409    3587.9739   -45839.382    0.1442426 
   31300    295.00105    13.840011    132026.32   -42142.233    3600.9059   -45743.139   0.15933744 
   31400    286.16228   -22.161257    132054.11   -42229.289    3493.0162   -45722.305   0.14598866 
   31500    294.38783  -0.30177195    132035.46   -42187.159    3593.4207    -45780.58    0.1569082 
   31600    297.18878    10.137173    132046.47   -42221.476    3627.6102   -45849.086    0.1444048 
   31700    289.81835   -18.504493    132059.67   -42218.984    3537.6437   -45756.628    0.1562916 
   31800    292.17255   -51.590123    132055.89   -42196.515    3566.3801   -45762.896   0.15385979 
   31900    293.69981   -15.895359    132039.59    -42258.79    3585.0223   -45843.812   0.14968586 
   32000    294.53053    13.569599     132040.8   -42242.934    3595.1625   -45838.096   0.15101429 
   32100    293.23244   -32.539039    132073.66    -42278.15    3579.3175   -45857.468   0.14656487 
   32200    290.65198   -36.285876    132038.81   -42382.778    3547.8194   -45930.597   0.14546552 
   32300    290.74598    22.872152    132026.92   -42341.855    3548.9667   -45890.822   0.14545862 
   32400    288.49087    5.4609495    132024.64   -42356.769    3521.4398   -45878.209   0.14289228 
   32500    293.89278    2.6165864    132037.16   -42260.642    3587.3779   -45848.019   0.15311281 
   32600    295.28058   -57.873679    132052.98   -42208.772     3604.318    -45813.09   0.14854231 
   32700    290.22399     12.73538    132045.86   -42303.817    3542.5951   -45846.412   0.14982503 
   32800    292.24293     46.37365    132052.75   -42174.858    3567.2391   -45742.097   0.14987769 
   32900    290.86479   -11.814625    132065.96    -42229.89     3550.417   -45780.307   0.14914695 
   33000    285.28101   -23.460254     132047.7   -42214.478     3482.259   -45696.737   0.15981117 
   33100    294.89114   -7.7391416    132059.65   -42235.296    3599.5643    -45834.86   0.14268888 
   33200     289.6032    14.121473    132035.38   -42247.458    3535.0174   -45782.476   0.15784329 
   33300    296.13289    13.139375    132055.46   -42226.849    3614.7216    -45841.57   0.13981748 
   33400    293.64974    24.988658    132049.01   -42263.111    3584.4112   -45847.523   0.14825554 
   33500     288.6285    23.631067    132039.06   -42313.542    3523.1199   -45836.662   0.14831682 
   33600    290.13755   -21.751176     132040.5   -42295.031      3541.54   -45836.572   0.14431473 
   33700    293.34407   -20.474656    132039.39   -42253.894    3580.6801   -45834.575   0.15133494 
   33800    297.07486    27.331802    132077.03   -42110.776    3626.2196   -45736.996    0.1467747 
   33900    294.80995    23.531777    132072.11   -42097.829    3598.5732   -45696.402   0.15049208 
   34000    295.15081   -1.1935059    132039.72   -42260.621    3602.7339   -45863.355   0.15202972 
   34100    294.79037   -12.037157    132040.96   -42251.431    3598.3342   -45849.765   0.14278422 
   34200    286.91378    24.002204    132010.97   -42285.257    3502.1893   -45787.446   0.15691963 
   34300    287.93704   0.53056929    132020.86   -42331.671    3514.6797   -45846.351   0.14199011 
   34400    292.98837    5.4647511    132027.11   -42303.101    3576.3383   -45879.439   0.14802528 
   34500    294.47586   -19.512731    132055.28   -42172.745    3594.4952    -45767.24   0.15133081 
   34600    299.10332   -3.0414398    132113.82   -42142.217    3650.9799   -45793.196   0.14441733 
   34700    291.40555   -28.855852    132043.61   -42227.441    3557.0177   -45784.459   0.15551268 
   34800    290.70757    42.358852    132044.51   -42283.294    3548.4978   -45831.792   0.13703567 
   34900     298.1922    30.394304       132046   -42241.328    3639.8584   -45881.186    0.1475934 
   35000    293.09062   -5.0316067    132057.62    -42261.26    3577.5864   -45838.847   0.14388668 
   35100    293.24921    11.129636    132058.22   -42225.377    3579.5222   -45804.899   0.14770132 
   35200    290.90468   -31.044663    132063.88   -42181.583    3550.9038   -45732.487   0.15428657 
   35300    292.25552   -22.185587    132072.65   -42215.986    3567.3928   -45783.379   0.14660964 
   35400    291.80412   -24.397595    132054.05   -42260.598    3561.8828   -45822.481   0.15152907 
   35500    289.85001    20.734429     132043.7   -42272.641    3538.0302   -45810.671   0.14461326 
   35600    295.68388    6.2766722    132065.28   -42254.029    3609.2408    -45863.27   0.14271363 
   35700    293.34654    2.4006904    132074.12   -42204.449    3580.7103   -45785.159   0.15484945 
   35800    299.87123    3.5795743    132115.67   -42074.748    3660.3533   -45735.101   0.14466535 
   35900    297.66986   -2.9266165    132095.66    -42173.55    3633.4824   -45807.032   0.15557827 
   36000    291.05872     25.86742    132084.76   -42243.217    3552.7842   -45796.001   0.13806991 
   36100     294.9821    18.413626    132075.69    -42288.14    3600.6745   -45888.814   0.14856592 
   36200    289.57956    31.178956     132057.5   -42267.724    3534.7289   -45802.453   0.14561278 
   36300     290.0852   -8.8462774     132053.1   -42270.021    3540.9009   -45810.922   0.14317361 
   36400    290.66418   -4.5412718    132058.71   -42285.793    3547.9682   -45833.761   0.15393763 
   36500    292.33842    24.987753    132068.99   -42291.025    3568.4048    -45859.43   0.13540012 
   36600    293.94819    43.998934    132077.37   -42250.343    3588.0543   -45838.397   0.15086158 
   36700    289.15874    1.9050487    132084.58   -42304.504    3529.5922   -45834.097   0.14297462 
   36800    283.32051   -22.797743    132056.63   -42367.085    3458.3283   -45825.413   0.14382763 
   36900    290.07712   -2.4050517    132037.47   -42309.785    3540.8023   -45850.588   0.15170154 
   37000    287.94743   -17.810416    132050.26    -42293.47    3514.8065   -45808.276   0.14151689 
   37100    291.03401    28.838184    132058.43   -42323.719    3552.4826   -45876.201   0.14500365 
   37200    292.18757   -17.641327    132049.48   -42332.349    3566.5633   -45898.912   0.14536288 
   37300     288.4778   -7.4225159    132062.93    -42341.23    3521.2804   -45862.511   0.14002935 
   37400    289.75189    9.7754834    132028.14   -42363.628    3536.8324   -45900.461    0.1543298 
   37500    291.92067    14.753838    132030.78   -42313.105    3563.3055    -45876.41   0.13622811 
   37600    288.92565   -22.578669    132006.75   -42341.957     3526.747   -45868.704    0.1531194 
   37700    284.85226   -12.950124    131984.83   -42446.044    3477.0255   -45923.069   0.14072504 
   37800    285.74322   -13.259701    131973.21   -42478.061     3487.901   -45965.962   0.14205669 
   37900    287.39544   -13.869307    131993.42   -42356.874    3508.0686   -45864.943   0.15109791 
   38000    288.91935 -0.0094955989    132041.01   -42274.291    3526.6701   -45800.961   0.14534226 
   38100    289.97165   -2.3574347    132030.68   -42266.317    3539.5149   -45805.831    0.1523767 
   38200     294.4265    46.214048     132053.4   -42217.256    3593.8926   -45811.148   0.14275475 
   38300      292.351     15.78967    132039.85    -42246.44    3568.5582   -45814.999   0.14696525 
   38400    288.92776    10.175977    132059.87   -42214.628    3526.7728   -45741.401   0.15530931 
   38500    292.57608   -8.9015938    132037.03   -42240.515    3571.3057   -45811.821   0.14804321 
   38600    290.30435   -4.9884054    132028.65   -42227.864    3543.5759    -45771.44   0.15359159 
   38700    294.45573    -45.31619    132064.84   -42206.855    3594.2495   -45801.104   0.14821547 
   38800    288.37613   -25.012561    132044.52   -42253.938    3520.0394   -45773.977   0.15000072 
   38900    299.42105   -10.543582    132069.85   -42150.716    3654.8582   -45805.574    0.1533475 
   39000    293.90597  -0.12427762     132097.5    -42204.59    3587.5389   -45792.129   0.14283168 
   39100    297.68442    32.002305    132070.77   -42235.306    3633.6602   -45868.966   0.14800582 
   39200    285.34869    9.5704545    132060.31   -42346.249    3483.0851   -45829.334   0.13637758 
   39300    285.42372   -43.339687    132045.39   -42391.184     3484.001   -45875.185   0.15000302 
   39400    293.38536    -16.01078    132050.64   -42224.687     3581.184   -45805.871   0.14744851 
   39500    287.01729   -55.479464    132065.57   -42255.141    3503.4528   -45758.594   0.15440303 
   39600    295.16997   -21.253496    132097.16    -42227.99    3602.9678   -45830.958   0.14668528 
   39700    293.67428   -13.068181     132081.7   -42229.343    3584.7108   -45814.054   0.14342118 
   39800    296.28971   -21.039142    132063.07   -42267.621    3616.6358   -45884.257   0.14742492 
   39900    293.26938   -3.5608184    132070.29   -42210.106    3579.7684   -45789.874   0.14921658 
   40000    295.14321   -6.0485916     132087.4   -42257.843    3602.6411   -45860.484   0.14639947 
   40100    291.22601   -7.8386213    132066.46   -42282.012    3554.8262   -45836.838   0.14844221 
   40200    292.96679    4.7646571    132087.21   -42256.495    3576.0749    -45832.57   0.14094681 
   40300    291.32599   -26.276174    132086.73   -42322.798    3556.0465   -45878.845   0.14871933 
   40400    288.18665    27.185699    132075.53   -42355.536    3517.7265   -45873.262   0.13924823 
   40500    291.20141   -8.0364336    132090.33   -42254.387    3554.5259   -45808.913   0.14681762 
   40600    289.54705   -22.213501    132111.82   -42264.731    3534.3321   -45799.063   0.14749264 
   40700    288.04848    24.096656    132106.52    -42329.76    3516.0399     -45845.8    0.1354758 
   40800    293.93222    12.632181    132120.47   -42240.847    3587.8593   -45828.707   0.14891772 
   40900    291.88737   -20.805731    132117.81   -42309.672     3562.899   -45872.571   0.13876549 
   41000     293.2011   -23.428084    132110.51   -42308.489     3578.935   -45887.424   0.14827471 
   41100    293.03356     5.853151    132085.99   -42309.964    3576.8898   -45886.854   0.14089585 
   41200    300.76106    13.237499    132115.02   -42212.447    3671.2149   -45883.662    0.1422844 
   41300    291.79925   -3.2322877    132108.81   -42261.008    3561.8234   -45822.831   0.14519943 
   41400    297.66177   -57.626989    132090.81    -42240.83    3633.3837   -45874.214   0.14983925 
   41500    299.88632    21.358966    132097.49   -42213.051    3660.5375   -45873.589   0.14252091 
   41600    297.20232    15.190799    132082.25   -42225.719    3627.7755   -45853.495   0.14655047 
   41700    296.13422    13.879587    132083.83   -42332.092    3614.7379    -45946.83   0.13380704 
   41800    292.78604    21.457908    132074.72   -42257.574    3573.8686   -45831.442   0.14904863 
   41900     293.4693    31.578953    132045.66   -42327.696    3582.2086   -45909.904   0.13878968 
   42000    287.48225    25.044982    132048.97   -42300.745    3509.1283   -45809.873   0.15139927 
   42100     283.7477   -14.555033    132024.41   -42369.326    3463.5427   -45832.869   0.14755271 
   42200    294.91626    12.771023     132048.2     -42318.3    3599.8708   -45918.171    0.1446868 
   42300    290.51417     13.98483    132035.54   -42294.693    3546.1371    -45840.83   0.14958736 
   42400    293.71935    24.787253    132052.89    -42304.81    3585.2609   -45890.071   0.14227332 
   42500    285.68704      8.58642    132050.21   -42272.344    3487.2152   -45759.559   0.15275918 
   42600    289.28578   -24.462974    132056.06   -42290.614    3531.1429   -45821.757   0.14560925 
   42700    288.26918   -27.795287    132064.89    -42379.35    3518.7339   -45898.084   0.14838294 
   42800    293.62815    10.147603    132055.81   -42296.467    3584.1476   -45880.615   0.14243279 
   42900     292.0674    7.6502465    132047.24   -42327.098    3565.0965   -45892.195   0.14430273 
   43000    288.31062  -0.25755637    132057.89   -42308.253    3519.2397   -45827.493   0.14478888 
   43100    291.41557   -33.413004    132082.92   -42259.981      3557.14   -45817.121   0.14950889 
   43200    293.19698    14.661926    132078.61   -42277.324    3578.8846   -45856.209   0.14504181 
   43300    289.01113    -12.95702       132075   -42320.645    3527.7904   -45848.436   0.14519962 
   43400    293.06328     -27.9941    132089.39   -42251.497    3577.2527    -45828.75   0.14203106 
   43500    291.11372   -29.977488     132067.4   -42258.112    3553.4555   -45811.568   0.15665274 
   43600    289.51477    9.7799124    132058.81   -42280.854     3533.938   -45814.792    0.1410539 
   43700    290.53491    4.9401878    132048.97   -42361.013    3546.3903   -45907.403   0.14712254 
   43800    284.77172   -22.832044    132062.04    -42382.51    3476.0424   -45858.553   0.14008991 
   43900    290.30553    21.024537    132059.91   -42298.589    3543.5905    -45842.18   0.14760721 
   44000    285.76237   -11.904907    132027.24    -42391.55    3488.1347   -45879.685    0.1493757 
   44100    285.48285    -27.31657    132057.79   -42395.911    3484.7228   -45880.634   0.14086629 
   44200    289.00005   0.12389135     132055.2   -42309.978    3527.6552   -45837.633   0.14969429 
   44300    291.09069   -15.614121    132057.49   -42317.943    3553.1743   -45871.117   0.14280024 
   44400    288.45982    28.781054       132044   -42350.597    3521.0609   -45871.658   0.14328266 
   44500     283.1417   -39.971995    132085.52   -42342.427    3456.1457   -45798.573   0.14861112 
   44600    288.32145    2.2861321    132061.47   -42320.687    3519.3719   -45840.059   0.14632736 
   44700     289.0721     44.38308    132055.92    -42303.92    3528.5346   -45832.454   0.14592783 
   44800    290.36188    27.273037    132053.01    -42300.96    3544.2783   -45845.239   0.14477587 
   44900    292.67572    5.0469152    132087.41   -42279.582    3572.5219   -45852.104   0.14115955 
   45000    289.05905   -48.296365    132084.52   -42287.167    3528.3754   -45815.542   0.15567495 
   45100    294.83843    4.9500379    132105.54   -42190.941    3598.9209   -45789.862   0.14074969 
   45200    296.64021      29.9533    132096.18   -42232.563    3620.9141   -45853.477   0.14753993 
   45300    291.39134   -26.780839    132092.34   -42272.544    3556.8442   -45829.389   0.13950519 
   45400    299.99811    41.140184    132069.95   -42287.761    3661.9021   -45949.663   0.14180648 
   45500    288.22851   -4.4130089    132079.01   -42246.879    3518.2374   -45765.117   0.14738832 
   45600    296.38961   -8.5640897    132098.78   -42223.052    3617.8552   -45840.907   0.14519602 
   45700    296.36823    40.105584    132087.97   -42197.578    3617.5942   -45815.172   0.14277112 
   45800    290.54131   -8.0936758    132092.47   -42248.734    3546.4684   -45795.202   0.14528434 
   45900     294.2986      -8.6882     132075.7   -42171.664    3592.3315   -45763.995   0.14945029 
   46000    295.11359    11.061392    132064.92   -42203.429    3602.2796   -45805.709   0.15335708 
   46100    299.76686    78.119264    132087.56    -42122.64    3659.0793   -45781.719    0.1457585 
   46200    291.63106   -23.210191    132096.95   -42185.402    3559.7704   -45745.173   0.15007515 
   46300    296.41555    24.274505    132093.89   -42148.121    3618.1718   -45766.292   0.14456874 
   46400    299.38475    61.330254    132106.92   -42215.175    3654.4152    -45869.59   0.14155749 
   46500    293.26999    35.696697    132090.17   -42140.401    3579.7758   -45720.177   0.14998775 
   46600    292.62279   -10.527002    132057.25   -42248.178    3571.8758   -45820.054   0.14776298 
   46700    292.39699    5.3340757    132084.03   -42171.063    3569.1196   -45740.183   0.15350283 
   46800    295.82439    23.763627     132093.9   -42161.931    3610.9559   -45772.887   0.13782507 
   46900    301.75047    31.750853    132058.87   -42196.356    3683.2921   -45879.648   0.14689169 
   47000    291.33161   -12.083922    132055.51   -42256.035    3556.1151    -45812.15   0.14352235 
   47100    290.21465   -37.971192    132053.06   -42271.174     3542.481   -45813.655   0.15279679 
   47200    295.76669    15.558172    132063.62   -42277.138    3610.2516   -45887.389   0.14031829 
   47300    288.34969   -16.886681    132063.96   -42345.278    3519.7166   -45864.995   0.14275966 
   47400    290.26384   -22.885141    132038.17   -42293.291    3543.0815   -45836.372    0.1441168 
   47500    288.00078    23.561294    132037.46   -42318.922    3515.4576    -45834.38   0.15047667 
   47600    290.86175   -8.0944417    132038.68   -42289.027    3550.3799   -45839.406   0.14588831 
   47700    293.40556   -1.3913103    132056.96   -42239.705    3581.4306   -45821.136   0.14927709 
   47800    292.67295   -25.051504    132064.37    -42285.03    3572.4881   -45857.518   0.13772385 
   47900    288.63783   -35.276278     132032.9   -42329.639    3523.2338   -45852.873   0.14767995 
   48000    292.72469     45.40345     132033.4   -42283.506    3573.1197   -45856.626   0.14363847 
   48100    292.45726    39.476353    132017.56   -42335.949    3569.8553   -45905.804    0.1424965 
   48200    290.74592    12.389422     132035.9    -42317.02     3548.966   -45865.986   0.14561545 
   48300    291.90663   -22.979762    132060.85   -42294.467    3563.1341   -45857.601   0.13759497 
   48400    294.28334   -23.358211     132050.3    -42297.75    3592.1452   -45889.895   0.14666659 
   48500    284.89735    5.7408506    132045.06   -42379.591    3477.5759   -45857.167   0.14287972 
   48600    289.43996   -13.848223    132019.71   -42375.241    3533.0248   -45908.266   0.14466397 
   48700    287.34916   -35.902118    132032.82    -42276.88    3507.5038   -45784.384   0.14817209 
   48800    294.14994    31.672066    132044.22   -42282.908    3590.5169   -45873.425   0.13670369 
   48900    293.46093    10.999499     132031.6   -42262.472    3582.1065   -45844.579   0.14223923 
   49000    286.73898    29.124584    132016.68   -42311.114    3500.0556    -45811.17   0.14915106 
   49100    291.93455    14.572276     132045.8   -42250.024    3563.4749   -45813.499   0.14292055 
   49200    288.34396   -25.896474    132048.51   -42252.477    3519.6467   -45772.124   0.15368785 
   49300    289.87828    5.2912929    132038.86   -42310.404    3538.3752   -45848.779   0.13613272 
   49400    289.70596    1.9586778    132028.05   -42350.433    3536.2718   -45886.705   0.14727822 
   49500    291.54918   -4.9334681    132024.81   -42277.238    3558.7709   -45836.009   0.14379152 
   49600     293.3991   -12.955104    132024.34   -42303.794    3581.3518   -45885.146   0.14597139 
   49700    290.07268   -7.0140574    132031.04   -42320.885    3540.7482   -45861.633   0.14212582 
   49800    294.90417    8.5614114    132042.41   -42299.717    3599.7233   -45899.441   0.14188225 
   49900    289.89478    23.586353    132046.35   -42259.479    3538.5767   -45798.055   0.14437784 
   50000     289.2946   -19.653116    132059.13   -42269.679    3531.2505    -45800.93    0.1477675 
   50100    297.66308    27.749628    132068.78   -42147.209    3633.3997   -45780.608   0.14608705 
   50200    292.17821    30.119314    132070.06    -42230.31    3566.4491   -45796.759   0.14549208 
   50300    289.67315    3.7898777    132065.82   -42238.575    3535.8713   -45774.447   0.14699296 
   50400    293.80052   -12.249537    132077.94   -42263.944    3586.2518   -45850.196   0.14264427 
   50500    293.63163    11.043231    132087.52    -42204.29    3584.1902    -45788.48    0.1488564 
   50600    297.94669    10.101301    132131.42   -42105.796    3636.8615   -45742.657    0.1502304 
   50700    294.25759   -12.637988    132069.76   -42335.315    3591.8309   -45927.146   0.14406406 
   50800     287.7859   -17.491545    132057.43   -42341.959    3512.8348   -45854.794   0.13976056 
   50900    290.13335     -2.18234    132062.53   -42353.496    3541.4887   -45894.985   0.14519691 
   51000    294.25369   -10.329612     132069.9   -42319.111    3591.7833   -45910.894   0.13986055 
   51100    288.01336   -10.634167    132058.73   -42317.632    3515.6112   -45833.243   0.15017705 
   51200    285.86941   -31.991877    132067.82   -42368.784    3489.4412   -45858.225   0.13608871 
   51300    288.65539   -33.135566    132037.72   -42380.895    3523.4481   -45904.344   0.14838641 
   51400    288.53895    6.0673658    132058.97   -42313.298    3522.0268   -45835.325   0.14121121 
   51500    279.14592    12.073749    132048.08   -42346.226    3407.3716   -45753.597   0.14739678 
   51600    287.08515   -12.788596    132054.36   -42290.919    3504.2811     -45795.2   0.14711167 
   51700    288.84271    12.122909    132071.14   -42233.502    3525.7346   -45759.237   0.14710402 
   51800    290.10378    15.617597    132077.42   -42223.814    3541.1278   -45764.942   0.14828622 
   51900    284.46531   -27.754205    132066.07    -42285.37    3472.3023   -45757.672   0.15214049 
   52000      291.026    51.015286    132065.62   -42282.187    3552.3847   -45834.572   0.13904839 
   52100    287.93841    15.062246    132060.24   -42361.489    3514.6964   -45876.185   0.14893373 
   52200    281.73412    -17.76968    132043.26   -42390.958    3438.9642   -45829.922   0.14242063 
   52300    287.01079   -13.044389    132049.25   -42390.782    3503.3735   -45894.155    0.1466024 
   52400    282.91627   -11.049143    132016.38   -42469.193     3453.394   -45922.587   0.14371083 
   52500    295.70114    30.524189    132034.69   -42349.965    3609.4515   -45959.417   0.13958589 
   52600    291.16349   -22.336553    132053.98   -42269.491     3554.063   -45823.554   0.15191901 
   52700    287.38679  -0.68146692    132074.26   -42280.971     3507.963   -45788.934   0.14445697 
   52800     299.0627     2.691076     132068.6   -42174.258     3650.484   -45824.742   0.15147607 
   52900    294.71828   -36.749938    132074.96    -42227.05    3597.4543   -45824.504   0.14830525 
   53000    299.07434   -7.4165844    132072.87    -42195.65    3650.6261   -45846.276   0.15060677 
   53100    293.47958   -29.222806    132050.85    -42315.62    3582.3342   -45897.954   0.14776465 
   53200    287.38584    5.3828684    132023.37   -42359.165    3507.9514   -45867.116    0.1463729 
   53300    289.52296   -28.891771    132028.02   -42349.747     3534.038   -45883.785   0.14604692 
   53400    288.98757   -31.214089    132044.28   -42264.283    3527.5028   -45791.786   0.15243699 
   53500    293.06185   -1.7489903    132066.09   -42237.143    3577.2351   -45814.378   0.14634991 
   53600      288.393   -15.869474    132053.02   -42315.314    3520.2453    -45835.56   0.15105888 
   53700    293.10474  -0.70729911    132066.71   -42272.526    3577.7587   -45850.285    0.1416421 
   53800    288.13299    5.9033715    132064.05   -42312.589    3517.0714    -45829.66   0.15003198 
   53900    287.37348   -9.7497799    132070.57   -42321.395    3507.8005   -45829.195   0.14053445 
   54000    285.93444   -1.7936086     132057.8   -42354.348    3490.2351   -45844.583   0.14942119 
   54100    288.87123    -12.79071    132082.98   -42299.772    3526.0828   -45825.854   0.14457222 
   54200    295.67327    28.822086    132095.08   -42249.223    3609.1113   -45858.334   0.14476977 
   54300    295.02433    39.904067    132099.37   -42178.105      3601.19   -45779.295   0.14591506 
   54400    298.14202    39.271145    132096.88   -42134.534    3639.2458   -45773.779   0.14317663 
   54500    287.95099   -6.7480683    132092.03   -42199.799    3514.8499   -45714.649   0.15480608 
   54600    297.76025    36.608722    132107.05    -42179.22    3634.5859   -45813.806    0.1441436 
   54700    296.16649   -16.788906    132081.65   -42214.686    3615.1317   -45829.817   0.14664974 
   54800    293.45918   -8.0737065    132089.46   -42194.336    3582.0852   -45776.421   0.14848293 
   54900    293.56585    -11.93811    132094.14   -42203.818    3583.3873   -45787.205   0.14463395 
   55000     296.5842    33.158032    132089.63   -42223.042    3620.2305   -45843.272   0.14776548 
   55100    294.83102    4.1103786    132078.12   -42225.039    3598.8304   -45823.869   0.14791246 
   55200    284.27878    19.179101    132044.92   -42360.957    3470.0254   -45830.982    0.1405908 
   55300    287.73351   -6.9503033    132022.64   -42412.839    3512.1952   -45925.035   0.14717474 
   55400    288.16642   -13.494417    132043.26   -42354.207    3517.4796   -45871.687   0.13795743 
   55500      286.637   -14.292256    132037.76   -42350.394    3498.8107   -45849.205   0.15328103 
   55600     294.2686   -22.774879    132061.96   -42239.527    3591.9653   -45831.492   0.14513416 
   55700    297.54498    47.666538    132070.18   -42185.096    3631.9582   -45817.055   0.14802891 
   55800     296.8586   -7.4788011    132086.93   -42170.669    3623.5799   -45794.249   0.14740926 
   55900    293.36788   -1.9430378    132055.17   -42203.831    3580.9707   -45784.801   0.14693308 
   56000    292.72944   -5.9894306    132056.71    -42207.62    3573.1776   -45780.798   0.14967497 
   56100    292.91375    6.8878603    132061.02   -42191.474    3575.4274   -45766.902   0.14817306 
   56200    290.60085   -10.521578    132064.12   -42215.112    3547.1952   -45762.307   0.14686857 
   56300    291.98012    31.634547    132057.08   -42297.988    3564.0311   -45862.019   0.14379007 
   56400    289.65696   -15.131655    132017.09   -42332.881    3535.6737   -45868.554   0.14405598 
   56500    287.44194    38.249429    132019.68   -42386.025    3508.6363   -45894.661   0.14566068 
   56600    284.82725   0.90134249    132004.12   -42430.305    3476.7202   -45907.025   0.13993946 
   56700    280.88123   -30.556162    132006.51   -42378.858    3428.5535   -45807.411   0.14891409 
   56800    293.05929    8.1260127    132060.81   -42282.653    3577.2039   -45859.857   0.14507652 
   56900    287.70375   -18.792099    132040.47   -42394.421     3511.832   -45906.253   0.13916481 
   57000    285.49373   -21.427843    132020.84   -42409.947    3484.8555   -45894.803   0.14927128 
   57100    293.98177   -16.511649    132045.77    -42295.13    3588.4641   -45883.594   0.13994873 
   57200    289.74271   -31.807118    132050.37    -42258.63    3536.7203   -45795.351   0.15247243 
   57300    285.32056    12.648368    132044.99   -42378.156    3482.7418   -45860.898    0.1359137 
   57400    293.00506    29.891434    132048.46    -42288.34     3576.542   -45864.882   0.14333408 
   57500    290.72455   -9.8012144    132074.13   -42281.372    3548.7051   -45830.077   0.14682276 
   57600    287.32789   -10.597339    132030.25   -42355.859    3507.2441   -45863.103    0.1450695 
   57700    289.62348    13.932376    132033.94   -42312.133     3535.265   -45847.398   0.14619109 
   57800    289.25385    7.9652253    132055.99   -42231.315    3530.7532   -45762.068   0.14598044 
   57900    289.51335    9.7505341    132061.43   -42303.575    3533.9207   -45837.496   0.14327728 
   58000    291.49766    4.4668223    132041.17   -42226.785     3558.142   -45784.927   0.15134867 
   58100    292.15886   -5.5207966    132045.86   -42296.104    3566.2129   -45862.317   0.14289529 
   58200    295.33799     38.71844    132064.57   -42139.669    3605.0188   -45744.687   0.15333862 
   58300    291.97791   -10.166632    132078.03   -42214.432    3564.0041   -45778.436   0.14581242 
   58400    286.91762   -11.915722    132060.06   -42256.412    3502.2362   -45758.649   0.14899033 
   58500    290.49929   -40.211273    132052.55   -42276.805    3545.9556   -45822.761   0.14842235 
   58600    286.74506    -11.03263    132069.14   -42325.731    3500.1298   -45825.861   0.14258333 
   58700    289.36183   -10.250195    132071.79    -42277.16    3532.0713   -45809.231     0.150668 
   58800    289.74781    40.957593    132085.88    -42289.17    3536.7826   -45825.952   0.13610883 
   58900    290.76572    15.880945    132087.71   -42231.133    3549.2077   -45780.341   0.14681144 
   59000    295.77603    11.520596    132102.43   -42145.768    3610.3657   -45756.134   0.14607758 
   59100    292.94135     4.294166    132085.94   -42165.328    3575.7643   -45741.093   0.15232191 
   59200    291.65894   -35.616908    132092.46   -42249.142    3560.1107   -45809.253   0.14917659 
   59300    293.40605    16.687174    132075.51   -42263.528    3581.4366   -45844.965   0.14372329 
   59400    289.89474    37.101426    132083.17   -42242.453    3538.5761   -45781.029   0.14436623 
   59500    288.76666     8.480783    132056.41   -42338.755    3524.8064   -45863.561   0.14548169 
   59600    288.10072   -17.394235    132040.18   -42280.693    3516.6776   -45797.371     0.146167 
   59700    288.73212   -12.498186       132066   -42236.811    3524.3847   -45761.195   0.15395295 
   59800    287.76651   -24.726149    132037.48   -42369.412     3512.598    -45882.01   0.13982336 
   59900    286.63237    5.8480752    132028.82   -42365.981    3498.7543   -45864.735   0.14393137 
   60000    294.60473    55.249315    132048.67   -42312.498    3596.0682   -45908.566    0.1392256 
   60100    290.52298    9.8987219    132038.15   -42304.136    3546.2447   -45850.381   0.14773086 
   60200    290.87654    11.595164    132037.28   -42266.164    3550.5604   -45816.725   0.14749507 
   60300    289.50877   -14.782903    132056.61   -42211.997    3533.8649   -45745.862   0.14990128 
   60400    295.85359   -16.566056    132079.93   -42169.079    3611.3123   -45780.392   0.15120838 
   60500    289.56932   -52.117297    132084.06   -42159.388     3534.604   -45693.992    0.1540177 
   60600    294.31217    12.944482    132066.91   -42251.384    3592.4972   -45843.881    0.1471794 
   60700    292.09846   -26.906015    132081.15   -42114.752    3565.4757   -45680.227    0.1536192 
   60800    298.75621    -6.063396     132102.1   -42119.398    3646.7429   -45766.141    0.1468614 
   60900    296.26151   -24.481627    132077.24   -42164.224    3616.2916   -45780.515    0.1500859 
   61000    293.58666   -14.609467    132075.22   -42255.538    3583.6413   -45839.179   0.14775337 
   61100    297.48923     -15.7684    132071.87   -42200.789    3631.2777   -45832.066    0.1488607 
   61200    293.12774   0.16931157    132063.28   -42212.717    3578.0395   -45790.756   0.15120994 
   61300    292.49233   -13.153823    132074.03   -42239.436    3570.2834    -45809.72   0.14255376 
   61400     293.1751   -15.982108    132073.57    -42259.52    3578.6176   -45838.138   0.15010579 
   61500    296.27631    -7.568228    132069.04   -42249.493    3616.4723   -45865.965   0.14571591 
   61600    289.61643   -38.098325       132066   -42312.982    3535.1789   -45848.161   0.15131615 
   61700    289.62732    22.086426    132043.25   -42319.419    3535.3118   -45854.731   0.14005237 
   61800    287.42751   -38.965276    132021.77   -42315.577      3508.46   -45824.037   0.14845134 
   61900    298.91405    22.622122    132065.47    -42231.33    3648.6696       -45880   0.14099881 
   62000    293.36314   -20.643944    132059.08   -42251.686    3580.9129   -45832.599    0.1482615 
   62100    287.65099   -6.7358015    132053.72   -42276.524     3511.188   -45787.712   0.15093387 
   62200    297.02914      14.4227    132046.49   -42188.739    3625.6615   -45814.401    0.1495456 
   62300     289.9741    9.0315308    132044.76    -42293.39    3539.5448   -45832.935   0.14375572 
   62400    293.54583     10.52538    132053.09   -42289.986    3583.1428   -45873.129    0.1439204 
   62500      289.306   -30.806414    132033.43   -42292.607    3531.3898   -45823.996   0.14830528 
   62600     289.8966    14.345507    132035.48   -42321.713    3538.5988   -45860.312   0.14677263 
   62700    287.89418    1.0578859     132031.7   -42312.103    3514.1565   -45826.259   0.14826966 
   62800    293.17892    34.634682    132024.93   -42315.454    3578.6642   -45894.118   0.14133898 
   62900    290.34495    11.859106    132040.51   -42261.224    3544.0716   -45805.295   0.14895889 
   63000    287.49975    3.3114703    132036.11    -42309.06    3509.3418   -45818.401   0.14579139 
   63100    286.28356   -3.7685829     131993.6   -42361.065    3494.4966   -45855.561   0.14953214 
   63200    289.98632    9.7152016    132025.33    -42233.32     3539.694   -45773.014   0.14743348 
   63300    286.79074   -22.344555    132023.57   -42324.233    3500.6874   -45824.921   0.14607235 
   63400    290.72843    31.220954    132027.89   -42393.108    3548.7525   -45941.861   0.14014438 
   63500    288.08972    24.472484    132022.21   -42346.954    3516.5433   -45863.497   0.14477116 
   63600    287.66545    21.757674    132011.88   -42413.606    3511.3645   -45924.971   0.14252166 
   63700    284.09831    1.5437321    132009.37   -42422.469    3467.8225   -45890.292   0.14460069 
   63800     283.9039   -33.828683    132008.94   -42450.822    3465.4494   -45916.271    0.1430014 
   63900    285.56227   0.10931457    132009.11   -42347.073    3485.6922   -45832.765   0.14811885 
   64000    288.38527    -28.52578     132021.7   -42272.656     3520.151   -45792.807   0.14934008 
   64100    288.70787    11.645239    132047.12   -42241.171    3524.0887    -45765.26   0.15005132 
   64200    293.32646     1.952366    132039.36   -42205.666    3580.4651   -45786.131   0.14467186 
   64300    293.71171    3.0895233    132040.94    -42217.57    3585.1676   -45802.737   0.14729763 
   64400    288.72463   -1.3311233     132025.2   -42297.539    3524.2933   -45821.832   0.14435699 
   64500    292.57147    13.225605    132049.37   -42284.214    3571.2495   -45855.463   0.14257603 
   64600    288.13479  -0.78235476    132032.68    -42345.84    3517.0934   -45862.934   0.14371349 
   64700    286.34725       2.4243    132043.28   -42377.925    3495.2739   -45873.199   0.14086393 
   64800    288.32768    -19.84005    132030.84   -42301.153    3519.4479   -45820.601   0.14749787 
   64900    294.87058    7.4534776    132069.45   -42236.717    3599.3133   -45836.031     0.145097 
   65000    293.95942   -4.9100588    132064.71     -42207.5    3588.1913   -45795.691   0.14916137 
   65100    292.91941    -31.40142    132054.09   -42259.958    3575.4966   -45835.455   0.14395045 
   65200    293.29645    18.087781    132058.01    -42283.52    3580.0988   -45863.618   0.14317396 
   65300    293.55925   -38.016751    132055.98   -42195.022    3583.3066   -45778.328   0.14733258 
   65400    292.92851    32.150979    132049.86   -42243.575    3575.6076   -45819.183   0.14594064 
   65500    297.93093     -19.2847    132073.49   -42177.311    3636.6692    -45813.98   0.14782921 
   65600    293.23465   -16.241123    132097.57   -42180.579    3579.3445   -45759.923   0.14725446 
   65700    296.94502   0.50012839    132098.33   -42174.272    3624.6348   -45798.907   0.14476619 
   65800    294.82672    -28.02416    132089.39   -42227.891     3598.778   -45826.669   0.14650651 
   65900    288.74536    26.907763    132081.93   -42244.095    3524.5463   -45768.641   0.14187741 
   66000      292.739   -10.001105       132073   -42239.884    3573.2943   -45813.178    0.1469103 
   66100    291.33527    22.456593    132058.06   -42271.439    3556.1599   -45827.599   0.14164493 
   66200    290.80204  -0.74112512    132045.88   -42339.115     3549.651   -45888.766   0.14326358 
   66300    289.45489   -10.274892    132045.05   -42330.965    3533.2071   -45864.172   0.14426687 
   66400     293.3839     23.27296    132066.35   -42313.821    3581.1663   -45894.988   0.14131033 
   66500    290.63366   -14.163176    132048.92     -42283.3    3547.5956   -45830.896   0.14644738 
   66600    287.42752   -9.3723778    132036.27   -42324.768    3508.4602   -45833.229   0.14567163 
   66700    290.14502    19.919957    132044.41   -42316.783    3541.6312   -45858.414   0.14472327 
   66800     286.8514   -7.9381897    132039.62   -42357.259    3501.4279   -45858.687   0.14557588 
   66900     288.9895   -10.232743    132020.77   -42332.874    3527.5264     -45860.4    0.1469123 
   67000    284.23493    10.200708    132018.26   -42445.186    3469.4901   -45914.676   0.13923298 
   67100    290.82115    9.6391945    132036.56   -42268.473    3549.8843   -45818.358   0.14670297 
   67200    295.53681    22.113641    132035.03   -42324.493    3607.4456   -45931.939   0.14005752 
   67300    292.08374     22.64961    132032.34   -42316.007    3565.2959   -45881.303   0.14532735 
   67400    293.00744    37.246836    132045.95   -42280.603    3576.5711   -45857.174   0.14247562 
   67500    290.77577   -3.2611531    132051.41   -42261.087    3549.3304   -45810.418   0.14668551 
   67600    295.68145    11.694234    132080.15   -42146.745    3609.2111   -45755.956   0.14613272 
   67700    294.84347   -25.397524    132083.98   -42195.957    3598.9824   -45794.939   0.14920538 
   67800    292.35648   -17.200886    132076.36   -42238.846    3568.6251   -45807.471   0.14408447 
   67900    290.84857    31.241409    132070.95   -42256.608     3550.219   -45806.827   0.14646413 
   68000    296.14759     28.66341    132053.61   -42309.452     3614.901   -45924.353   0.14135111 
   68100    288.73959   0.35303096    132054.29   -42313.485    3524.4759   -45837.961   0.14632789 
   68200    289.76337   -10.222898    132052.94   -42320.242    3536.9726   -45857.215   0.14564561 
   68300    290.33567   -34.561078     132067.3   -42246.886    3543.9582   -45790.844   0.14790006 
   68400    298.19778    4.0150569    132068.02   -42172.403    3639.9264    -45812.33    0.1490175 
   68500    292.55461    24.316848    132071.57   -42203.125    3571.0436   -45774.169   0.14720234 
   68600    291.45834     2.749963    132084.87   -42228.383    3557.6621   -45786.045   0.14697329 
   68700    291.29228     8.021427    132051.97   -42265.546    3555.6351   -45821.181   0.14638833 
   68800    290.76635    20.534835    132076.68   -42262.076    3549.2154   -45811.291   0.14312114 
   68900    294.06213   -4.3731832    132047.12   -42255.893    3589.4451   -45845.338    0.1484323 
   69000    294.08208   -12.884412    132060.63    -42246.37    3589.6885   -45836.059   0.14690309 
   69100    288.68236   -30.834726    132044.59   -42358.888    3523.7773   -45882.666   0.14471005 
   69200    288.12113    11.208815    132030.93   -42327.178    3516.9267   -45844.105   0.14858863 
   69300    293.23093    6.0714022    132029.47   -42344.661    3579.2991    -45923.96   0.14197062 
   69400    282.89348   -5.8108554    132018.85   -42404.509    3453.1158   -45857.625   0.14895951 
   69500    291.27822    21.975225    132013.28   -42337.798    3555.4634   -45893.261   0.14008587 
   69600    296.07631    9.2251815    132061.34   -42148.905     3614.031   -45762.936   0.15265657 
   69700    295.09813    12.036476    132033.77   -42225.492    3602.0908   -45827.583   0.15110782 
   69800    295.16752    47.886446    132036.04   -42276.573    3602.9379   -45879.511   0.14364447 
   69900    289.67001   -25.313026    132025.08   -42343.262     3535.833   -45879.095   0.14903126 
   70000    291.90328    3.1015821    132040.48   -42264.698    3563.0933   -45827.791    0.1467809 
   70100    286.71512    8.0409499     132018.2   -42368.506    3499.7644    -45868.27   0.14495548 
   70200     289.5379    12.754455    132038.19   -42251.019    3534.2204    -45785.24   0.15449488 
   70300    288.76804    11.630662    132054.17   -42296.073    3524.8232   -45820.897   0.14326553 
   70400    291.48833    6.7394087    132073.14   -42167.364    3558.0281   -45725.392   0.15508863 
   70500     293.4267   0.12352954    132070.61   -42273.627    3581.6887   -45855.316   0.14546766 
   70600    291.29893   -22.802409     132058.7   -42269.254    3555.7162    -45824.97   0.14872844 
   70700    290.18719    27.805004    132082.03   -42276.845    3542.1459   -45818.991   0.14464196 
   70800    292.09524    23.612582    132066.67   -42300.459    3565.4363   -45865.895   0.14088198 
   70900    288.13858   -2.8053086    132065.67    -42337.13    3517.1398    -45854.27   0.14435225 
   71000    289.91562    6.0997436    132052.94   -42295.479    3538.8309    -45834.31   0.14528198 
   71100    285.53334   -19.747043     132049.7   -42353.588     3485.339   -45838.927    0.1482764 
   71200    292.06534    27.758864    132085.55   -42287.032    3565.0713   -45852.103   0.14220996 
   71300    284.91375   -28.913141    132035.92    -42388.68    3477.7761   -45866.456   0.14769996 
   71400    291.85046    23.757916    132049.74   -42331.149    3562.4485   -45893.598    0.1424131 
   71500    293.65019    9.8591071    132048.84   -42281.625    3584.4167   -45866.042   0.14724676 
   71600    292.93181    4.8133979     132052.1   -42269.453    3575.6478     -45845.1   0.14629204 
   71700    290.56755    15.475924    132054.44    -42302.88    3546.7888   -45849.669   0.14502716 
   71800    286.35633   -13.738371    132039.33   -42397.796    3495.3848   -45893.181   0.14123435 
   71900     287.5542    7.5722828    132016.14   -42404.599    3510.0065   -45914.605   0.14187711 
   72000    281.96045    16.048507    132020.45   -42387.702    3441.7269   -45829.429   0.14175257 
   72100     295.2518    24.717939    132052.71   -42253.744    3603.9666   -45857.711   0.14793466 
   72200     295.2629   -17.374227    132076.61   -42124.964    3604.1022   -45729.066   0.15080916 
   72300    300.05882   -21.378515    132109.16   -42064.484    3662.6431   -45727.127   0.15334936 
   72400     291.8651    26.732621    132089.56   -42218.285    3562.6272   -45780.912   0.14527613 
   72500    292.56803    4.4419994       132069   -42226.363    3571.2074   -45797.571   0.14773451 
   72600    294.84232    10.187719    132084.18   -42159.703    3598.9684   -45758.672   0.15254349 
   72700     294.0686    27.455452    132074.79   -42271.662     3589.524   -45861.186   0.14329724 
   72800    294.08769    26.660103     132062.3   -42249.922    3589.7571   -45839.679   0.14797133 
   72900    291.02694    40.824353    132077.86   -42235.846    3552.3962   -45788.242   0.14435908 
   73000    284.88839   -22.735698    132068.77   -42275.291    3477.4665   -45752.758   0.14915214 
   73100    293.70252   -14.021557    132083.39   -42261.988    3585.0555   -45847.043   0.14784226 
   73200    295.87445    -8.203943    132100.27   -42175.406     3611.567   -45786.973   0.14716355 
   73300    297.09663   -20.889339    132081.95   -42119.705    3626.4854    -45746.19   0.15009236 
   73400    296.76522    27.719829    132097.77    -42133.01    3622.4401    -45755.45   0.14730688 
   73500    296.49404    32.092739    132105.06   -42111.879      3619.13   -45731.009   0.14581357 
   73600    297.23447    17.079345    132083.35   -42149.867     3628.168   -45778.035   0.14974389 
   73700    291.37759   -7.6748414    132071.68   -42265.669    3556.6764   -45822.345    0.1453457 
   73800    288.16454    3.0970296    132059.15   -42343.949    3517.4566   -45861.406   0.14535683 
   73900    286.61263   -26.939932    132052.66   -42306.315    3498.5133   -45804.829   0.14722873 
   74000    290.40574    24.438498     132039.1   -42285.087    3544.8137   -45829.901   0.15078799 
   74100    297.39128    40.132863    132089.51   -42128.642     3630.082   -45758.724   0.14963587 
   74200    290.93725     -54.5831    132095.16   -42234.743    3551.3014   -45786.044   0.15163937 
   74300    286.18657    4.5512695    132074.95   -42293.107    3493.3126   -45786.419   0.14401905 
   74400    287.17611    -3.786199    132053.48   -42259.358    3505.3914    -45764.75   0.14851876 
   74500    290.25255    32.361428    132035.99   -42326.726    3542.9437   -45869.669   0.14192933 
   74600    294.80618    33.350174     132040.8   -42274.514    3598.5273   -45873.042   0.14470638 
   74700    296.52779   -5.9824892    132064.11   -42223.305    3619.5419   -45842.847   0.14846575 
   74800    287.73675   -1.4854303    132055.33    -42286.69    3512.2348   -45798.925   0.14592477 
   74900    292.00946    2.6733419    132052.81   -42248.118    3564.3893   -45812.507   0.14777528 
   75000    290.07665   -3.8847691    132035.64    -42301.02    3540.7966   -45841.817   0.14786805 
   75100    293.16158    28.814588    132061.64   -42204.022    3578.4525   -45782.475   0.14771353 
   75200     294.3292    1.9378425    132075.95   -42215.452     3592.705   -45808.157   0.14839297 
   75300    292.85842    17.634376    132058.13   -42280.145     3574.752   -45854.897   0.14175614 
   75400    294.35297    5.0433441    132057.96   -42306.655    3592.9951   -45899.651   0.14244928 
   75500    294.71255   -28.177712    132040.55   -42328.573    3597.3843   -45925.958   0.14678193 
   75600    288.41928    32.786051    132061.88   -42247.089    3520.5661   -45767.655   0.14424843 
   75700    297.23212    2.7637753    132065.55   -42168.291    3628.1392   -45796.431   0.15189538 
   75800    300.65752   -1.4358908    132089.31   -42162.684    3669.9511   -45832.636   0.14314272 
   75900    293.16938   -12.076376    132056.91   -42216.752    3578.5478     -45795.3   0.14783584 
   76000    294.81952    37.988674    132067.82   -42207.696      3598.69   -45806.386   0.14671937 
   76100    289.79339    1.8390987    132063.13   -42300.515     3537.339   -45837.854   0.14575679 
   76200    290.48057    40.399645    132058.44   -42353.025    3545.7271   -45898.752   0.13975048 
   76300    288.84433   -3.9842811    132042.56   -42309.286    3525.7544   -45835.041   0.14497982 
   76400    289.01217     0.533695    132024.21   -42321.548    3527.8031   -45849.351    0.1433672 
   76500    291.89448     22.87548    132031.59   -42271.507    3562.9857   -45834.493     0.152474 
   76600    291.15048    39.023592    132049.81   -42258.564    3553.9042   -45812.468   0.14406761 
   76700    297.44792   -12.998547    132079.74   -42226.905    3630.7734   -45857.678   0.14910007 
[...]
   81900    290.26537   -13.529759    132050.37   -42327.135    3543.1002   -45870.235   0.14485192 
   82000    292.02981    29.077631    132073.03   -42265.404    3564.6377   -45830.042   0.14717069 
   82100    290.70247    2.3062244    132093.46   -42215.538    3548.4356   -45763.973   0.14403651 
   82200    291.24668    9.6850912    132075.06    -42173.83    3555.0785   -45728.909   0.15298011 
   82300    294.06103   -24.469309     132065.2   -42277.912    3589.4316   -45867.344   0.14243183 
   82400    291.37209    17.772584    132079.41   -42191.174    3556.6092   -45747.784   0.15224497 
   82500    294.19943    39.580864    132105.87   -42075.365     3591.121   -45666.486   0.14921439 
   82600    300.32362     33.05469    132101.41   -42129.684    3665.8754    -45795.56   0.14665667 
   82700     290.9398   -4.2887604    132065.06   -42245.786    3551.3325   -45797.119   0.14554655 
   82800    298.29312    4.0298301    132081.32   -42246.498    3641.0903   -45887.588   0.14441047 
   82900    296.38154    20.259086    132090.12   -42205.311    3617.7568   -45823.068   0.14826789 
   83000    295.42361   -9.8741897    132115.93   -42170.541    3606.0638   -45776.605   0.15044623 
   83100    290.80345   -26.421685    132123.51   -42146.995    3549.6682   -45696.663   0.15484869 
   83200    295.84916   -13.133217    132134.47    -42213.81    3611.2583   -45825.068   0.14232056 
   83300    298.11436   -4.0573837    132116.17   -42245.311    3638.9083    -45884.22    0.1484813 
   83400    293.44996   -19.824708    132107.51   -42253.537    3581.9727    -45835.51   0.14553713 
   83500    285.22765   -24.802776    132087.92   -42380.029    3481.6077   -45861.637    0.1476086 
   83600    286.93241   -18.439573    132089.85   -42352.332    3502.4167   -45854.749   0.14493143 
   83700    286.19694   -33.561373    132103.26   -42351.707    3493.4392   -45845.146   0.14579625 
   83800    289.27532   -14.696258    132089.53    -42339.63    3531.0152   -45870.645   0.14591436 
   83900    290.98354    12.578504    132082.35    -42310.62    3551.8665   -45862.487   0.14418237 
   84000    288.79099    19.180327     132088.9   -42316.041    3525.1033   -45841.144   0.13912782 
   84100     289.6931    22.306313    132077.53   -42275.112    3536.1148   -45811.227   0.14815593 
   84200    292.58841    19.039755    132108.04   -42252.772    3571.4562   -45824.228   0.13646466 
   84300    289.27984   -26.770986    132089.25   -42315.891    3531.0704   -45846.962     0.151195 
   84400    288.78569     16.04488    132093.59   -42301.418    3525.0386   -45826.457   0.14011852 
   84500    289.27661    6.6731289    132093.67   -42318.964    3531.0309   -45849.995   0.14260556 
   84600    287.38934   -46.969484     132087.7   -42247.735    3507.9941   -45755.729   0.15169251 
   84700    289.73437    22.513066    132095.21   -42270.337    3536.6186   -45806.956   0.14199382 
   84800    294.92792    12.761863    132082.77   -42264.609    3600.0133   -45864.622   0.14964332 
   84900     293.7117    13.197731    132084.06   -42186.151    3585.1675   -45771.318   0.14765079 
   85000    288.76428   -6.4119913    132057.61    -42255.56    3524.7773   -45780.338   0.15103552 
   85100    286.28845   -30.565741    132070.57   -42288.727    3494.5562   -45783.283   0.15096701 
   85200     294.0466    16.787425     132079.6   -42266.023    3589.2554   -45855.278   0.14138962 
   85300    292.27061    3.9795841     132072.1   -42274.735     3567.577   -45842.312   0.14466678 
   85400    289.20991  0.010355498    132059.45   -42329.927    3530.2168   -45860.144   0.14490629 
   85500    290.09909     5.572173    132065.18   -42286.539    3541.0705   -45827.609    0.1446955 
   85600    287.19242    53.451938    132040.15    -42310.38    3505.5905   -45815.971   0.14878521 
   85700    288.01086   -7.2091424     132074.8   -42306.285    3515.5807   -45821.866   0.14074655 
   85800    285.67267   -13.134473    132078.34   -42267.809    3487.0398   -45754.848   0.15080567 
   85900    289.21355    8.1276109    132067.51   -42220.876    3530.2613   -45751.137   0.14556324 
   86000    294.15588    12.093218    132074.76   -42281.857    3590.5894   -45872.446   0.14746924 
   86100    293.74866   -36.793972    132069.38    -42242.62    3585.6187   -45828.239   0.14658605 
   86200    289.49773    21.041935    132068.87   -42246.855      3533.73   -45780.585   0.15059955 
   86300    295.46208   -3.2622361    132070.58   -42279.043    3606.5335   -45885.577   0.14476866 
   86400    285.22265   -1.6049568    132045.88   -42311.944    3481.5466   -45793.491   0.14861314 
   86500    292.45919    16.281283    132038.79   -42363.727    3569.8789   -45933.606   0.14468409 
   86600    292.89214    27.542562    132061.89   -42241.304    3575.1636   -45816.468   0.14818982 
   86700    296.95328   -1.2097911     132053.3    -42249.33    3624.7356   -45874.066   0.14714534 
   86800     292.2798    24.221374    132051.39   -42310.562    3567.6892   -45878.251   0.14401685 
   86900     289.6583   -28.452206    132054.11   -42270.239      3535.69   -45805.929   0.14559741 
   87000    293.11763   -10.959969    132062.69    -42235.61     3577.916   -45813.526   0.14889179 
   87100    291.75138     46.40518     132062.6   -42270.273    3561.2391   -45831.512   0.14355136 
   87200    293.01396   -13.321835    132071.45   -42232.508    3576.6506   -45809.159   0.14910645 
   87300    291.05402    29.543106     132081.4   -42205.946    3552.7267   -45758.672   0.14979001 
   87400    291.83116    20.015129    132064.47   -42254.511    3562.2129   -45816.724    0.1435106 
   87500    291.39487   -9.1146515    132080.57   -42218.673    3556.8874    -45775.56   0.15379802 
   87600    292.57132    4.4236443     132104.9   -42248.841    3571.2475   -45820.089    0.1425768 
   87700    287.34241    -31.73796    132101.34   -42237.093    3507.4213   -45744.514   0.15356683 
   87800    290.44067   -8.9435468    132066.59   -42272.307      3545.24   -45817.547   0.14543375 
   87900    289.71318    13.727298    132035.48   -42324.116    3536.3599   -45860.476   0.14687543 
   88000    286.70565   -49.543683    132078.09   -42287.269    3499.6488   -45786.917   0.14943067 
   88100    298.18667    46.187232    132107.33   -42254.513    3639.7909   -45894.304   0.14377046 
   88200    287.58099    28.437306    132075.11   -42341.215    3510.3335   -45851.549   0.14218993 
   88300    292.27489   -3.2912698    132079.39    -42310.08    3567.6292   -45877.709   0.14484475 
   88400    292.38197   -3.8911904    132088.82   -42256.313    3568.9362    -45825.25   0.14207518 
   88500    291.80129   -45.438235     132092.1   -42307.612    3561.8483   -45869.461   0.14784634 
   88600    293.57325     2.728422    132091.38   -42279.984    3583.4775   -45863.462   0.14051546 
   88700    293.63404    10.922883    132092.39   -42259.953    3584.2196   -45844.173   0.14464177 
   88800    285.52395   -15.179157    132077.83   -42294.739    3485.2244   -45779.964   0.14516024 
   88900    289.96135    23.119293    132088.86   -42302.738    3539.3892   -45842.127   0.14270623 
   89000    285.04808   -22.364625     132078.9   -42240.945    3479.4158    -45720.36   0.15145575 
   89100    295.14332    -11.76537     132086.4   -42293.418    3602.6425   -45896.061   0.14333694 
   89200    292.25106    15.410907    132083.57   -42241.538    3567.3384   -45808.877   0.14828073 
   89300     284.5154   -11.613969    132062.81   -42353.793    3472.9136   -45826.707   0.14525518 
   89400    292.20364    9.5859921    132060.21   -42235.088    3566.7595   -45801.848   0.14932052 
   89500    290.51599    -13.80365    132072.47   -42319.987    3546.1594   -45866.146   0.14441049 
   89600    286.40003    18.551191    132041.83   -42409.586    3495.9182   -45905.505   0.14205041 
   89700    287.85185   -14.158527    132065.28    -42308.08    3513.6397    -45821.72   0.14257386 
   89800    289.91555    16.780254    132063.86   -42253.997    3538.8301   -45792.828   0.14986231 
   89900    290.54924   -23.162407    132075.74   -42234.167    3546.5653   -45780.732   0.14643533 
   90000    294.05856    1.9366116    132083.38   -42273.132    3589.4014   -45862.533   0.14718242 
   90100    293.23634    35.695069    132090.98   -42218.958    3579.3651   -45798.324   0.14004278 
   90200    290.77247    3.5953018    132084.76   -42279.972    3549.2901   -45829.262    0.1472541 
   90300    292.83643    46.175777    132042.67   -42291.417    3574.4836     -45865.9   0.14435383 
   90400    289.16714   -3.3820889    132034.48   -42259.651    3529.6948   -45789.345   0.15395669 
   90500    291.81731   -3.4407383    132050.79   -42265.662    3562.0438   -45827.706   0.14810628 
   90600    294.81739    23.626119     132055.2    -42237.39     3598.664   -45836.054    0.1481041 
   90700    287.52039   -20.859108    132063.41   -42283.934    3509.5939   -45793.528   0.15123673 
   90800    291.86919    1.7369846    132065.74   -42330.722    3562.6771   -45893.399   0.14234408 
   90900    290.23265   -2.5063764    132054.53   -42257.907    3542.7008   -45800.608   0.14923673 
   91000      288.643   -3.5745663     132030.1   -42343.044    3523.2969   -45866.341   0.14718167 
   91100    284.20185    -3.749233    132010.73   -42402.042    3469.0864   -45871.128   0.14485519 
   91200    289.88042    5.1319545    132022.62   -42400.011    3538.4014   -45938.413   0.14513743 
   91300    286.64165   -32.355135    132024.24   -42349.024    3498.8676   -45847.891   0.14626578 
   91400    291.59679    -26.75782    132027.23   -42286.051    3559.3521   -45845.404    0.1498918 
   91500    301.82262    22.756643     132052.6   -42130.709    3684.1728   -45814.882   0.15127752 
   91600    297.12998    15.153958    132084.03   -42176.342    3626.8925   -45803.235   0.14696972 
   91700    290.76247    11.156332    132055.36   -42277.255     3549.168   -45826.423   0.14845391 
   91800    297.11683    5.3732517    132047.48   -42161.359    3626.7319   -45788.091   0.15015804 
   91900    295.63016    -24.78297    132065.58   -42218.541     3608.585   -45827.126   0.15190931 
   92000    291.63895   -3.9741794    132079.18   -42234.359    3559.8667   -45794.226   0.14626346 
   92100    293.78305   -18.163334     132063.7   -42280.393    3586.0384   -45866.432   0.14533081 
   92200    289.67463   -37.872015    132055.12   -42306.033    3535.8893   -45841.922   0.14744913 
   92300    295.74045    5.4863168     132084.3   -42185.364    3609.9314   -45795.295   0.15046978 
   92400     296.9267   -15.431751    132086.69   -42237.325    3624.4112   -45861.736    0.1487955 
   92500    295.31674    1.2017384    132069.66   -42214.234    3604.7594   -45818.993   0.14862335 
   92600     295.1782    19.748926    132075.89   -42157.391    3603.0683   -45760.459   0.14817071 
   92700    291.95899    5.2800234     132075.4   -42241.877    3563.7732    -45805.65   0.14714174 
   92800    291.52364   -7.7313494    132061.04   -42236.561    3558.4591    -45795.02   0.14914973 
   92900    292.12475    -21.73624    132029.61   -42267.601    3565.7965   -45833.397   0.15225709 
   93000    290.27722     2.187261    132008.78   -42278.278    3543.2448   -45821.523   0.15297673 
   93100    294.37473    7.6525112    132035.96   -42271.538    3593.2608   -45864.799   0.14861624 
   93200    294.89182    27.847718    132049.68   -42256.857    3599.5725   -45856.429   0.14568936 
   93300    289.99701    16.235837    131994.46   -42315.814    3539.8245   -45855.639   0.14756735 
   93400    284.30619   -10.031677    132005.49   -42361.485      3470.36   -45831.845   0.15347876 
   93500    290.01254  -0.36118284    131990.92   -42321.345    3540.0141   -45861.359   0.14909079 
   93600    289.29535    16.720709    132019.03   -42297.974    3531.2597   -45829.233   0.14565509 
   93700    290.83787     22.98162    132009.21   -42278.632    3550.0883    -45828.72   0.14542384 
   93800    286.35401      10.9011    132005.73   -42325.475    3495.3565   -45820.832    0.1513266 
   93900    286.34479    26.911894    131988.35   -42353.279     3495.244   -45848.523   0.14729321 
   94000    289.66726    40.018099    131977.16   -42366.631    3535.7994   -45902.431   0.14435481 
   94100    292.05763    8.9305353    132007.19   -42259.455    3564.9772   -45824.432   0.14812353 
   94200    293.08869    21.747712    132016.44   -42206.897    3577.5629   -45784.459   0.15152362 
   94300    289.59883    4.3773814     132018.2   -42232.579    3534.9641   -45767.543   0.15373741 
   94400    288.63615   -42.521536    132015.74   -42263.582    3523.2133   -45786.795   0.15589067 
   94500    301.46594   -5.1987763    132025.75   -42180.292    3679.8191   -45860.111   0.15131465 
   94600    296.50906    2.8533096    132004.52   -42288.326    3619.3132   -45907.639   0.14902675 
   94700    290.15607   -23.389767    132012.07   -42297.367    3541.7661   -45839.133   0.14684744 
   94800    291.92419    10.334625    131991.23   -42283.142    3563.3484   -45846.491   0.14973361 
   94900    287.10505   -22.140398    131995.48   -42338.728     3504.524   -45843.252   0.15395609 
   95000    289.71994   -36.418314    131997.04   -42306.031    3536.4424   -45842.474   0.15299173 
   95100    290.96058    28.110794    131990.48   -42288.667    3551.5862   -45840.253   0.15068536 
   95200    295.68826    45.154587    131998.56   -42259.384    3609.2943   -45868.678   0.14339062 
   95300    286.44569    1.0541675    131994.23   -42275.839    3496.4756   -45772.315   0.15069238 
   95400    288.52592   -14.768843    131990.45   -42247.933    3521.8678   -45769.801   0.15892092 
   95500    292.94154    27.856334    131986.74   -42199.267    3575.7666   -45775.034   0.15319436 
   95600    288.95557   -26.014196    131997.34   -42258.415    3527.1122   -45785.527   0.15237455 
   95700    290.22258    14.202933    132009.56   -42237.581    3542.5779   -45780.159   0.14925552 
   95800    291.16357    25.369261    131991.43   -42242.136     3554.064     -45796.2   0.15053778 
   95900    290.83548    5.1376523    131992.65   -42253.359    3550.0592   -45803.418   0.15821861 
   96000    297.43613    26.732679    132030.48   -42223.901    3630.6295    -45854.53   0.14702273 
   96100    296.92056   -3.3337565    132038.26   -42141.608    3624.3362   -45765.945    0.1530652 
   96200    296.02692    4.0941898    132057.23   -42180.701    3613.4281   -45794.129   0.14760941 
   96300    289.19268     22.20939    132046.82    -42206.64    3530.0065   -45736.647   0.14965735 
   96400    290.26166    14.958197    132032.22    -42245.59     3543.055   -45788.645   0.15126444 
   96500     293.7165    28.218559    132053.47   -42223.817    3585.2262   -45809.043   0.14947152 
   96600    291.73343    3.7905534    132027.29   -42274.029    3561.0199   -45835.049   0.15008375 
   96700    293.22124    17.117921    132020.38   -42254.294    3579.1808   -45833.475   0.14588455 
   96800    289.47409    11.365609    132010.19   -42271.504    3533.4415   -45804.945   0.15167398 
   96900    288.05272   -34.699427    132002.14   -42318.434    3516.0917   -45834.525   0.15465959 
   97000    289.06139   -9.1380586    131992.24   -42328.702    3528.4039   -45857.106   0.15112732 
   97100    287.02995   -30.658854       131977   -42315.318    3503.6073   -45818.926   0.15320817 
   97200    290.47274    36.592554    131987.67   -42303.808    3545.6314   -45849.439   0.14544026 
   97300    295.93175    6.0674405    132018.65   -42170.541    3612.2664   -45782.808   0.15013757 
   97400    288.82218    40.649415    132019.57   -42217.565    3525.4841   -45743.049   0.15138946 
   97500    292.25312     -26.1352    132016.56   -42188.724    3567.3635   -45756.087   0.15320693 
   97600    297.78755   -37.578674    132052.97   -42182.666    3634.9191   -45817.585   0.15538612 
   97700    299.03584    34.071497    132047.36   -42161.551    3650.1562   -45811.708   0.14512912 
   97800    291.35181   -40.763776    132049.27   -42216.764    3556.3617   -45773.126   0.15491075 
   97900    293.26117     13.80247    132032.75   -42201.805    3579.6681   -45781.473   0.14811757 
   98000    292.97776    11.267225    132031.77   -42248.563    3576.2088   -45824.772   0.14895981 
   98100    293.29079   -9.1252228    132036.82   -42252.295    3580.0297   -45832.325   0.14641742 
   98200    287.06623    20.727711    132020.33   -42269.857    3504.0502   -45773.907   0.14640786 
   98300     289.9727   -20.236331    132043.52   -42175.982    3539.5277   -45715.509   0.15380365 
   98400    289.86319   -3.9754332    132044.08   -42222.047     3538.191   -45760.238   0.14974521 
   98500    294.07301    54.212112    132055.09    -42232.03    3589.5778   -45821.607   0.14876509 
   98600    294.18419    13.772259    132060.12   -42238.008     3590.935   -45828.943   0.14848005 
   98700    295.17844     23.48666    132044.34   -42191.057    3603.0711   -45794.128   0.14817209 
   98800      292.949    24.281195    132067.73   -42175.499    3575.8577   -45751.356   0.15259413 
   98900    290.09044   -42.243148     132050.8   -42261.652     3540.965   -45802.617    0.1513104 
   99000    291.47584    30.429542    132047.57   -42247.725    3557.8756     -45805.6   0.14664454 
   99100    291.11585  -0.58886443    132043.15   -42316.381    3553.4815   -45869.862   0.14777223 
   99200    296.19436    20.550127    132071.18   -42291.629    3615.4719   -45907.101   0.14030465 
   99300    292.88359   -1.9859012    132044.69   -42264.175    3575.0593   -45839.235   0.15075015 
   99400    283.17579   -37.665128    132039.28   -42300.135    3456.5618   -45756.697   0.15123129 
   99500    291.69843    20.026134    132041.55   -42258.826    3560.5927   -45819.419   0.14907668 
   99600    295.08581   -14.538755    132039.43   -42235.992    3601.9405   -45837.933   0.14795473 
   99700    296.14801   -12.957025    132029.81   -42292.512    3614.9062   -45907.418   0.14653712 
   99800    291.54451   -28.969036    132025.14    -42266.22    3558.7139   -45824.934   0.15034156 
   99900     289.9013    13.225198     132021.9   -42305.642    3538.6561   -45844.298   0.14721593 
  100000    289.86958   -16.734138       132031   -42264.731     3538.269       -45803   0.14688728 
Loop time of 53.4312 on 6 procs for 100000 steps with 4096 atoms

Performance: 808.516 ns/day, 0.030 hours/ns, 1871.564 timesteps/s
98.0% CPU use with 6 MPI tasks x no OpenMP threads

MPI task timing breakdown:
Section |  min time  |  avg time  |  max time  |%varavg| %total
---------------------------------------------------------------
Pair    | 34.857     | 35.741     | 37.05      |  15.0 | 66.89
Neigh   | 5.6979     | 5.8226     | 5.9765     |   4.6 | 10.90
Comm    | 7.5912     | 8.9959     | 9.9183     |  32.7 | 16.84
Output  | 0.1668     | 0.16803    | 0.17362    |   0.6 |  0.31
Modify  | 1.9556     | 1.9726     | 1.9994     |   0.9 |  3.69
Other   |            | 0.731      |            |       |  1.37

Nlocal:        682.667 ave         708 max         669 min
Histogram: 2 2 0 0 0 0 0 1 0 1
Nghost:        1375.83 ave        1394 max        1360 min
Histogram: 1 0 1 1 1 0 0 1 0 1
Neighs:        0.00000 ave           0 max           0 min
Histogram: 6 0 0 0 0 0 0 0 0 0
FullNghs:      19482.0 ave       20171 max       19092 min
Histogram: 2 2 0 0 0 0 0 1 0 1

Total # of neighbors = 116892
Ave neighs/atom = 28.538086
Neighbor list builds = 6215
Dangerous builds = 0

undump              1
unfix               2
unfix               3
unfix               4




################################################
#######         Run Simulation         #########
################################################

reset_timestep      0
log                 log.run_${NAME}
log                 log.run_ice_292K_1atm_ML
