
# Set production fixes - Nose/Hoover
#
fix                 2 all nph iso ${PRES} ${PRES} ${PCOUPL}
fix                 2 all nph iso 1 ${PRES} ${PCOUPL}
fix                 2 all nph iso 1 1 ${PCOUPL}
fix                 2 all nph iso 1 1 10000.0
fix                 3 all temp/csvr ${TEMP} ${TEMP} ${TCOUPL} 837492
fix                 3 all temp/csvr 292 ${TEMP} ${TCOUPL} 837492
fix                 3 all temp/csvr 292 292 ${TCOUPL} 837492
fix                 3 all temp/csvr 292 292 5000.0 837492

# Define Order parameter
#
compute             2 all orientorder/atom nnn NULL cutoff 3.5
thermo              200
thermo_style        custom step temp press vol etotal ke pe c_1[4]

# Run 1ns simulation
dump		    1 all custom 400 prod.${NAME}.dump id type x y z vx vy vz c_2[*]
dump		    1 all custom 400 prod.ice_292K_1atm_ML.dump id type x y z vx vy vz c_2[*]
run                 200000
Neighbor list info ...
  update every 1 steps, delay 0 steps, check yes
  max neighbors/atom: 2000, page size: 100000
  master list distance cutoff = 6.0032907
  ghost atom cutoff = 6.0032907
  binsize = 3.0016454, bins = 17 17 17
  2 neighbor lists, perpetual/occasional/extra = 1 1 0
  (1) pair sw, perpetual
      attributes: full, newton on
      pair build: full/bin/atomonly
      stencil: full/bin/3d
      bin: standard
  (2) compute orientorder/atom, occasional, copy from (1)
      attributes: full, newton on
      pair build: copy
      stencil: none
      bin: none
Per MPI rank memory allocation (min/avg/max) = 5.837 | 5.837 | 5.838 Mbytes
Step Temp Press Volume TotEng KinEng PotEng c_1[4] 
       0    289.86958   -16.226802       132031   -42264.742     3538.269   -45803.011   0.14688728 
     200    291.71966   -14.477825    132042.73   -42255.441    3560.8519   -45816.293   0.14593001 
     400    294.07185   -26.109795    132046.01   -42250.179    3589.5636   -45839.742   0.14908719 
     600    291.13881   -3.9965346    132062.53   -42285.687    3553.7617   -45839.449   0.14564352 
     800     287.3931   -38.864539    132061.11   -42300.164    3508.0401   -45808.204   0.14858782 
    1000     290.8147    26.276702    132031.14   -42312.724    3549.8056   -45862.529   0.14530161 
    1200    294.13189    7.0804443    132044.18   -42336.408    3590.2966   -45926.705   0.14356678 
    1400    290.45555   -24.330136    132046.02   -42327.419    3545.4216   -45872.841   0.14667973 
    1600    289.55067    8.7081731    132014.62   -42330.585    3534.3762   -45864.961   0.14455056 
    1800    291.05227   -11.735847    132030.92   -42337.307    3552.7054   -45890.012   0.14792342 
    2000    290.77905    -50.68874    132075.52   -42293.259    3549.3704   -45842.629   0.14814889 
    2200    293.18829    17.229511    132079.64   -42262.926    3578.7786   -45841.704   0.14324939 
    2400    293.54266   -16.380093    132089.46   -42280.804    3583.1042   -45863.909   0.14014357 
    2600    288.20362   -11.422446    132073.33   -42322.515    3517.9336   -45840.449   0.14043807 
    2800    289.39561    1.1361565    132074.77   -42339.556    3532.4835    -45872.04   0.14150964 
    3000    294.78481    18.644312    132071.51   -42352.063    3598.2663    -45950.33   0.14075035 
    3200    291.12685   -73.387743    132056.67   -42300.835    3553.6158   -45854.451    0.1474979 
    3400    286.26638   -22.998624    132063.39   -42338.297    3494.2869   -45832.584   0.14182276 
    3600    286.35546    15.923843    132056.86   -42364.985    3495.3742   -45860.359   0.13811183 
    3800    290.16311    21.228942     132017.8   -42294.395    3541.8519   -45836.247   0.14484297 
    4000    291.61737    34.086259    132058.97   -42289.546    3559.6033   -45849.149   0.14350464 
    4200     285.3935    -9.941628    132136.97    -42304.84    3483.6321   -45788.472   0.14538259 
    4400    287.00638    24.532759    132078.59   -42283.505    3503.3196   -45786.825   0.14467962 
    4600    287.37787    33.084499    132052.83   -42271.627    3507.8541   -45779.481   0.14420501 
    4800    294.04247   -57.942773    132133.71   -42267.003    3589.2051   -45856.208   0.14173506 
    5000    297.57653   -53.909272    132133.74   -42260.684    3632.3433   -45893.027   0.14345532 
    5200    293.58613    42.577448    132040.93   -42259.139    3583.6347   -45842.774   0.14478109 
    5400    290.12717    10.151839    132079.25   -42221.065    3541.4132   -45762.479   0.14688984 
    5600    292.99305   -91.997215    132208.84   -42205.413    3576.3953   -45781.808   0.14401414 
    5800    300.27664     24.97565    132126.84   -42194.329     3665.302   -45859.631   0.13690501 
    6000    300.73972     134.1207    131983.62   -42181.287    3670.9545   -45852.242   0.14092835 
    6200    299.06137    43.564339    132098.16   -42174.889    3650.4679   -45825.357   0.14286129 
    6400    299.21898   -108.22679    132251.88   -42143.762    3652.3917   -45796.153   0.14571511 
    6600    296.18739    3.9544097       132101   -42181.027    3615.3868   -45796.414   0.14304828 
    6800    289.95956    95.196589    131949.05   -42215.171    3539.3674   -45754.538   0.14395241 
    7000    293.57826    -85.45861    132144.85    -42226.71    3583.5387   -45810.249    0.1453265 
    7200    297.14558   -136.44858    132273.14   -42173.811    3627.0829   -45800.894   0.14307323 
    7400    297.69053    106.32912    132037.19    -42156.63    3633.7348   -45790.365   0.14383301 
    7600    292.61213    87.664758    131976.79    -42193.51    3571.7458   -45765.256   0.14700326 
    7800    292.25009   -110.28242    132253.71   -42219.954    3567.3265    -45787.28   0.13993357 
    8000    297.41709    -119.2519       132255    -42182.68    3630.3971   -45813.077   0.14278188 
    8200    295.81139    170.27412    131909.19   -42218.341    3610.7973   -45829.138   0.14269643 
    8400    290.36424    179.45015    131902.37   -42247.287     3544.307   -45791.594   0.14403525 
    8600    290.65651   -176.06993    132275.77   -42203.388    3547.8746   -45751.262   0.15192096 
    8800     304.1564   -82.008502    132241.46   -42144.651    3712.6599   -45857.311   0.14333363 
    9000    295.39986    191.42542    131876.88   -42123.534    3605.7739   -45729.308   0.14925285 
    9200    299.37313    101.64169    132004.22   -42109.457    3654.2733   -45763.731   0.14934173 
    9400    294.77688   -260.21613    132389.69   -42154.781    3598.1696   -45752.951   0.14778224 
    9600    296.84859   -62.184403    132138.59    -42144.33    3623.4577   -45767.788   0.14928857 
    9800    298.77652    307.87516    131775.27   -42159.658    3646.9908   -45806.649   0.14337405 
   10000    299.53314   -49.460184    132150.99   -42156.586    3656.2265   -45812.812   0.14693296 
   10200    298.66484    -338.6707     132461.5   -42152.631    3645.6276   -45798.259   0.15101509 
   10400    296.73303    124.09194    131952.85   -42138.881    3622.0472   -45760.928    0.1491836 
   10600    299.99958    342.70719    131717.03   -42120.698    3661.9201   -45782.618   0.14799341 
   10800    295.70025    -181.6941    132325.92   -42150.873    3609.4406   -45760.314   0.14639933 
   11000    290.54002   -333.33335    132454.83   -42188.273    3546.4527   -45734.726   0.14793164 
   11200    289.88764    252.23958    131775.26   -42203.602    3538.4894   -45742.091   0.14657949 
   11400    294.14192    297.54225    131734.28   -42229.442     3590.419   -45819.861   0.14754694 
   11600    289.56568   -308.60218    132424.96   -42200.393    3534.5594   -45734.952   0.15373726 
   11800    287.27766   -236.73098    132328.55   -42268.556     3506.631   -45775.187   0.14723446 
   12000    290.78686    377.41803    131630.63   -42267.903    3549.4657   -45817.368   0.14474933 
   12200    292.36221    155.71195     131881.3   -42248.974    3568.6951   -45817.669   0.14285289 
   12400    289.51127   -370.16095    132575.85   -42216.621    3533.8953   -45750.517   0.14442591 
   12600    292.42916   -136.28318    132231.27   -42228.068    3569.5123   -45797.581   0.14921743 
   12800    291.10144    384.46762    131618.13   -42236.704    3553.3056    -45790.01   0.14775795 
   13000    295.00468    38.424637    132027.24   -42220.653    3600.9502   -45821.603   0.14311139 
   13200    297.76083   -351.28898    132517.76   -42192.165    3634.5929   -45826.758   0.14375653 
   13400    296.32101     10.98159    132103.44   -42210.627    3617.0179   -45827.645   0.14203712 
   13600    295.38245    300.32283     131764.4    -42206.56    3605.5614   -45812.121   0.14500259 
   13800     292.4285   -69.278824    132125.93   -42200.928    3569.5043   -45770.433   0.14747963 
   14000     289.0356    -224.8084    132311.45   -42214.192    3528.0891   -45742.281   0.14932313 
   14200    294.89754    92.967884     131974.5   -42232.988    3599.6424    -45832.63   0.14336898 
   14400    296.48828    182.98572    131885.41   -42262.475    3619.0596   -45881.535   0.13923651 
   14600    292.59973   -73.029831    132150.76   -42256.537    3571.5943   -45828.132   0.14173868 
   14800    294.46977   -85.712431    132180.61   -42235.061    3594.4209   -45829.482   0.14425339 
   15000     292.0059     103.8091    131956.55   -42285.466    3564.3459   -45849.812   0.14527227 
   15200    287.93544    129.36089    131955.62   -42340.756    3514.6601   -45855.416   0.13729293 
   15400    286.81946   -92.187902    132145.36   -42346.633     3501.038   -45847.671   0.14154406 
   15600     288.9099   -62.332342    132094.32   -42389.334    3526.5548   -45915.889   0.14206484 
   15800    290.44226    129.47436    131923.52   -42335.539    3545.2594   -45880.798   0.14422477 
   16000    285.89508   -19.348995    132010.55   -42322.396    3489.7546    -45812.15   0.15318715 
   16200    292.65217   -41.590593     132117.5   -42272.982    3572.2345   -45845.217    0.1432719 
   16400    290.32219    38.177055    132023.28    -42269.96    3543.7937   -45813.754   0.14122301 
   16600    287.91724    39.288722     131957.1   -42287.944     3514.438   -45802.382   0.15043754 
   16800    297.47329    31.348417    132056.36   -42245.167    3631.0831    -45876.25   0.14339915 
   17000    292.95829   -84.702009    132116.36   -42267.102    3575.9711   -45843.073   0.14944072 
   17200    289.11386    33.933992    131985.51     -42250.3    3529.0444   -45779.345   0.14821065 
   17400    283.27953    70.666713    131919.92   -42292.351    3457.8282   -45750.179   0.15028363 
   17600     284.6679   -32.285741    132085.21   -42327.662    3474.7752   -45802.437   0.14878349 
   17800    288.04245   -86.055546    132123.42   -42344.204    3515.9663    -45860.17   0.14433431 
   18000    288.34701    84.695064    131910.47   -42373.255    3519.6839   -45892.939   0.14340502 
   18200    286.39949    130.59129    131886.02   -42404.638    3495.9117    -45900.55   0.14432503 
   18400    284.51972    -124.4801    132115.23   -42420.656    3472.9664   -45893.623   0.14788733 
   18600    291.69797   -68.440573    132120.08   -42382.611     3560.587   -45943.198   0.14156867 
   18800    290.69046    128.23666    131922.21     -42324.9     3548.289   -45873.189   0.13888753 
   19000    287.02901     83.67012    131997.69   -42341.457    3503.5958   -45845.053   0.14651724 
   19200    290.10091   -99.007005    132193.23   -42322.059    3541.0928   -45863.152    0.1469818 
   19400     291.1176   -5.8556573    132078.32   -42319.471    3553.5028   -45872.974    0.1424929 
   19600    285.45002    135.64387    131897.26   -42340.133     3484.322   -45824.455   0.13895777 
   19800    289.55652    2.6672462    132044.46   -42334.591    3534.4476   -45869.038   0.13870981 
   20000    288.57719   -137.78602     132215.4   -42332.314    3522.4935   -45854.808   0.14877667 
   20200    288.56336    30.364194    132029.38   -42358.979    3522.3247   -45881.304   0.14563727 
   20400    287.66499    161.09745    131887.46   -42336.714    3511.3589   -45848.073   0.14324784 
   20600    286.97183   -66.742486    132125.57   -42339.758    3502.8979   -45842.656   0.14148976 
   20800     286.8807   -196.07473    132242.61   -42326.601    3501.7855   -45828.387   0.14404311 
   21000    289.08747    106.67129    131950.96   -42328.898    3528.7222    -45857.62   0.14438436 
   21200    289.39156    172.39661     131861.7   -42317.821    3532.4341   -45850.255   0.14047547 
   21400    291.20662   -122.72457    132180.28   -42315.031    3554.5895   -45869.621   0.14446723 
   21600    294.30779    -188.8196    132227.79   -42271.295    3592.4436   -45863.739    0.1496291 
   21800    294.50537    202.25742    131870.47   -42228.503    3594.8555   -45823.358   0.14234869 
   22000    292.74602    136.94307    131930.34   -42236.955    3573.3801   -45810.335   0.14117297 
   22200    295.82477   -205.21114     132345.6   -42194.746    3610.9605   -45805.706   0.14315344 
   22400    293.72901   -63.442854    132229.69   -42173.275    3585.3788   -45758.653   0.14533661 
   22600    294.15351    231.61801     131823.3   -42177.867    3590.5605   -45768.427   0.15100359 
   22800    296.41972    79.800743    132026.74    -42224.24    3618.2227   -45842.463   0.14313082 
   23000    289.40581   -247.92171    132401.08   -42236.501     3532.608   -45769.109   0.13972833 
   23200    296.06753   -43.711845     132108.2   -42222.714    3613.9238   -45836.638   0.14463961 
   23400    288.47047    270.02034     131745.3   -42233.819    3521.1909    -45755.01   0.15312838 
   23600    288.62283   -19.589117    132091.21   -42245.414    3523.0507   -45768.465   0.15077073 
   23800    294.61423   -270.75949    132409.34   -42193.042    3596.1842   -45789.226   0.14448619 
   24000    293.88008    92.330728     132021.9   -42222.001    3587.2228   -45809.224   0.13984588 
   24200    291.09061    290.10735    131783.32   -42210.936    3553.1734    -45764.11   0.14586245 
   24400    291.34558   -161.68417    132226.61   -42215.959    3556.2857   -45772.244   0.15149242 
   24600    289.94991   -264.70343    132348.28   -42218.216    3539.2495   -45757.466   0.15118294 
   24800    294.97119    181.14387     131868.7   -42143.485    3600.5414   -45744.026   0.14957986 
   25000     294.3788    168.41604    131862.28   -42155.289    3593.3104   -45748.599   0.15335088 
   25200    298.01001   -229.62028    132348.96   -42181.582    3637.6344   -45819.216   0.14447386 
   25400     292.1755   -147.69401    132253.67   -42232.672     3566.416   -45799.088   0.14399606 
   25600    291.71416    280.18101    131764.24   -42256.215    3560.7847   -45816.999   0.14434965 
   25800    291.13679    105.97814    131939.42   -42229.948    3553.7372   -45783.685   0.15042375 
   26000     288.8492   -262.05767    132404.01    -42211.19    3525.8138   -45737.004   0.15508144 
   26200    289.75219   -53.106408    132132.64   -42242.748    3536.8361   -45779.584   0.14525345 
   26400    284.05783    282.87175     131723.2   -42263.155    3467.3283   -45730.483   0.15001378 
   26600    288.75237    -29.00024    132043.13   -42272.074    3524.6319   -45796.706   0.14797614 
   26800     294.2736   -234.33508    132380.16   -42273.772    3592.0263   -45865.798   0.14523681 
   27000    291.58231    -4.963095    132006.59   -42276.302    3559.1754   -45835.478   0.15196201 
   27200    293.59815    296.99637    131728.24   -42271.929    3583.7815    -45855.71   0.13973318 
   27400     288.8496   -67.711525     132162.9   -42242.164    3525.8187   -45767.982   0.14423216 
   27600     287.8607   -306.71675     132395.8    -42249.93    3513.7478   -45763.677   0.14966438 
   27800     298.6299    142.47963    131906.85   -42236.027    3645.2011   -45881.229   0.14245062 
   28000    290.12846    237.01087    131751.18   -42229.726     3541.429   -45771.155   0.14970477 
   28200    295.83797   -173.03234    132252.14   -42243.741    3611.1217   -45854.862   0.14367974 
   28400    291.21829   -254.68232    132305.17   -42241.702     3554.732   -45796.434   0.14597721 
   28600    295.85088    220.45999    131815.27   -42258.465    3611.2793   -45869.744   0.14591848 
   28800    294.60385    173.46917    131898.57   -42272.767    3596.0575   -45868.825   0.14161784 
   29000    287.33977    -240.0889    132331.33   -42312.926    3507.3891   -45820.316   0.14701702 
   29200    289.70267   -117.14165    132156.28   -42348.299    3536.2317   -45884.531    0.1468725 
   29400    286.84054    238.79483     131802.8   -42347.977    3501.2953   -45849.273   0.14196659 
   29600    290.60972    -16.85552    132027.21   -42312.415    3547.3035   -45859.719   0.14798797 
   29800    292.07089   -154.38734    132279.33   -42238.062    3565.1391   -45803.201   0.14257545 
   30000     297.7575    50.632671    132082.14   -42226.368    3634.5523    -45860.92   0.14600134 
   30200    289.86936    138.72925    131920.29   -42238.472    3538.2664   -45776.738   0.14991749 
   30400    291.82996   -43.438456    132089.72    -42291.53    3562.1982   -45853.728    0.1431224 
   30600    290.08864   -63.226095    132138.97   -42235.902     3540.943   -45776.845    0.1451812 
   30800    292.18638    46.912094    131994.43   -42201.595    3566.5488   -45768.144   0.14764698 
   31000    288.29816    18.895183    132004.14   -42191.656    3519.0876   -45710.744   0.15185617 
   31200    289.36353   -71.792545    132137.11   -42195.015    3532.0919   -45727.107   0.14928624 
   31400    298.58033   -2.4275761    132122.72   -42191.385     3644.596   -45835.981   0.13935931 
   31600    285.90169    65.892691    131982.44   -42249.394    3489.8353   -45739.229   0.14607922 
   31800     294.3597    23.605698    132034.23   -42218.628    3593.0772   -45811.706   0.14350644 
   32000    292.97456    -101.1315    132144.66   -42193.103    3576.1696   -45769.273   0.15338879 
   32200    297.41272    45.628295    132061.48   -42222.476    3630.3437    -45852.82   0.14381653 
   32400    294.65551    91.022614    131968.56   -42222.488    3596.6881   -45819.176   0.14542475 
   32600    295.56032   -30.571257    132050.22    -42212.11    3607.7326   -45819.843   0.14929502 
   32800    294.41336   -47.407834    132118.02   -42202.693    3593.7323   -45796.425   0.14833438 
   33000    293.89761     52.20072    132051.65   -42193.546    3587.4369   -45780.983   0.14775662 
   33200    293.37883    40.337776    132034.88   -42192.929    3581.1044   -45774.033   0.15038233 
   33400    296.75926   -56.385227    132148.56   -42153.253    3622.3673    -45775.62   0.15128692 
   33600      297.236    -46.35479     132145.5   -42088.218    3628.1866   -45716.404   0.15710947 
   33800     297.5519     66.94393     132029.6   -42118.485    3632.0427   -45750.527     0.146874 
   34000     296.2723    44.888254    132066.22   -42155.834    3616.4233   -45772.257    0.1444259 
   34200    295.27149   -67.794766    132169.27   -42195.195     3604.207   -45799.402   0.14547133 
   34400    297.38024   -3.9335864    132086.28   -42250.114    3629.9473   -45880.061   0.14755153 
   34600    294.13743    84.555973    131974.94    -42213.73    3590.3642   -45804.094   0.14766113 
   34800    291.97069   -50.060893    132057.15   -42252.289    3563.9161   -45816.205   0.14712058 
   35000    290.33075   -31.029009    132106.57   -42284.703    3543.8983   -45828.601   0.14321609 
   35200    299.62214    42.863777    131972.66   -42279.097    3657.3128    -45936.41   0.14340326 
   35400    293.20002    108.52757    131934.18   -42248.127    3578.9218   -45827.049   0.14712729 
   35600    292.88689   -49.155522    132137.04   -42240.572    3575.0995   -45815.672   0.14598864 
   35800    287.35298   -119.84752    132164.08   -42239.058    3507.5504   -45746.609   0.14942705 
   36000    292.58969    130.42197    131896.88   -42239.159    3571.4718   -45810.631   0.14882193 
   36200    293.91589    119.71282    131902.54   -42252.114      3587.66   -45839.774   0.14577243 
   36400    292.60815     -155.443    132208.33   -42276.219    3571.6971   -45847.916   0.14127632 
   36600    292.95581   -87.308546    132186.98   -42250.706    3575.9409   -45826.647   0.14496279 
   36800    287.26635    180.37204     131861.5    -42290.77     3506.493   -45797.263   0.14963889 
   37000    283.33749    58.908579    131945.37   -42280.861    3458.5356   -45739.396   0.15223858 
   37200    289.76634   -228.57625       132321   -42243.509    3537.0088   -45780.518   0.14667113 
   37400    296.45826   -68.447187    132176.71   -42235.303    3618.6932   -45853.997   0.14204388 
   37600    290.31276    188.60545    131791.83   -42260.577    3543.6787   -45804.256    0.1498977 
   37800    298.03294    134.72949    132018.56   -42227.883    3637.9143   -45865.797   0.14622377 
   38000    289.93168   -259.46559    132443.35   -42277.689     3539.027   -45816.716   0.14432977 
   38200    287.98181   -72.382984    132121.51    -42271.88    3515.2261   -45787.106    0.1474476 
   38400    297.11153    366.78358       131701   -42239.114    3626.6673   -45865.781   0.14172213 
   38600    292.48078    -63.38858    132158.02   -42238.573    3570.1424   -45808.715   0.14478437 
   38800    288.03063   -358.50117    132515.08   -42284.444     3515.822   -45800.266   0.14647871 
   39000    287.39441    108.45597    131941.97   -42311.043    3508.0561     -45819.1   0.14380047 
   39200    295.87831    377.55625    131662.91   -42330.659    3611.6141   -45942.273   0.13980438 
   39400    288.64036   -221.60031     132296.4   -42322.807    3523.2646   -45846.071   0.14222544 
   39600    282.29495   -335.80605    132450.63   -42385.879      3445.81   -45831.689   0.13997992 
   39800    289.52966    258.77812    131782.81   -42376.211    3534.1199   -45910.331   0.13716804 
   40000    285.40394    277.96718    131738.69   -42392.724    3483.7596   -45876.484   0.13808117 
   40200    287.23369   -295.58791    132400.66    -42372.35    3506.0942   -45878.444   0.14218473 
   40400    290.98371   -231.24978    132317.42   -42360.767    3551.8685   -45912.635     0.139622 
   40600    280.55138    289.45184    131690.86   -42387.763    3424.5272    -45812.29   0.13978879 
   40800    283.20387    137.73464    131873.09   -42402.583    3456.9046   -45859.488   0.13788068 
   41000    289.24687   -295.82952     132413.8    -42364.28     3530.668   -45894.948   0.14110311 
   41200    290.58501    -101.0556    132158.29   -42388.359    3547.0018   -45935.361   0.14257011 
   41400    292.14526    291.27136    131697.64    -42360.74    3566.0469   -45926.787   0.13811143 
   41600    282.16746    37.391897    131996.35   -42354.327    3444.2537    -45798.58   0.14162562 
   41800    288.81802   -214.23526    132331.99   -42349.692    3525.4333   -45875.126   0.14088514 
   42000    286.06129  -0.83428078    132022.68   -42328.765    3491.7834   -45820.548   0.14640156 
   42200    285.83986    205.93488     131809.5   -42349.725    3489.0806   -45838.806   0.14544945 
   42400    287.23226   -67.027379    132146.27   -42398.137    3506.0768   -45904.214   0.13953148 
   42600    280.15769   -176.26684    132252.35   -42425.221    3419.7216   -45844.942   0.13983553 
   42800    285.14685    100.34184    131905.92    -42424.82    3480.6214   -45905.441   0.13909687 
   43000    289.76078    187.84703    131887.62   -42384.499     3536.941    -45921.44    0.1318869 
   43200    285.47455   -138.35176    132254.93   -42389.643    3484.6215   -45874.264   0.13636964 
   43400    284.85008   -97.345825    132200.25   -42376.417    3476.9989   -45853.416   0.13944721 
   43600    278.96719    167.26108    131879.67   -42374.863    3405.1899   -45780.053   0.13831603 
   43800     288.7519    86.202318    132014.63   -42345.852    3524.6261   -45870.478   0.13370559 
   44000    285.93167   -202.29855    132325.03   -42363.021    3490.2012   -45853.222    0.1326088 
   44200    282.59263   -47.555737    132110.34   -42418.396    3449.4435    -45867.84   0.13881965 
   44400    288.83553    191.56509    131812.06   -42398.473     3525.647    -45924.12   0.13971401 
   44600    288.86169   -21.869991    132058.54   -42331.085    3525.9663   -45857.051   0.14173069 
   44800    287.36697   -170.75734    132284.24   -42294.258    3507.7212   -45801.979   0.13946306 
   45000    286.84924    14.814324     132010.1   -42322.574    3501.4015   -45823.976   0.14108285 
   45200    291.08615    191.67603    131850.06   -42340.517    3553.1189   -45893.636   0.14113998 
   45400    287.20089   -63.279611     132142.2   -42390.684    3505.6938   -45896.378   0.14113147 
   45600    286.54952   -190.57387    132217.18   -42374.804     3497.743   -45872.547    0.1433165 
   45800    289.98605    102.77848    131912.22   -42346.431    3539.6907   -45886.122   0.14218143 
   46000    289.46888    134.17808    131921.71   -42344.279    3533.3779   -45877.657   0.13952335 
   46200    289.25265    -163.6547    132233.14   -42369.203    3530.7385   -45899.942    0.1411718 
   46400    290.79803   -74.209218     132175.4   -42355.447    3549.6021   -45905.049   0.13836605 
   46600    286.41056    71.834295     131923.1   -42360.411    3496.0467   -45856.457   0.14246147 
   46800    295.37333    94.303061    132018.17   -42323.698    3605.4501   -45929.148   0.13765386 
   47000    286.67039   -146.76734    132240.47   -42304.871    3499.2183   -45804.089   0.14240124 
   47200    292.06329   -7.5027456    132131.55   -42278.122    3565.0464   -45843.168   0.13751759 
   47400    295.94011    180.78867    131979.74   -42208.254    3612.3684   -45820.622   0.13581561 
   47600    294.05326    -14.37188    132134.87   -42183.752    3589.3368   -45773.089   0.14425958 
   47800    299.14121   -95.804832    132271.35   -42154.351    3651.4424   -45805.793    0.1428093 
   48000     293.0084   -6.1884966    132147.15   -42159.982    3576.5827   -45736.565   0.14370883 
   48200    297.00227    99.660699    132029.15   -42161.842    3625.3336   -45787.176   0.14188883 
   48400    292.82787    34.065691    132148.63   -42144.019    3574.3792   -45718.398   0.14108281 
   48600    288.15642   -123.15101    132260.99   -42201.977    3517.3575   -45719.334   0.14693308 
   48800    288.91164    63.481695    132104.97   -42147.611     3526.576   -45674.187    0.1453473 
   49000    296.78422    145.84762    132027.68    -42123.89     3622.672   -45746.562   0.14325991 
   49200    300.95244   -82.138412     132200.3   -42160.844     3673.551   -45834.395   0.14186705 
   49400    292.41556   -58.227862    132187.79   -42169.953    3569.3463     -45739.3   0.14820394 
   49600    293.82688    83.594666    132002.42   -42190.959    3586.5735   -45777.533   0.14969557 
   49800     294.4882    13.951272    132034.82   -42170.841    3594.6459   -45765.486   0.15317586 
   50000    294.48992   -105.19906    132212.97   -42168.013    3594.6668    -45762.68   0.14993742 
   50200    293.50801   -50.005763    132127.78   -42204.488    3582.6811   -45787.169   0.14664943 
   50400    295.16865    114.21179    131943.14   -42203.675    3602.9517   -45806.627   0.14250047 
   50600    296.03198    29.709901    132060.85   -42225.189    3613.4898   -45838.679   0.14219218 
   50800    287.06007   -138.38951     132208.1   -42232.418     3503.975   -45736.393   0.14959874 
   51000    294.71847    51.623275    132054.37   -42181.685    3597.4565   -45779.142   0.14618501 
   51200    291.34101    106.89785     131970.8   -42205.537    3556.2298   -45761.767   0.14260797 
   51400    296.60325   -76.821114    132145.87   -42170.117     3620.463    -45790.58   0.14132682 
   51600    294.84128   -76.499188    132191.49   -42172.837    3598.9557   -45771.792   0.13914907 
   51800    299.32718    74.342693     132019.8   -42170.941    3653.7124   -45824.653   0.14246749 
   52000    299.47929    100.93498     131999.7   -42123.652    3655.5691   -45779.221   0.14566919 
   52200    296.14343   -123.81651    132223.29   -42093.802    3614.8503   -45708.652   0.14945399 
   52400    298.16888   -141.74114    132242.11   -42081.242    3639.5738   -45720.816   0.14813337 
   52600    301.01715    175.57994    131943.65   -42119.167    3674.3409   -45793.508    0.1405348 
   52800    291.91321    75.103493    131970.64   -42138.374    3563.2144   -45701.588      0.14722 
   53000    296.26381   -166.75398    132275.36   -42144.919    3616.3196   -45761.239   0.14752185 
   53200    295.04603   -96.162909    132132.47   -42153.281    3601.4549   -45754.736   0.14929158 
   53400    300.29024    273.79714    131758.05    -42175.18    3665.4679   -45840.648   0.14647597 
   53600    294.79436    38.683606    131993.08   -42209.066     3598.383   -45807.449   0.14584002 
   53800    292.85696   -342.86717    132408.46   -42192.587    3574.7342   -45767.321   0.14832047 
   54000    296.53078    3.8488082    132045.92   -42182.987    3619.5784   -45802.566   0.14600113 
   54200    293.75969    377.43711    131644.17   -42189.447    3585.7533   -45775.201   0.15010107 
   54400    291.07089   -130.91033    132201.24   -42216.659    3552.9327   -45769.592   0.15111417 
   54600    293.61643    -409.1565     132554.8   -42208.305    3584.0046    -45792.31   0.14358282 
   54800    296.91959    206.41771    131854.05   -42155.568    3624.3244   -45779.892   0.14070311 
   55000    294.76746    393.04495    131625.01   -42157.546    3598.0545   -45755.601   0.14392822 
   55200    295.35254   -301.51527    132423.28   -42190.864    3605.1963   -45796.061   0.14795339 
   55400    293.73435   -333.09162    132489.36   -42210.243     3585.444   -45795.687   0.14720413 
   55600    290.93449     363.8059    131653.75   -42242.321    3551.2678   -45793.589   0.14501075 
   55800    291.55172    306.55066    131727.55   -42217.141    3558.8019   -45775.943   0.14203039 
   56000    292.36534   -391.35762    132543.56   -42200.386    3568.7333    -45769.12   0.14233961 
   56200    294.95863   -226.82245       132298   -42226.314     3600.388   -45826.702   0.14836959 
   56400    290.93076    439.10223    131568.11   -42231.226    3551.2223   -45782.448   0.14752585 
   56600    289.83823    85.232185    131928.18   -42238.073    3537.8864   -45775.959    0.1502504 
   56800    297.80468   -401.32975    132524.18   -42194.839    3635.1281   -45829.967   0.14718605 
   57000    298.78319   -12.380578    132083.89    -42189.75    3647.0723   -45836.822   0.14493648 
   57200    285.94854    359.58013    131631.44   -42224.021    3490.4072   -45714.428   0.15014247 
   57400    290.96941   -71.428052    132152.74   -42247.487     3551.694   -45799.181   0.14858815 
   57600    293.23587   -345.40409    132490.01   -42211.965    3579.3593   -45791.324   0.14742759 
   57800    292.57634    96.968196       131955   -42226.929    3571.3089   -45798.238   0.14883059 
   58000    295.01983    313.94729    131698.62   -42240.961    3601.1352   -45842.096   0.14747558 
   58200    294.01996    -95.20001    132225.89   -42280.811    3588.9303   -45869.741   0.14390668 
   58400    292.11604   -206.43181     132367.7   -42272.835    3565.6902   -45838.526   0.13838091 
   58600    290.70674    214.53882    131855.99   -42254.151    3548.4877   -45802.639   0.14249701 
   58800    290.18212     201.6278    131851.36   -42287.566     3542.084    -45829.65   0.14464883 
   59000    284.28327   -238.71633    132327.56   -42310.805    3470.0801   -45780.885   0.14752194 
   59200    286.43739   -153.95463    132220.31    -42310.77    3496.3742   -45807.144   0.14255627 
   59400    292.70163     243.5608    131797.83   -42257.244    3572.8382   -45830.082   0.13899077 
   59600    296.42162    109.34795    132003.98   -42254.583     3618.246   -45872.829    0.1341608 
   59800    289.44396   -261.79243    132377.62    -42240.59    3533.0738   -45773.664   0.14603334 
   60000    295.55574    9.5755494    132095.67   -42230.578    3607.6766   -45838.255   0.14314408 
   60200    296.14034    234.89028    131800.39   -42205.658    3614.8125   -45820.471   0.14339959 
   60400    290.05741   -19.667608    132122.48   -42176.738    3540.5618     -45717.3   0.14385559 
   60600    290.35707   -230.58881    132354.73    -42215.04    3544.2196    -45759.26   0.14400718 
   60800    297.89077    107.90433    131978.55    -42157.21     3636.179   -45793.389   0.14388537 
   61000    293.34158    226.15446    131841.41   -42196.982    3580.6497   -45777.632   0.14682432 
   61200    301.63841   -63.928864    132241.82   -42201.429    3681.9242   -45883.353   0.13980492 
   61400    292.83842   -162.38271    132329.91   -42197.796    3574.5079   -45772.304   0.14935044 
   61600    292.70548    192.52585    131931.18   -42189.304    3572.8852   -45762.189   0.14487422 
   61800    295.02149    144.17251    131913.75   -42189.742    3601.1554   -45790.898   0.14713419 
   62000     289.8622   -199.28169    132290.89   -42204.722    3538.1789   -45742.901     0.148752 
   62200    295.67248     -67.6247    132194.23   -42210.352    3609.1017   -45819.454   0.14177685 
   62400     291.6008    143.17417    131879.56   -42178.879     3559.401    -45738.28   0.15111289 
   62600    292.21591    27.120345    132049.87   -42201.684    3566.9093   -45768.594   0.14484002 
   62800    293.71218   -150.60335    132282.71   -42172.193    3585.1734   -45757.367   0.14329376 
   63000    295.72513   -30.430003     132052.2   -42146.719    3609.7443   -45756.464   0.14777778 
   63200    295.99936    194.05587    131877.84    -42150.82    3613.0916   -45763.912   0.14412484 
   63400    297.46513   -90.094716    132170.12   -42111.069    3630.9834   -45742.053   0.14829177 
   63600    299.25058   -184.62045    132295.41   -42090.102    3652.7774    -45742.88   0.14784282 
   63800    301.00841    113.25081    131972.38   -42117.059    3674.2343   -45791.293   0.14197643 
   64000    300.54147    148.30297    131924.42   -42121.824    3668.5345   -45790.358   0.14356654 
   64200    300.11007   -102.83554    132218.22   -42127.331    3663.2687     -45790.6   0.14589499 
   64400    303.32107   -63.006306    132207.44   -42111.032    3702.4635   -45813.496    0.1450648 
   64600    294.22939    91.016418    131916.35    -42161.47    3591.4867   -45752.956   0.15000914 
   64800    296.90335    112.32608    131931.33   -42173.372    3624.1261   -45797.498   0.14833724 
   65000    291.49932   -116.65575    132215.99   -42169.773    3558.1623   -45727.936   0.15068038 
   65200    295.97218   -77.682532       132181   -42192.114    3612.7599   -45804.874   0.15046833 
   65400    295.01568    129.14513    131919.19   -42211.502    3601.0845   -45812.587   0.14572088 
   65600    291.64695    67.680322    131992.05    -42239.21    3559.9643   -45799.175    0.1470743 
   65800    293.66213   -114.41161    132223.69   -42211.515    3584.5625   -45796.078   0.14884397 
   66000    295.44854   -18.839787    132105.56   -42208.211    3606.3681   -45814.579   0.14834967 
   66200    293.90322    111.76131    131904.09   -42240.417    3587.5053   -45827.922   0.14873024 
   66400    295.73865    5.8629777    132066.28   -42236.887    3609.9094   -45846.796   0.14255528 
   66600    293.64305   -134.56742    132261.79   -42251.114    3584.3296   -45835.444   0.14453979 
   66800    292.52953    16.860413    132038.99   -42226.736    3570.7374   -45797.473   0.14580096 
   67000       288.77     158.2539    131853.77   -42245.772     3524.847   -45770.619   0.14487799 
   67200    286.34565    9.1869607    132091.86   -42266.631    3495.2544   -45761.886   0.14549597 
   67400    289.31814   -160.65122    132214.66   -42298.966    3531.5379   -45830.503   0.14388149 
   67600    293.70164     90.25562    131962.31     -42257.3    3585.0448   -45842.344   0.14331475 
   67800    295.38263    62.353315    131907.17    -42209.52    3605.5636   -45815.083   0.15018457 
   68000    296.20463   -109.26617    132159.76   -42205.176    3615.5972   -45820.773    0.1450455 
   68200    288.32221      -121.32    132162.06   -42273.243    3519.3811   -45792.625   0.14363698 
   68400    293.94587    120.49196    131916.51    -42220.57    3588.0259   -45808.596   0.14834897 
   68600    287.73427    43.992868    131975.07   -42206.602    3512.2046   -45718.807   0.15478286 
   68800    294.39603   -116.09839    132231.95   -42176.728    3593.5207   -45770.249     0.149245 
   69000    294.50877   -83.707387    132172.21   -42219.978    3594.8969   -45814.875   0.14831206 
   69200    298.60909    156.77042    131926.22   -42226.318    3644.9471   -45871.265   0.14255179 
   69400    290.51773    27.267322    132036.02   -42263.668    3546.1807   -45809.848    0.1476217 
   69600    290.18172   -148.91935    132230.29   -42275.691    3542.0791    -45817.77   0.15015405 
   69800    291.88814   0.23540979    132055.44   -42244.728    3562.9084   -45807.636   0.14986128 
   70000    291.89403    128.39033    131902.32   -42205.686    3562.9803   -45768.666   0.15027269 
   70200     295.0685   -39.354857    132119.44   -42203.534    3601.7291   -45805.263    0.1457242 
   70400    293.04408   -104.21832    132224.09   -42208.462    3577.0183   -45785.481   0.14272539 
   70600    296.15911     87.76179    131977.86   -42182.755    3615.0417   -45797.797   0.14583671 
   70800    294.73865    140.96314    131935.91   -42205.124    3597.7029   -45802.827   0.14252686 
   71000    291.09607   -107.89451    132219.54   -42246.108      3553.24   -45799.348    0.1426238 
   71200     291.4931   -102.88116    132182.05    -42251.67    3558.0863   -45809.756   0.14255371 
   71400    295.07416    187.81568    131867.64   -42224.339    3601.7982   -45826.137   0.14256405 
   71600    295.68309    46.975088    132045.36   -42204.951    3609.2312   -45814.182   0.14160305 
   71800    294.32603   -264.04623    132413.64   -42216.186    3592.6663   -45808.852   0.14212007 
   72000    289.91644    -72.19239    132108.47    -42248.34     3538.841   -45787.181   0.14893934 
   72200    293.05384    326.65379    131700.58    -42279.96    3577.1374   -45857.097   0.13915274 
   72400    292.68259   -13.777883     132102.3   -42257.905    3572.6057   -45830.511   0.14329622 
   72600    289.92339   -344.03362    132479.86   -42232.875    3538.9259   -45771.801   0.14583065 
   72800     289.4377    34.095085    131958.08   -42300.671    3532.9973   -45833.669   0.14746539 
   73000     288.6498    365.90542     131638.4   -42304.108    3523.3798   -45827.488   0.14952315 
   73200    289.93881   -186.84578    132266.96   -42326.135     3539.114   -45865.249   0.14499266 
   73400    289.69006   -383.23963    132465.55   -42304.278    3536.0777   -45840.356   0.14826823 
   73600    288.47949    233.46743    131747.41   -42289.793    3521.3009   -45811.094   0.14527523 
   73800    290.18941    309.55823    131700.66    -42291.56     3542.173   -45833.733   0.14618166 
   74000     290.9659   -326.48081    132441.27   -42324.651    3551.6512   -45876.302   0.14278729 
   74200    292.27714   -232.38348    132315.42   -42331.218    3567.6567   -45898.875   0.14200912 
   74400    289.87922    370.83994    131647.72    -42299.22    3538.3867   -45837.607   0.14044719 
   74600    290.36787    143.32787    131932.54   -42312.284    3544.3513   -45856.636    0.1369814 
   74800    289.66119   -398.99402    132538.91   -42324.365    3535.7253    -45860.09   0.14012508 
   75000    288.15834   -4.8795043    132139.37   -42293.302    3517.3808   -45810.683   0.13835743 
   75200    291.42153    361.20484    131678.81   -42271.332    3557.2127   -45828.544   0.14068238 
   75400    287.84175   -36.879031    132148.65   -42268.763    3513.5164    -45782.28   0.14201438 
   75600    288.85532    -329.5833    132514.15   -42241.082    3525.8885    -45766.97    0.1416426 
   75800    293.68931    57.793561    132044.16   -42215.699    3584.8942   -45800.593   0.14077398 
   76000    290.27233    306.27659    131808.03   -42210.405    3543.1852    -45753.59   0.14179851 
   76200    290.84743   -132.47219    132241.44   -42234.438    3550.2051   -45784.643   0.14209038 
   76400    291.67205    -161.6907    132336.41   -42205.501    3560.2707   -45765.771   0.14422711 
   76600    292.50214    192.23923    131945.64   -42194.016    3570.4031   -45764.419   0.14370847 
   76800    293.16934    123.95547    131916.42   -42188.507    3578.5473   -45767.054   0.14913796 
   77000    290.66473    -141.1249    132244.16    -42198.24    3547.9749   -45746.215   0.14828042 
   77200     289.4138   -91.851953    132209.19   -42241.748    3532.7056   -45774.454   0.14598078 
   77400    292.67005    159.84338    131913.55   -42219.611    3572.4527   -45792.064   0.14854913 
   77600    295.76711    75.348333    132019.94   -42247.517    3610.2568   -45857.773   0.14169706 
   77800    288.66201   -187.61237    132238.64   -42255.652    3523.5289   -45779.181   0.14923561 
   78000    285.73217   -60.479733    132067.08    -42257.56     3487.766   -45745.326   0.14795416 
   78200    292.98311    173.58381    131863.31   -42246.792    3576.2741   -45823.066   0.15000586 
   78400     294.4251    42.407923     132080.8   -42274.982    3593.8756   -45868.857   0.14260018 
   78600     290.6008   -140.48002    132229.02   -42281.365    3547.1946    -45828.56   0.14207947 
   78800    293.99765    66.249569    131976.44     -42260.7    3588.6579   -45849.358   0.14250549 
   79000    285.73289    108.70049    131864.72   -42254.323    3487.7749   -45742.098   0.14532724 
   79200    291.84447    -32.27732    132124.57   -42259.085    3562.3753    -45821.46   0.14635737 
   79400    290.99671   -109.86539     132222.4   -42213.328    3552.0273   -45765.355   0.14967885 
   79600    295.67812    74.168015    132000.28    -42211.03    3609.1704     -45820.2   0.14132418 
   79800    299.22683    100.09775    131980.89   -42232.412    3652.4875   -45884.899   0.14290233 
   80000    297.64906    -70.44394    132159.96   -42211.993    3633.2286   -45845.222   0.14268568 
   80200    292.36466    -61.65496    132153.54   -42167.278     3568.725   -45736.003   0.14794469 
   80400    297.66865     46.01425     132047.8   -42154.918    3633.4677   -45788.386   0.14658355 
   80600    299.21881    55.320299    132082.18   -42174.107    3652.3896   -45826.496   0.14322507 
   80800    299.49069   -38.371442    132152.45   -42124.492    3655.7083     -45780.2   0.15021895 
   81000    293.37318   -49.798791    132097.42   -42177.513    3581.0354   -45758.549   0.14855787 
   81200    293.24191    49.184622    132018.03   -42156.294     3579.433   -45735.727   0.14885004 
   81400     297.4099 -0.025275554    132056.02   -42128.163    3630.3093   -45758.472   0.15251673 
   81600    294.69348   -48.602343    132125.42    -42144.55    3597.1515   -45741.701    0.1513201 
   81800     299.5716   -22.863496     132099.3   -42151.967     3656.696   -45808.663   0.15110339 
   82000    295.89556    41.895187    132033.75   -42122.668    3611.8247   -45734.493   0.14985904 
   82200    292.33927    5.8631357    132048.04    -42166.51    3568.4151   -45734.925   0.15024624 
   82400    291.62706    -45.69682    132096.39   -42174.873    3559.7215   -45734.595   0.14733626 
   82600    295.84616    4.9294981    132069.47   -42200.709    3611.2216    -45811.93   0.14560331 
   82800    293.55895    8.4716618    132035.27   -42240.698     3583.303   -45824.001   0.14602292 
   83000    298.23254   -10.079123    132068.21   -42228.218    3640.3508   -45868.569   0.14455306 
   83200    286.10275   -75.663494    132104.51   -42242.899    3492.2895   -45735.188   0.14551751 
   83400     290.3076    27.977534    132036.55    -42268.28    3543.6156   -45811.896   0.14133123 
   83600    293.59965    53.327208    132000.44    -42281.29    3583.7999    -45865.09    0.1395035 
   83800    292.78506   -32.241073       132072   -42229.376    3573.8566   -45803.232   0.14603303 
   84000    292.66125    2.0750005    132107.51   -42255.085    3572.3453    -45827.43   0.14246922 
   84200    289.64199   -19.105671     132049.8   -42238.192     3535.491   -45773.683   0.14673603 
   84400    295.14546    53.078914    132018.49   -42255.614    3602.6686   -45858.282   0.14312808 
   84600    291.62532   -11.556524    132067.97   -42246.948    3559.7003   -45806.649   0.14411465 
   84800    285.97509   -74.476915    132115.88   -42263.307    3490.7313   -45754.038    0.1450099 
   85000    294.41699    12.760106    132078.58   -42223.733    3593.7766    -45817.51   0.14415646 
   85200     294.5348    30.000864    132035.68   -42194.197    3595.2146   -45789.411   0.14749314 
   85400    293.94569   -11.682464    132091.95   -42175.956    3588.0237    -45763.98    0.1493332 
   85600    299.64075    8.0908049    132125.57   -42184.691    3657.5399   -45842.231   0.13975384 
   85800    297.16701    45.031087    132063.18   -42188.773    3627.3445   -45816.117   0.14087372 
   86000    297.47283     28.96557    132075.38   -42151.677    3631.0774   -45782.755   0.14277598 
   86200    295.05323   -70.770848    132171.19   -42161.673    3601.5428   -45763.216   0.14462251 
   86400     291.1948   -1.9907245    132094.93   -42158.175    3554.4452    -45712.62   0.14894402 
   86600    299.10691    89.694717     131983.5   -42142.497    3651.0237    -45793.52   0.14512713 
   86800    298.06124    21.831042    132101.51   -42181.619    3638.2598   -45819.879     0.139818 
   87000    293.27908   -110.84095    132237.29   -42198.317    3579.8868   -45778.204   0.14364785 
   87200    294.41634    37.690954    132065.64   -42175.566    3593.7687   -45769.335    0.1413479 
   87400    298.78145    159.47794    131936.18   -42147.292     3647.051   -45794.343    0.1442974 
   87600    295.96154   -21.329595    132159.02   -42195.679      3612.63   -45808.309   0.14293741 
   87800     292.4016   -166.89877    132286.22   -42208.625    3569.1759   -45777.801   0.14612375 
   88000    292.85484    116.55271    131994.07   -42168.481    3574.7084    -45743.19   0.14419801 
   88200    292.79082     191.1856    131904.52   -42191.858    3573.9269   -45765.785    0.1421452 
   88400    293.42673   -144.97071    132243.92   -42180.196    3581.6891   -45761.885   0.14755574 
   88600    298.18528   -196.89111    132270.45   -42198.812     3639.774   -45838.586   0.14610136 
   88800    290.67329    173.19124    131849.49   -42195.303    3548.0795   -45743.382    0.1512225 
   89000    301.62112    190.29327    131899.48   -42210.854    3681.7132   -45892.567   0.13964323 
   89200    295.14173   -222.35527    132343.08   -42184.425    3602.6231   -45787.048   0.14295288 
   89400    298.17714   -77.496905    132205.35   -42152.385    3639.6745   -45792.059   0.14198348 
   89600    290.28584      248.294     131795.5   -42181.253      3543.35   -45724.603   0.14756545 
   89800    292.76066    23.726105    132014.97   -42203.088    3573.5588   -45776.646   0.15528992 
   90000    293.60614   -229.77297     132377.3   -42214.958     3583.879   -45798.837   0.14551019 
   90200    293.91987   -2.7150578    132074.54   -42257.809    3587.7086   -45845.518   0.13986855 
   90400    288.42411    318.76832    131708.71   -42283.448     3520.625   -45804.073   0.14543285 
   90600    290.50857   -35.355793    132075.66   -42269.392    3546.0687   -45815.461   0.13998303 
   90800    294.78847   -250.18231    132375.28   -42283.772    3598.3111   -45882.083   0.14562028 
   91000    292.70243    136.57872    131952.22   -42282.983     3572.848   -45855.831   0.14054871 
   91200     289.9219    237.79857    131729.92   -42295.185    3538.9076   -45834.093   0.14637521 
   91400    293.72782    -114.5674    132195.67   -42288.941    3585.3643   -45874.305   0.13945963 
   91600    294.38518   -259.55173    132302.17   -42294.472    3593.3884   -45887.861   0.14067545 
   91800     290.6925    235.16601    131774.73   -42267.302    3548.3139   -45815.616   0.14492943 
   92000    292.19475    213.55229    131814.85   -42282.814     3566.651   -45849.465   0.14117889 
   92200    290.16571   -291.64931    132368.47   -42301.128    3541.8837   -45843.012   0.14396141 
   92400     290.3889   -108.44066    132185.01    -42256.85    3544.6081   -45801.458   0.14683466 
   92600    289.62432    288.30584    131697.32   -42310.889    3535.2752   -45846.164   0.13995163 
   92800    288.01262    57.682302    131960.19   -42286.552    3515.6022   -45802.154   0.14611005 
   93000    293.24454   -283.60765     132370.3   -42218.446    3579.4652   -45797.911   0.14562867 
   93200    289.90393   -5.5981518    132051.55   -42219.934    3538.6883   -45758.623   0.14961618 
   93400     293.7723    248.20369    131720.42   -42220.533    3585.9073    -45806.44   0.15149852 
   93600    294.11515   -18.347031    132112.97   -42204.186    3590.0922   -45794.278   0.14670383 
   93800    291.67101   -222.53338    132373.82   -42202.371     3560.258   -45762.629   0.14790489 
   94000    300.02405    85.064813     131930.8   -42207.073    3662.2187   -45869.292   0.14536986 
   94200    290.33547    203.64185     131729.6   -42280.728    3543.9559   -45824.684   0.15063841 
   94400    296.27925   -76.309034    132156.99   -42266.901    3616.5082   -45883.409   0.14061483 
   94600      296.544   -194.44993    132278.37   -42259.743    3619.7398   -45879.482   0.14413319 
   94800    285.92885    145.21869    131877.78   -42313.924    3490.1668   -45804.091   0.14891097 
   95000    288.13508     135.5255    131866.48   -42322.612     3517.097   -45839.709   0.14548014 
   95200     287.4268   -158.69484    132212.87   -42323.459    3508.4514    -45831.91   0.14214932 
   95400    288.00571   -42.864157    132147.23   -42339.979    3515.5178   -45855.497   0.13622715 
   95600      292.532    144.16766    131875.83   -42299.566    3570.7676   -45870.333    0.1413629 
   95800    288.88374    64.776621    131974.84   -42266.625    3526.2355   -45792.861   0.14547024 
   96000    285.78539   -118.30201    132183.68   -42262.392    3488.4157   -45750.807   0.14991696 
   96200    286.09682   -51.008145    132078.31   -42290.799    3492.2171   -45783.016   0.14836087 
   96400    287.74082    76.049509    131924.17     -42287.2    3512.2845   -45799.484   0.14563214 
   96600    287.45997    0.7845219    132027.57   -42299.918    3508.8563   -45808.775   0.14992787 
   96800    287.65986   -103.27854    132137.67   -42351.102    3511.2963   -45862.398   0.14392934 
   97000    285.90344   -3.5618637    132014.83   -42337.179    3489.8567   -45827.036   0.14449898 
   97200    292.43937    53.178534    131978.21   -42328.007    3569.6369   -45897.644   0.14521479 
   97400    289.15166   -39.506355    132117.97   -42284.498    3529.5058   -45814.004   0.14593409 
   97600    291.89174   -45.295169    132130.45   -42259.654    3562.9523   -45822.606   0.14534085 
   97800    292.86482     32.84607    132002.92   -42256.024    3574.8301   -45830.854   0.14372278 
   98000    291.29905    29.266125     132012.7   -42229.842    3555.7178   -45785.559   0.14622782 
   98200    294.93235   -83.753944       132162   -42241.201    3600.0673   -45841.269   0.14423479 
   98400    298.19242   -5.1367262    132124.06   -42174.973    3639.8611   -45814.834   0.14331968 
   98600    291.22737    63.685821    131986.92   -42220.564    3554.8427   -45775.407   0.14486197 
   98800    297.36469    73.031597    132045.73   -42185.927    3629.7575   -45815.684   0.14044046 
   99000    287.21918   -85.515929    132180.86   -42187.589    3505.9172   -45693.506   0.14573151 
   99200    294.79677   -8.7203203    132076.15   -42255.331    3598.4123   -45853.744   0.14485772 
   99400    288.14162    112.70312    131928.23   -42339.877    3517.1768   -45857.054   0.14343424 
   99600    286.14983     33.50668    132004.85   -42360.742    3492.8642   -45853.606   0.14011097 
   99800    292.12223   -47.448427    132097.81   -42328.428    3565.7658   -45894.194    0.1403572 
  100000     291.9434    27.561419    132012.45   -42334.458    3563.5829   -45898.041   0.13936302 
  100200    290.52379    80.783758    131917.83   -42296.581    3546.2545   -45842.836   0.14282513 
  100400     289.9665   0.45800575    132027.11   -42277.728     3539.452    -45817.18   0.14927595 
  100600    289.75815   -107.81068    132154.08    -42234.32    3536.9088   -45771.229    0.1520093 
  100800    292.56403    37.062035    132011.04   -42264.388    3571.1586   -45835.547   0.14384549 
  101000    294.56641    105.60219    131898.35   -42256.323    3595.6005   -45851.924    0.1420107 
  101200     301.7262    2.8302563    132081.21   -42223.199    3682.9958   -45906.194   0.13894121 
  101400    293.92825   -137.24536    132179.34   -42243.541    3587.8108   -45831.352    0.1475274 
  101600    295.16106    105.19683    131955.83   -42251.806    3602.8591   -45854.665   0.14589005 
  101800    289.74789     127.9597    131893.89   -42221.735    3536.7836   -45758.519   0.15207639 
  102000    287.26077   -161.80346    132180.03   -42230.935    3506.4247    -45737.36   0.15024808 
  102200    292.21101   -116.57752    132204.25   -42214.491    3566.8495   -45781.341   0.14458639 
  102400    303.36107    154.34404       131903   -42166.402    3702.9518   -45869.353   0.14345276 
  102600    295.18448    111.05617     131943.5    -42168.66    3603.1449   -45771.805   0.14859184 
  102800    297.80396   -209.59235    132315.96   -42186.613    3635.1193   -45821.732   0.14718698 
  103000    293.46228   -119.26665    132161.19   -42179.781     3582.123   -45761.904   0.14710123 
  103200    294.20937    282.67401    131709.16   -42161.471    3591.2423   -45752.713   0.14629541 
  103400    296.79277    80.298373    132002.98   -42191.694    3622.7764   -45814.471   0.14263751 
  103600    292.56366   -371.17022    132512.12   -42196.287    3571.1541   -45767.441   0.14510654 
  103800    293.58086   -15.117408    132099.61   -42193.458    3583.5705   -45777.029   0.15010583 
  104000    293.52821    399.08314    131612.97   -42205.669    3582.9277   -45788.597   0.15000681 
  104200    293.15336   -88.751315    132165.39   -42217.015    3578.3522   -45795.367   0.14752835 
  104400    289.95703   -443.99588    132579.08   -42235.783    3539.3365    -45775.12   0.14842495 
  104600    297.74209    156.38524    131919.52   -42225.933    3634.3642   -45860.297   0.14402833 
  104800    290.35512    376.96809    131629.08   -42220.657    3544.1958   -45764.853   0.15236916 
  105000    289.66053   -235.66061    132324.97   -42251.912    3535.7173   -45787.629   0.15052155 
  105200    295.08486   -316.68528    132481.22   -42248.684    3601.9289   -45850.613   0.14877502 
  105400    294.76669     279.5356    131794.43   -42242.839    3598.0452   -45840.885   0.14419761 
  105600    296.88676    279.56005    131776.04   -42239.214    3623.9237   -45863.138   0.14256799 
  105800    290.95916   -284.56928    132415.86   -42259.554    3551.5688   -45811.122   0.14566427 
  106000    293.22589   -162.71165    132337.41   -42217.849    3579.2375   -45797.087   0.14584869 
  106200    286.65403    289.96984    131746.42   -42200.868    3499.0187   -45699.887    0.1551589 
  106400     296.6896    152.43969    131921.98   -42233.683     3621.517     -45855.2   0.14431008 
  106600     293.8337   -283.62804     132419.6   -42233.322    3586.6568   -45819.978   0.14520193 
  106800    294.84923   -44.381699     132143.3   -42227.799    3599.0526   -45826.852   0.14392439 
  107000    290.50634    283.63523    131752.72   -42186.059    3546.0416     -45732.1   0.14959178 
  107200    299.31345    41.711717    132094.37   -42176.731    3653.5448   -45830.276   0.14595142 
  107400     293.4137   -285.45458     132400.1   -42181.789    3581.5301   -45763.319   0.14725603 
  107600    295.97309     81.58893    132047.04   -42161.333     3612.771   -45774.104   0.14538841 
  107800    296.87162    214.73892    131864.65   -42182.174    3623.7388   -45805.913   0.15004325 
  108000    297.84866   -113.24944    132206.78   -42159.993     3635.665   -45795.658   0.14821313 
  108200    292.68727   -158.83049    132288.69    -42190.92    3572.6629   -45763.583   0.15297628 
  108400    295.11658    120.15118    131961.87    -42188.36    3602.3161   -45790.677   0.14631766 
  108600    295.29804    122.23742    131962.57   -42165.833    3604.5311   -45770.364   0.14533341 
  108800    293.37404   -122.85666    132281.34   -42181.972    3581.0459   -45763.018    0.1476008 
  109000    289.13688   -99.725445    132221.47   -42215.507    3529.3254   -45744.832   0.15168789 
  109200    295.07986     154.4154     131905.1   -42225.372    3601.8679    -45827.24   0.14916435 
  109400    292.74416     105.7487    131971.98   -42204.609    3573.3573   -45777.966   0.14961823 
  109600    294.56982   -79.848244    132259.39   -42170.023    3595.6421   -45765.665   0.14119747 
  109800    293.42006   -40.841768    132174.66   -42222.311    3581.6077   -45803.918   0.14424245 
  110000    292.96516     182.7521    131923.76    -42157.66    3576.0549   -45733.715   0.14779011 
  110200     300.6335    38.888666    132066.14    -42147.65    3669.6579   -45817.308   0.14791297 
  110400    288.86719   -214.33384    132310.97   -42196.489    3526.0334   -45722.523   0.14804076 
  110600    292.70934    2.3700836    132109.94   -42269.082    3572.9323   -45842.014   0.13965053 
  110800    292.32809    137.63015    131883.05   -42263.649    3568.2786   -45831.927   0.14462448 
  111000    288.99654    2.4342462     132078.4   -42265.579    3527.6124   -45793.191   0.14748617 
  111200    296.31413   -135.93489    132249.11   -42248.258    3616.9339   -45865.192   0.14457988 
  111400    292.97738    28.913145    132029.77   -42298.831    3576.2041   -45875.035   0.14553746 
  111600    292.34315    163.98878    131884.18   -42342.456    3568.4625   -45910.918   0.14229524 
  111800    286.49122   -23.853567    132103.77   -42373.345    3497.0313   -45870.376   0.14076933 
  112000     286.3424   -129.03954    132197.56   -42372.902    3495.2147   -45868.117   0.14591309 
  112200     290.9451    83.491122    131953.17   -42325.318    3551.3973   -45876.715   0.14682613 
  112400    291.38148    109.45089    131952.89   -42305.287    3556.7239   -45862.011   0.14743728 
  112600     290.9731   -108.00331    132196.49   -42280.205     3551.739   -45831.944   0.14599183 
  112800    285.10339   -89.382372    132149.64   -42296.891    3480.0909   -45776.982   0.14547352 
  113000     295.5336    118.26974    131937.06   -42277.005    3607.4064   -45884.411   0.14043553 
  113200    285.23481    16.168113    132007.89   -42308.854    3481.6951    -45790.55   0.14803763 
  113400    285.41441   -130.51569    132181.76   -42289.533    3483.8874    -45773.42   0.15387148 
  113600    291.53143   -25.897616    132085.45   -42294.569    3558.5543   -45853.123   0.14627969 
  113800    290.55678     83.98792    131954.85   -42278.498    3546.6573   -45825.156   0.14336102 
  114000    297.91723    16.543752    132053.82   -42265.542    3636.5019   -45902.044   0.13944207 
  114200     293.5087   -91.582475    132126.82   -42276.296    3582.6896   -45858.986   0.14641294 
  114400    293.00258    20.774119    131993.47   -42219.633    3576.5117   -45796.144   0.15503694 
  114600     295.8933    57.357949    132004.76   -42196.646    3611.7971   -45808.443   0.14977509 
  114800    290.37311   -95.729949    132146.89   -42167.718    3544.4153   -45712.133    0.1495454 
  115000    290.58307   -49.644453    132106.73   -42191.005    3546.9782   -45737.983   0.15107708 
  115200    292.28577    63.110938    131980.25   -42217.151     3567.762   -45784.913   0.14904792 
  115400    293.85042    17.052673    132017.06   -42234.654    3586.8608   -45821.514   0.14988471 
  115600    298.38569   -56.372173    132121.09   -42212.984    3642.2201   -45855.204   0.14547365 
  115800    292.54519    2.4274122    132046.57    -42229.93    3570.9286   -45800.859   0.14641437 
  116000    292.59391    88.803733     131981.8   -42220.231    3571.5233   -45791.754   0.14734603 
  116200    291.23843   -29.478879    132077.28   -42235.277    3554.9777   -45790.255   0.14660751 
  116400    294.05315   -110.17514    132113.61   -42284.809    3589.3354   -45874.144   0.14675295 
  116600    293.11851    13.354814    132003.97   -42301.389    3577.9268   -45879.316   0.14519147 
  116800    294.04076     34.69011    131982.82   -42248.685    3589.1842   -45837.869   0.14897883 
  117000    287.87834   -77.337594     132101.5   -42270.472    3513.9631   -45784.435    0.1513861 
  117200     288.0975   -30.393681    132109.37   -42266.266    3516.6382   -45782.904   0.14485668 
  117400    291.16012   -2.9591349    131995.54   -42279.175    3554.0219   -45833.197   0.14585278 
  117600    294.32328    45.492029    131991.28    -42252.87    3592.6328   -45845.503   0.14637937 
  117800    287.90042   -52.734139    132144.72   -42216.068    3514.2326   -45730.301   0.15420523 
  118000    296.43478    -9.088412    132161.18   -42206.116    3618.4065   -45824.523   0.14377872 
  118200    293.58722    58.527165    132013.09   -42246.705     3583.648   -45830.353   0.14203417 
  118400    286.65657     70.44154    131992.37   -42279.914    3499.0496   -45778.964   0.14423889 
  118600    291.55299   -46.660001     132138.1   -42307.493    3558.8174   -45866.311    0.1461966 
  118800     286.2381   -60.363365    132090.89   -42344.776    3493.9417   -45838.718   0.14713596 
  119000    286.23784    83.729904    131870.96   -42354.529    3493.9385   -45848.468   0.14632552 
  119200    284.53318    67.320467    131934.97   -42356.398    3473.1307   -45829.529   0.14426589 
  119400    283.19413   -172.94121       132163   -42387.669    3456.7857   -45844.455   0.14861561 
  119600    288.87303    4.6423159    132032.04   -42327.309    3526.1047   -45853.414   0.14611118 
  119800    287.37829    206.89344    131770.22   -42319.483    3507.8592   -45827.342   0.14549759 
  120000    289.33184   -2.6463247    132007.28    -42346.51    3531.7051   -45878.215    0.1427797 
  120200    285.61849   -251.36579    132291.43   -42318.677    3486.3784   -45805.056   0.14895064 
  120400    290.56485    37.424814    131988.29   -42355.126    3546.7558   -45901.882   0.14426396 
  120600    286.05711    261.18848    131718.88     -42340.2    3491.7324   -45831.932    0.1457805 
  120800    287.18073   -85.200826    132125.32   -42341.497    3505.4478   -45846.945   0.14633003 
  121000    292.22672   -265.08882    132340.18   -42327.247    3567.0412   -45894.288   0.14630922 
  121200    292.50687    167.93619    131829.77    -42334.72    3570.4609   -45905.181   0.14549764 
  121400     290.3849    322.10637    131683.87   -42325.558    3544.5592   -45870.118    0.1420653 
  121600    293.47298   -143.57645    132244.69   -42317.169    3582.2536   -45899.423   0.14229579 
  121800     283.4436   -299.33821     132298.9   -42313.421    3459.8309   -45773.252   0.15686195 
  122000     295.4818    254.91424    131726.69    -42294.48    3606.7741   -45901.254   0.14672982 
  122200    289.92276    179.73573    131783.13   -42268.845    3538.9182   -45807.763   0.14857841 
  122400    287.76869   -298.81908    132335.04   -42227.771    3512.6246   -45740.395   0.14963546 
  122600    295.75432   -135.34782    132200.88   -42147.652    3610.1006   -45757.753   0.15159114 
  122800    294.17743    307.83361    131714.02    -42143.83    3590.8524   -45734.682   0.15330948 
  123000    295.94537    84.950046    131941.67   -42181.098    3612.4326    -45793.53   0.15251828 
  123200    296.15117    -245.1794    132369.44   -42204.916    3614.9447   -45819.861   0.14399967 
  123400    286.65706   -86.120042    132062.53   -42286.503    3499.0557   -45785.558   0.14897136 
  123600    291.17141    273.90367    131673.74   -42243.466    3554.1597   -45797.626   0.14791285 
  123800    292.32414   -64.093601    132063.31   -42257.686    3568.2304   -45825.916   0.14886074 
  124000    294.14267   -269.48659     132372.5   -42236.258    3590.4281   -45826.686   0.14628531 
  124200    290.66609    80.268555    131956.63   -42226.039    3547.9916   -45774.031    0.1476234 
  124400    295.23247    304.09601    131751.79   -42247.699    3603.7307   -45851.429   0.14409068 
  124600    284.91853   -136.22493    132190.14   -42260.961    3477.8344   -45738.796   0.14818919 
  124800    291.88039   -193.74187    132308.68   -42267.625    3562.8138   -45830.438   0.14363022 
  125000    291.96263    154.28462    131899.78   -42280.302    3563.8176    -45844.12   0.14809578 
  125200    290.40668    159.93036    131863.53   -42269.587    3544.8251   -45814.412   0.14963949 
  125400     286.1063   -220.46505    132280.38   -42321.561    3492.3329   -45813.894   0.15146279 
  125600    286.43198   -145.48492    132221.23   -42332.428    3496.3082   -45828.737    0.1438168 
  125800    288.41083     193.2724    131802.54   -42305.834    3520.4629   -45826.297   0.14352746 
  126000    295.73182    105.14846    131943.07   -42294.885    3609.8259   -45904.711    0.1450212 
  126200    293.48563   -236.35966     132366.4   -42267.883     3582.408   -45850.291   0.14982218 
  126400    286.73714   -68.338685    132178.01   -42297.534    3500.0332   -45797.567   0.14982924 
  126600    292.09722    245.19721     131772.9   -42307.595    3565.4605   -45873.055   0.14345189 
  126800    293.33222    82.882665    131978.49   -42289.084    3580.5354   -45869.619   0.14184922 
  127000     289.6336   -243.89942    132334.22   -42309.188    3535.3886   -45844.576   0.14736743 
  127200    287.00868   -31.663639    132091.41   -42341.969    3503.3477   -45845.317   0.14433622 
  127400    287.74189    195.24989     131793.9   -42333.484    3512.2975   -45845.781   0.14492769 
  127600    288.45548   -27.683805    132052.88    -42330.68    3521.0079   -45851.688   0.14411179 
  127800    290.80215   -191.86153     132263.1    -42331.48    3549.6523   -45881.132   0.14108116 
  128000    291.22683    42.480843    131994.68   -42309.858    3554.8362   -45864.694   0.14404899 
  128200    292.60459    179.71141    131879.89   -42278.119    3571.6536   -45849.773   0.13880593 
  128400    285.39133   -53.438198     132159.7   -42311.571    3483.6056   -45795.176   0.14767387 
  128600    286.31684   -180.49428    132224.84   -42329.482    3494.9028   -45824.385   0.14930288 
  128800    284.71289    64.987474    131927.96   -42386.841    3475.3243   -45862.166   0.14466533 
  129000    290.19246    134.58716    131873.76   -42405.472    3542.2103   -45947.683    0.1398589 
  129200     288.1346   -118.90121    132109.33   -42383.174    3517.0912   -45900.266   0.14584627 
  129400    286.98388   -71.372875     132092.1   -42372.831    3503.0449   -45875.876   0.14994632 
  129600    285.47115    74.299894    131894.46   -42357.076    3484.5799   -45841.656   0.15300336 
  129800    287.71584    53.455407    131929.65   -42366.618    3511.9796   -45878.598   0.14624984 
  130000    288.48539   -69.660936    132063.47   -42388.573    3521.3731   -45909.946   0.14231625 
  130200    287.32617   -53.963009    132018.21   -42390.917    3507.2231    -45898.14   0.14512995 
  130400    286.96019    45.220731    131912.57    -42386.15    3502.7558   -45888.906   0.15067156 
  130600      287.337    29.759521    132001.59   -42343.091    3507.3553   -45850.446   0.14332946 
  130800    287.19887   -94.007478    132128.48   -42363.181    3505.6692    -45868.85   0.14383091 
  131000    287.23771    29.347159     132022.9   -42387.436    3506.1434   -45893.579   0.14457983 
  131200    286.18855    83.355969    131920.84   -42355.404    3493.3368   -45848.741   0.14858018 
  131400    287.99661   -48.997547    132050.81    -42365.45    3515.4067   -45880.857   0.14394988 
  131600     290.7509   -72.765468    132110.81   -42351.858    3549.0268   -45900.884   0.14031664 
  131800    286.69989    69.552358    131969.83    -42328.42    3499.5784   -45827.999   0.14327564 
  132000    290.43631    62.547115    131973.42   -42282.228    3545.1868   -45827.415   0.14911804 
  132200    286.08444   -65.790095    132124.29   -42300.035    3492.0661   -45792.101   0.14906744 
  132400    287.51508   -67.499302     132105.1   -42307.882     3509.529   -45817.411   0.14426789 
  132600    291.34554    67.429327    131959.59    -42268.79    3556.2852   -45825.075   0.14651436 
  132800    291.25537    17.586185    132017.94   -42247.584    3555.1845   -45802.769   0.14833023 
  133000    292.48451   -101.01228    132167.45   -42234.199     3570.188   -45804.387   0.14852271 
  133200    295.63427   -11.506423    132075.72   -42207.329    3608.6352   -45815.964   0.14860329 
  133400    294.64532    101.59971     131962.9   -42183.524    3596.5637   -45780.087   0.14456488 
  133600    288.85357    -28.95246    132053.02   -42187.909    3525.8671   -45713.776   0.15680026 
  133800    291.47771    -125.2737    132134.56   -42213.728    3557.8985   -45771.626   0.15433272 
  134000    291.83716    21.253329    131992.98   -42168.015    3562.2862   -45730.301   0.15073157 
  134200    293.92856    75.908611    131939.63   -42179.633    3587.8146   -45767.448   0.15009683 
  134400     293.5911   -61.548944    132101.41   -42168.787    3583.6954   -45752.482   0.14853267 
  134600    294.11318   -68.397241    132143.77   -42190.729    3590.0682   -45780.798   0.15201676 
  134800     291.4785    87.491436    131957.65   -42221.515    3557.9082   -45779.423   0.15027859 
  135000    290.76109    72.546727    131940.43   -42291.243    3549.1511   -45840.394   0.14411404 
  135200    292.89001   -106.61487    132136.08   -42274.723    3575.1377   -45849.861   0.14585645 
  135400    285.60527   -123.93869     132105.5    -42289.94     3486.217   -45776.157   0.14865778 
  135600    292.05109    116.85368    131862.39   -42262.565    3564.8974   -45827.462   0.15337712 
  135800    291.05165    45.676163    131926.69   -42337.093    3552.6978    -45889.79    0.1430686 
  136000    290.07264   -150.90721    132188.67   -42360.939    3540.7477   -45901.687   0.14023235 
  136200     289.8343   -13.467305     132077.1   -42356.787    3537.8384   -45894.626   0.14200534 
  136400    292.48235    195.53768    131816.14   -42325.654    3570.1616   -45895.816    0.1414704 
  136600    288.98744    17.937243    131993.34   -42270.173    3527.5012   -45797.674   0.14808787 
  136800    290.03664   -265.22611    132266.09   -42282.352    3540.3082    -45822.66   0.15129801 
  137000    291.23096   -25.657782     132003.2   -42289.864    3554.8866    -45844.75   0.14883326 
  137200     286.3069    201.44496    131733.47   -42315.117    3494.7815   -45809.898   0.15008037 
  137400    288.05653   -46.945429    132049.83    -42279.42    3516.1382   -45795.558   0.14546322 
  137600    293.07211   -269.12582       132311    -42271.11    3577.3604   -45848.471   0.14485765 
  137800    293.23793    104.86766    131937.93   -42235.195    3579.3845   -45814.579   0.14817555 
  138000    288.89926     235.2698       131742   -42256.925    3526.4249    -45783.35   0.15467344 
  138200    289.69785   -138.33006    132211.62   -42299.153    3536.1728   -45835.326   0.14810431 
  138400      292.895   -232.65275    132324.56   -42276.686    3575.1985   -45851.885   0.14459629 
  138600     288.2764    205.48984     131820.1   -42293.362     3518.822   -45812.184     0.139233 
  138800    293.56969    245.22175    131825.47   -42227.622    3583.4341   -45811.056   0.14432844 
  139000    289.99091   -276.67758    132395.55   -42237.962    3539.7501   -45777.713   0.15259774 
  139200    290.84104   -177.63467    132278.61   -42236.148    3550.1271   -45786.276   0.14966253 
  139400    290.51326    292.65403    131719.07   -42263.745     3546.126   -45809.871   0.14267064 
  139600    291.93656    123.20218    131942.02   -42249.803    3563.4995   -45813.302   0.13919341 
  139800    296.19436    -312.1662    132512.71   -42204.578    3615.4719    -45820.05    0.1405473 
  140000    290.02912   -96.847366    132194.04   -42185.917    3540.2165   -45726.133   0.15038907 
  140200    298.55497    360.00272    131660.94   -42219.517    3644.2866   -45863.804   0.14413936 
  140400     291.8782    9.2180562    132031.86   -42247.614    3562.7871   -45810.401   0.14933712 
  140600    292.50048   -365.95755    132464.34   -42248.117    3570.3828     -45818.5   0.14947891 
  140800    290.66922    44.064486    131997.58   -42240.617    3548.0298   -45788.647   0.14495833 
  141000    289.31701    304.58745    131682.11   -42279.998    3531.5241   -45811.523   0.14239217 
  141200    294.80574   -81.916889    132172.33    -42237.23    3598.5218   -45835.752   0.14547189 
  141400    290.99256   -235.58182    132361.48   -42228.867    3551.9766   -45780.844   0.14850993 
  141600    293.03288    145.22711    131880.96   -42210.279    3576.8815    -45787.16   0.15201856 
  141800    290.19565    229.55767    131783.96   -42272.593    3542.2492   -45814.842    0.1432767 
  142000    289.85323   -160.93886    132214.02   -42272.573    3538.0695   -45810.643   0.14494005 
  142200    293.44816   -125.54017    132202.35   -42289.043    3581.9507   -45870.994   0.14410681 
  142400    289.97341    144.59951    131825.03   -42284.664    3539.5364   -45824.201   0.14825584 
  142600    290.68213    49.675014    131900.34   -42255.786    3548.1873   -45803.973      0.15311 
  142800    287.23451    -183.0912     132209.3   -42278.549    3506.1043   -45784.653   0.14669655 
  143000    291.82218   -56.658565    132068.19   -42308.471    3562.1032   -45870.575   0.14120524 
  143200    292.74712    186.90424    131821.15   -42297.308    3573.3935   -45870.701   0.14305087 
  143400     283.7226    8.5637077    132003.68   -42274.628    3463.2365   -45737.864   0.14992305 
  143600    291.28795   -175.91646    132223.47   -42253.342    3555.5822   -45808.924   0.14690766 
  143800    292.35098    41.661445    132024.27   -42258.949     3568.558   -45827.507   0.14425062 
  144000     292.7746    115.23288    131872.52   -42241.604    3573.7289   -45815.333   0.14561745 
  144200    291.44984   -37.961331    132046.95   -42220.362    3557.5583   -45777.921   0.14587066 
  144400     289.9174   -124.36623    132161.42   -42216.186    3538.8528   -45755.039   0.14790867 
  144600    294.89359    45.926766    132002.01   -42195.691    3599.5942   -45795.285   0.14986562 
  144800    290.91302    76.275083    131960.07   -42180.372    3551.0056   -45731.378   0.15014561 
  145000    298.16674   -48.039299    132125.04   -42222.326    3639.5476   -45861.873   0.14529291 
  145200    292.92638   -65.722071    132102.01     -42250.1    3575.5816   -45825.681   0.14317823 
  145400    292.55919    48.903545     131936.2   -42246.444    3571.0995   -45817.544   0.14566783 
  145600    289.22822    39.776277    131959.73     -42268.1    3530.4403    -45798.54   0.14858469 
  145800    285.03542   -101.22977    132076.23   -42287.098    3479.2613   -45766.359   0.15310936 
  146000    288.40633   -3.3394398    132016.92   -42268.104     3520.408   -45788.512   0.14749637 
  146200     293.6295    74.234831    131931.24     -42300.1    3584.1641   -45884.264   0.13896337 
  146400    287.12497    44.099417    131988.61   -42253.044    3504.7671   -45757.811     0.139328 
  146600    291.85648   -58.792119    132087.72   -42205.265    3562.5219   -45767.787   0.14799715 
  146800    293.58094    -43.86279    132089.75   -42170.125    3583.5715   -45753.696   0.14769034 
  147000    295.88612    23.491714    132048.44   -42170.999    3611.7094   -45782.708   0.14521427 
  147200    302.92186    47.631284    132079.35    -42148.72    3697.5905   -45846.311   0.13905999 
  147400     293.2828   -43.276228    132156.54    -42201.29    3579.9322   -45781.222   0.14323298 
  147600    292.80338   -27.501559    132093.76   -42230.601    3574.0802   -45804.681   0.14506137 
  147800    288.27839    67.170911    131986.97   -42271.154    3518.8463       -45790   0.14391545 
  148000    296.35063     33.13633    132047.62    -42239.12    3617.3794     -45856.5   0.14304555 
  148200    286.16174   -114.23836    132144.46   -42290.537    3493.0096   -45783.546   0.15009037 
  148400    289.31867      7.44798     132050.8   -42311.371    3531.5444   -45842.915   0.14328659 
  148600    289.57887    118.85595    131939.65   -42283.663    3534.7205   -45818.384   0.14372103 
  148800    289.62953   0.10167654    132085.85   -42297.594    3535.3389   -45832.933   0.13791646 
  149000    290.51641   -107.39385    132179.39   -42304.533    3546.1645   -45850.698   0.14321872 
  149200    292.77936    63.526864    131993.75   -42326.032    3573.7871   -45899.819   0.14067959 
  149400    289.08158    103.25387     131934.8   -42345.221    3528.6503   -45873.871   0.14395878 
  149600     288.3442   -150.64832    132201.84   -42326.827    3519.6496   -45846.476   0.14466885 
  149800    287.33804   -137.03946    132210.32   -42338.904     3507.368   -45846.272   0.13714678 
  150000    287.73168    267.51012    131793.09   -42280.606    3512.1729   -45792.779   0.14094681 
  150200    294.85925    119.67352    131903.81   -42227.945     3599.175    -45827.12   0.14461332 
  150400    296.80367   -319.42505    132452.08   -42230.066    3622.9094   -45852.975   0.14264333 
  150600    289.91834   -102.69441     132226.1   -42240.931    3538.8642   -45779.795   0.14311944 
  150800    292.98122    341.47241    131646.36    -42231.99     3576.251   -45808.241   0.14177921 
  151000    296.05877    59.514418    131993.26   -42260.563    3613.8169    -45874.38   0.14009515 
  151200    292.77034      -365.13    132569.19   -42244.449     3573.677   -45818.126   0.14172335 
  151400    292.46773    21.948886    132113.11   -42171.923    3569.9831   -45741.906   0.14523395 
  151600    297.41243     355.6045    131669.59   -42156.681    3630.3402   -45787.021   0.14624246 
  151800    297.39531   -85.852133    132246.56    -42126.21    3630.1312   -45756.341   0.14141643 
  152000    298.45426    -338.4696    132571.19   -42148.608    3643.0572   -45791.666    0.1425757 
  152200    295.58243    193.49497    131884.71   -42170.277    3608.0024   -45778.279   0.14568093 
  152400    296.73198    348.39758    131667.78   -42209.245    3622.0343   -45831.279   0.14492926 
  152600    290.54773   -247.94435    132331.63   -42198.954    3546.5468   -45745.501    0.1520448 
  152800    289.84644   -265.32459    132446.72   -42138.313    3537.9866     -45676.3   0.14854775 
  153000    300.44122    232.64215    131853.51   -42190.592    3667.3108   -45857.902   0.14139429 
  153200    297.31443    245.60654    131854.49    -42134.62     3629.144   -45763.764   0.14230502 
  153400    298.72813   -272.78838    132409.93   -42182.802    3646.4002   -45829.202   0.14406345 
  153600    292.03045   -136.72552    132289.71   -42221.573    3564.6455   -45786.218    0.1413369 
  153800    289.33053    276.58203    131770.66   -42227.311    3531.6891       -45759   0.14339392 
  154000    292.17842    111.34016    131945.93   -42260.597    3566.4516   -45827.049   0.14126245 
  154200     296.2769    -258.0558    132346.64   -42214.024    3616.4795   -45830.503   0.14258166 
  154400    297.64907   -36.399398    132090.66   -42195.316    3633.2288   -45828.545   0.14245198 
  154600    292.80075    232.71508    131777.44   -42213.694    3574.0481   -45787.742   0.14004478 
  154800    288.42164    -40.78635    132058.62    -42245.07    3520.5949   -45765.665    0.1439838 
  155000    290.07555   -218.22655    132285.62   -42217.222    3540.7831   -45758.005   0.14750463 
[...]
  163000     293.0093      289.836    131683.99   -42289.362    3576.5938   -45865.956    0.1447748 
  163200    286.64414   -389.29185    132496.57   -42278.556     3498.898   -45777.454   0.15082919 
  163400     291.5188   -178.54847       132290   -42307.632    3558.4001   -45866.032   0.14367909 
  163600    297.03067    441.63943    131584.18   -42274.434    3625.6803   -45900.114   0.14195456 
  163800    287.48605    116.00554    131934.03   -42338.367    3509.1747   -45847.542   0.13828624 
  164000    284.85571   -421.33826    132483.59   -42330.184    3477.0676   -45807.251   0.14614264 
  164200    285.79905    -39.39107    132030.29   -42341.584    3488.5825   -45830.167   0.14811366 
  164400    290.75981    381.60826    131624.89   -42296.948    3549.1355   -45846.084   0.14729412 
  164600     290.1944   -62.258288    132112.11   -42263.575    3542.2339   -45805.809    0.1471851 
  164800    292.26123   -275.07379    132381.69   -42308.732    3567.4624   -45876.194   0.14123502 
  165000    289.38261    168.91823    131920.53   -42296.675    3532.3248   -45828.999   0.14217855 
  165200    293.00139    230.23654    131783.74   -42283.285    3576.4972   -45859.782   0.14329009 
  165400    289.65203   -131.64962    132224.88   -42299.082    3535.6135   -45834.695   0.14176501 
  165600    293.42528   -204.82756    132269.96   -42254.408    3581.6714    -45836.08   0.14629449 
  165800    292.87483    164.51201    131915.27   -42258.111    3574.9524   -45833.063   0.14185699 
  166000    295.55103    125.45274    131996.82   -42224.068    3607.6192   -45831.687   0.14158921 
  166200    290.56285   -189.28847    132308.77   -42267.732    3546.7313   -45814.464   0.14399792 
  166400    289.94874   -45.477129    132158.29   -42261.097    3539.2353   -45800.332   0.14039509 
  166600    290.70339    166.10758    131903.95   -42260.471    3548.4469   -45808.918   0.14309575 
  166800    290.21541    33.707194    132082.36   -42325.977    3542.4904   -45868.468   0.13744528 
  167000    288.67503   -155.90741    132261.35   -42314.991    3523.6879   -45838.678   0.14034836 
  167200    293.26661    58.807865    132057.75   -42280.023    3579.7346   -45859.758   0.13999027 
  167400    296.67473    149.90522    131950.32   -42306.869    3621.3355   -45928.204   0.13795434 
  167600    288.82648   -81.823439    132171.12   -42303.875    3525.5365   -45829.411   0.14540175 
  167800    286.60405   -165.81058     132241.7   -42347.745    3498.4085   -45846.154   0.14211168 
  168000    293.36582    105.41013    131965.17   -42362.984    3580.9456    -45943.93   0.13551059 
  168200    288.47291    109.33768    131920.78   -42350.617    3521.2207   -45871.837   0.14284811 
  168400    287.77838   -97.066985    132189.68   -42328.072     3512.743   -45840.815   0.14381353 
  168600    283.87929   -127.57289    132206.77    -42284.86     3465.149   -45750.009   0.14879025 
  168800    293.70163    120.74878    131943.18   -42352.577    3585.0446   -45937.622   0.13575701 
  169000    292.75623    121.04434    131983.92   -42344.153    3573.5047   -45917.657   0.13621972 
  169200    289.16554   -123.25277    132264.84   -42324.642    3529.6752   -45854.317    0.1394643 
  169400    293.99351   -59.027986    132175.27   -42341.713    3588.6074    -45930.32   0.13769354 
  169600    288.38138    136.42039    131870.44   -42353.917    3520.1034    -45874.02   0.14344526 
  169800    291.33996    45.048433    132002.77   -42352.616    3556.2171   -45908.833   0.13992384 
  170000    291.39152   -191.24811    132267.37   -42389.684    3556.8464    -45946.53   0.13855559 
  170200    284.69136    6.6938232    132052.44   -42393.963    3475.0616   -45869.024   0.13980805 
  170400    282.75634    220.69963    131789.34    -42380.98    3451.4419   -45832.422   0.14105808 
  170600    283.75696   -23.351133    132098.23    -42355.11    3463.6558   -45818.766   0.14172299 
  170800    288.29762   -250.88558    132346.61   -42386.908     3519.081   -45905.989   0.13959571 
  171000    289.06846    80.975077    131965.53   -42369.187    3528.4902   -45897.677   0.13668133 
  171200     289.6747    242.76308    131785.47   -42389.736    3535.8903   -45925.626   0.13488747 
  171400    287.80694   -129.95843    132217.28   -42393.836    3513.0916   -45906.928   0.13787061 
  171600    292.84697    -254.6499    132320.16   -42364.772    3574.6123   -45939.384   0.14143334 
  171800    291.22609    161.92109    131847.54   -42334.332    3554.8272   -45889.159   0.14396898 
  172000     288.3034    175.93198    131833.02   -42337.301    3519.1516   -45856.453   0.14430028 
  172200    287.97404   -213.12294    132303.88   -42368.474    3515.1312   -45883.606    0.1434847 
  172400    287.96936   -167.32223    132228.43   -42341.403    3515.0741   -45856.477   0.14069838 
  172600    288.85149    279.87538    131741.05   -42306.934    3525.8418   -45832.776   0.14280257 
  172800    288.53814    113.54412    131929.96    -42315.78    3522.0168   -45837.797   0.14345043 
  173000    290.44793   -315.64747    132456.21   -42325.524    3545.3286   -45870.852    0.1464519 
  173200    292.27412   -76.291363    132153.06   -42360.364    3567.6198   -45927.984   0.14489906 
  173400    287.40527    402.62865    131595.08   -42360.634    3508.1886   -45868.823   0.14305455 
  173600    291.99571   -9.4922535    132050.69    -42316.56    3564.2215   -45880.782   0.14213643 
  173800    288.08348   -406.58797    132612.61   -42304.265    3516.4671   -45820.732   0.14284977 
  174000    291.57868    72.736667    131963.85   -42273.777     3559.131   -45832.908   0.14571891 
  174200    287.83833    560.62142    131397.06   -42258.658    3513.4747   -45772.132   0.15207793 
  174400    295.69457   -208.04647    132359.12   -42251.766    3609.3713   -45861.138   0.13955724 
  174600     292.0646   -642.78093    132882.11   -42249.736    3565.0624   -45814.798   0.13912263 
  174800    293.01274    382.32648    131620.24   -42235.017    3576.6357   -45811.653   0.14115494 
  175000    291.94816    671.31951       131319   -42265.412     3563.641   -45829.053   0.14399991 
  175200    291.47983   -535.94898    132695.85   -42269.655    3557.9245   -45827.579   0.14521261 
  175400    290.61778   -522.18838    132699.73   -42283.558    3547.4018    -45830.96   0.14432272 
  175600    293.33006    551.61623    131489.24   -42292.353    3580.5091   -45872.862   0.13863604 
  175800    294.36845     366.8835    131705.86   -42267.074     3593.184   -45860.258   0.13683472 
  176000    293.10643   -430.56051    132630.18   -42275.047    3577.7793   -45852.826   0.13899015 
  176200    294.56932   -184.16948    132360.35   -42224.017     3595.636   -45819.653   0.14264998 
  176400    292.67482    319.01704    131728.35   -42238.513    3572.5109   -45811.024    0.1482733 
  176600    294.15196    99.425978    131994.01   -42229.119    3590.5415   -45819.661   0.14595277 
  176800    286.28995   -299.26268    132428.51   -42247.651    3494.5745   -45742.225   0.15016683 
  177000     290.5635    -26.27835    132120.96   -42240.026    3546.7393   -45786.765   0.14207613 
  177200    292.04208    231.89022    131820.52   -42273.856    3564.7875   -45838.644   0.14269465 
  177400    286.53948   -58.542755    132133.01   -42336.434    3497.6204   -45834.054   0.14792482 
  177600    291.15292   -247.79622       132311   -42328.552     3553.934   -45882.486     0.147371 
  177800    289.49764    82.207426    131994.39   -42291.294     3533.729   -45825.023   0.14596819 
  178000    297.20474    171.29101     131920.6   -42269.023     3627.805   -45896.828   0.13788097 
  178200     289.3745   -74.535752    132232.24   -42275.389    3532.2258   -45807.615   0.14165078 
  178400    291.04223   -142.49033     132228.2    -42285.69    3552.5829   -45838.273   0.14406786 
  178600    294.33156    189.45167    131903.31   -42271.574    3592.7338   -45864.308    0.1421857 
  178800    295.49284    102.26764    131973.24   -42258.097    3606.9088   -45865.006   0.14287096 
  179000    291.61947   -156.81298    132268.33   -42223.124    3559.6289   -45782.752   0.14435362 
  179200     291.7579   -80.489552    132168.05   -42251.761    3561.3186   -45813.079   0.14255032 
  179400      292.787    158.44767    131877.39   -42238.912    3573.8803   -45812.792    0.1455121 
  179600    295.10597    51.471631     132056.4    -42244.46    3602.1865   -45846.646   0.14081431 
  179800     289.4725   -210.60958    132344.33   -42258.334    3533.4221   -45791.757   0.14815142 
  180000    293.18734     8.725133    132078.79   -42243.481    3578.7669   -45822.248   0.14554963 
  180200    294.98117    268.31617     131831.5   -42193.456    3600.6632   -45794.119   0.14416696 
  180400    298.20704   -16.529236    132181.46    -42171.15    3640.0396    -45811.19   0.14372241 
  180600     289.1639    -249.5999     132409.1     -42216.8    3529.6552   -45746.455   0.14684709 
  180800    293.03985    75.655799    131996.43   -42211.419    3576.9667   -45788.386     0.149449 
  181000    295.50999    234.49846    131842.51    -42248.28    3607.1182   -45855.398   0.14499483 
  181200    293.02942   -109.62554    132248.53   -42230.576    3576.8394   -45807.416   0.14511455 
  181400      293.397   -204.41505    132281.18   -42269.406    3581.3262   -45850.732   0.14923865 
  181600    291.04441    214.72328    131842.66    -42286.15    3552.6095   -45838.759   0.14507442 
  181800    290.04185    142.51669    131891.63   -42280.976    3540.3718   -45821.348   0.14671341 
  182000    284.22459   -202.28947    132331.39   -42255.825    3469.3639   -45725.189   0.14765502 
  182200    292.53317   -142.50429    132209.08   -42268.636    3570.7819   -45839.418   0.14784917 
  182400    291.08034    241.65427    131753.97   -42275.885    3553.0481   -45828.933   0.14725639 
  182600     296.5431    97.108657    131944.92   -42255.976    3619.7288   -45875.705   0.14398936 
  182800    295.32621   -254.54466    132406.34   -42227.286     3604.875   -45832.161   0.14172911 
  183000    297.79677   -104.21307    132193.43   -42200.021    3635.0316   -45835.052   0.14206873 
  183200    291.26938    265.42945    131808.36   -42190.471    3555.3555   -45745.827   0.14406943 
  183400    296.84411    32.698207    132062.57   -42198.849    3623.4031   -45822.252   0.14338498 
  183600     291.4284   -279.64747    132382.32   -42235.007    3557.2966   -45792.303   0.14553348 
  183800    290.83356    21.782198    132053.69   -42244.534    3550.0358    -45794.57   0.14186687 
  184000    296.91402    267.63174     131793.3   -42274.788    3624.2564   -45899.044   0.13759035 
  184200    288.47417    -35.20676    132131.37   -42315.522    3521.2361   -45836.758    0.1393448 
  184400    287.38857   -233.46769    132309.45   -42300.341    3507.9847   -45808.326   0.14394881 
  184600    290.21742    77.359716    131962.79   -42328.289    3542.5149   -45870.804   0.14589811 
  184800     291.4238    195.24949     131886.3   -42309.559    3557.2404     -45866.8   0.14129891 
  185000    288.59195   -128.18131    132249.94   -42309.229    3522.6738   -45831.903   0.14220079 
  185200    294.45372   -115.01581    132265.22   -42353.099     3594.225   -45947.324   0.13727368 
  185400    292.70761    161.31189     131886.3   -42331.753    3572.9112   -45904.665   0.14080626 
  185600    287.63497    108.44931    131919.82   -42339.317    3510.9924   -45850.309   0.14460228 
  185800    292.14873   -140.18577    132269.53   -42295.871    3566.0892    -45861.96   0.14156809 
  186000    290.60139   -127.10806    132190.86   -42290.122    3547.2017   -45837.324    0.1472655 
  186200    290.36848    167.19335    131889.72   -42271.129    3544.3588   -45815.488   0.14503263 
  186400    296.61865    39.883932    132048.24   -42237.454    3620.6509   -45858.105   0.14254171 
  186600    294.25161   -169.06641    132315.76   -42249.582    3591.7579    -45841.34    0.1427332 
  186800     285.8623   -5.1429878    132093.52   -42274.364    3489.3545   -45763.718   0.14181815 
  187000    296.68971    201.01205    131862.14   -42236.605    3621.5184   -45858.123   0.14201972 
  187200    292.16326   -29.616091    132134.88    -42269.54    3566.2666   -45835.807   0.14108183 
  187400    288.40184   -181.02198     132300.5   -42251.372    3520.3532   -45771.725   0.14204261 
  187600    286.18409    73.668726    131995.74   -42293.641    3493.2824   -45786.924   0.14291886 
  187800    289.17238     115.3309    131911.42   -42295.408    3529.7587   -45825.166    0.1401969 
  188000    289.42464   -103.49315     132221.3   -42266.483    3532.8379   -45799.321   0.13939279 
  188200    290.51801   -140.16161    132247.72   -42238.391    3546.1841   -45784.575   0.14111451 
  188400    291.71595    134.82326    131923.36   -42227.354    3560.8065    -45788.16   0.14431767 
  188600    287.00406    90.378483    131955.17   -42236.582    3503.2912   -45739.873   0.14574081 
  188800    295.11282   -116.98275     132273.7   -42246.757    3602.2702   -45849.027   0.14293363 
  189000    290.47594   -61.539291    132168.71   -42245.499    3545.6704    -45791.17   0.14456184 
  189200    293.86111    149.42924    131845.62   -42247.412    3586.9913   -45834.404    0.1454877 
  189400    291.88908    107.01448    131972.14    -42236.83    3562.9198   -45799.749   0.14617881 
  189600     297.4127   -173.39691    132284.37   -42229.774    3630.3435   -45860.118   0.14420353 
  189800    288.63613   -62.549818    132107.24   -42271.291     3523.213   -45794.504   0.14847344 
  190000    286.86155    151.33684     131802.1   -42293.748    3501.5517   -45795.299   0.14899576 
  190200    288.56747    60.673012    132027.35   -42273.294     3522.375   -45795.669   0.14397387 
  190400    289.35446    -246.7851       132325   -42277.632    3531.9812   -45809.613   0.14650881 
  190600     291.2744   -13.705621    132065.74   -42229.391    3555.4168   -45784.808   0.14497795 
  190800    299.40098    252.46777    131812.25   -42224.658    3654.6133   -45879.271   0.14344408 
  191000    288.89193    -20.62511    132121.77   -42265.724    3526.3354    -45792.06   0.14223597 
  191200    289.23023   -200.18205    132349.84   -42272.772    3530.4648   -45803.237   0.13948146 
  191400    288.45944     73.59053    132018.51   -42281.719    3521.0563   -45802.775   0.14296883 
  191600    295.51472    248.54187    131831.85   -42227.617    3607.1759   -45834.793   0.13901531 
  191800    292.59259   -165.13932    132237.45   -42263.061    3571.5072   -45834.569   0.14373773 
  192000    290.82797   -196.65295    132333.84   -42275.622    3549.9676    -45825.59   0.14118675 
  192200    290.63709    165.94304    131876.71   -42239.872    3547.6376   -45787.509   0.14228704 
  192400    293.71211    196.25679    131850.42    -42243.45    3585.1725   -45828.623   0.14142137 
  192600    293.67944   -240.43485    132311.55   -42284.418    3584.7737   -45869.192   0.14219577 
  192800    295.63836   -105.66402    132206.73   -42258.571    3608.6851   -45867.256   0.14487821 
  193000     290.1565    255.77205    131726.02   -42248.533    3541.7712   -45790.304   0.14820552 
  193200    294.42682    92.883277    131962.43   -42222.089    3593.8966   -45815.986   0.14589691 
  193400    290.94042   -365.09283    132453.45   -42206.081    3551.3401   -45757.421   0.15063321 
  193600    297.94606   -27.543902    132103.25   -42230.844    3636.8539   -45867.698   0.14262947 
  193800    292.48161     353.7871    131634.76   -42254.701    3570.1525   -45824.854   0.15011776 
  194000    291.14578   -49.982548    132106.14   -42293.993    3553.8468    -45847.84   0.14455069 
  194200    287.71256   -385.89275    132484.71   -42266.064    3511.9396   -45778.004   0.14902601 
  194400    293.37107    151.70742    131930.93   -42260.388    3581.0097   -45841.398   0.14002909 
  194600    290.97778    400.18829     131635.9   -42261.095    3551.7962   -45812.891   0.13945242 
  194800    289.93376   -191.78265    132246.06   -42267.877    3539.0525    -45806.93   0.14642344 
  195000    293.98362   -317.51452       132451   -42245.733    3588.4867   -45834.219   0.14380263 
  195200    292.35364    232.69556    131762.48   -42216.106    3568.5905   -45784.696    0.1449654 
  195400    293.65499    361.51529       131647   -42237.809    3584.4753   -45822.285    0.1430924 
  195600    297.07796   -287.75096    132404.42   -42244.822    3626.2575   -45871.079   0.14135032 
  195800    285.68242    -284.7653     132386.6   -42280.747    3487.1588   -45767.906   0.14512589 
  196000    289.52909    353.48203    131641.27   -42264.199    3534.1129   -45798.312   0.14419432 
  196200    294.01021    196.71263    131832.27   -42229.889    3588.8112   -45818.701   0.14929165 
  196400    287.43316    -369.4311    132514.23   -42252.046    3508.5291   -45760.575   0.14655221 
  196600    293.92857   -96.922729    132210.14    -42299.86    3587.8147   -45887.675   0.14290971 
  196800    288.45878    362.19137     131652.3   -42286.216    3521.0482   -45807.264   0.14559031 
  197000    291.57533    89.467411     132009.8   -42295.868    3559.0902   -45854.959   0.13974242 
  197200     293.1325    -270.2551    132389.96   -42332.404    3578.0976   -45910.501   0.14236514 
  197400    289.01664    32.679091    132009.09   -42327.415    3527.8576   -45855.273    0.1458402 
  197600    293.45962    253.01671    131775.45   -42260.531    3582.0906   -45842.622   0.14753411 
  197800     291.7738   -78.871877    132173.41   -42227.754    3561.5127   -45789.267   0.14724226 
  198000    292.01578   -229.73594    132323.43   -42252.248    3564.4665   -45816.714   0.14331853 
  198200     293.4102    103.66418    131925.54   -42276.618    3581.4873   -45858.106   0.14638172 
  198400    293.83615    184.12116    131839.99    -42216.04    3586.6867   -45802.726   0.14823562 
  198600    294.49931   -156.92614    132195.48   -42193.647    3594.7815   -45788.428   0.14978622 
  198800    293.30595   -152.25407     132205.5   -42228.171    3580.2148   -45808.386   0.14374486 
  199000    295.79343    174.41072    131891.73   -42217.974    3610.5779   -45828.552    0.1413252 
  199200    298.32682    76.553827    131958.55   -42228.408    3641.5016    -45869.91   0.14146163 
  199400    288.30472     -158.339    132244.97   -42234.164    3519.1677   -45753.332   0.14540702 
  199600    297.93992   -18.818566    132141.66   -42260.268    3636.7789   -45897.047   0.13894844 
  199800    295.19394    183.23029    131927.32   -42239.772    3603.2603   -45843.032   0.13754189 
  200000    290.90739   -31.990888    132076.57   -42245.166    3550.9369   -45796.103   0.14383505 
Loop time of 107.291 on 6 procs for 200000 steps with 4096 atoms

Performance: 805.287 ns/day, 0.030 hours/ns, 1864.089 timesteps/s
97.6% CPU use with 6 MPI tasks x no OpenMP threads

MPI task timing breakdown:
Section |  min time  |  avg time  |  max time  |%varavg| %total
---------------------------------------------------------------
Pair    | 68.623     | 70.654     | 73.006     |  18.6 | 65.85
Neigh   | 11.394     | 11.603     | 11.892     |   6.0 | 10.81
Comm    | 12.439     | 14.954     | 17.088     |  43.8 | 13.94
Output  | 2.825      | 2.8265     | 2.833      |   0.2 |  2.63
Modify  | 5.7053     | 5.7301     | 5.744      |   0.5 |  5.34
Other   |            | 1.523      |            |       |  1.42

Nlocal:        682.667 ave         709 max         659 min
Histogram: 1 1 0 0 1 1 0 1 0 1
Nghost:        1376.83 ave        1403 max        1353 min
Histogram: 2 0 0 0 1 1 0 0 1 1
Neighs:        0.00000 ave           0 max           0 min
Histogram: 6 0 0 0 0 0 0 0 0 0
FullNghs:      19458.0 ave       20241 max       18776 min
Histogram: 1 1 0 0 1 1 0 1 0 1

Total # of neighbors = 116748
Ave neighs/atom = 28.502930
Neighbor list builds = 12457
Dangerous builds = 0

Total wall time: 0:02:40
