
# Create simulation box of size 50 x 50 x 50 Angstrom
#
lattice	            sc 1
Lattice spacing in x,y,z = 1.0000000 1.0000000 1.0000000
region 	            all block 0 50 0 50 0 50 units box
create_box          1 all
Created orthogonal box = (0.0000000 0.0000000 0.0000000) to (50.000000 50.000000 50.000000)
  1 by 2 by 3 MPI processor grid

# fill box with 4175 randomly distributed atoms
#
create_atoms        1 random 4175 63782 all
Created 4175 atoms
  create_atoms CPU = 0.001 seconds
mass                1 18.015

# Define potential
#
pair_style          sw
pair_coeff          * * ML_mW.sw mW
Reading sw potential file ML_mW.sw with DATE: 2019-02-27

# Run minimization
#
minimize            1.0e-8 1.0e-8 10000 1000
WARNING: Using 'neigh_modify every 1 delay 0 check yes' setting during minimization (../min.cpp:187)
Neighbor list info ...
  update every 1 steps, delay 0 steps, check yes
  max neighbors/atom: 2000, page size: 100000
  master list distance cutoff = 6.0032907
  ghost atom cutoff = 6.0032907
  binsize = 3.0016454, bins = 17 17 17
  1 neighbor lists, perpetual/occasional/extra = 1 0 0
  (1) pair sw, perpetual
      attributes: full, newton on
      pair build: full/bin/atomonly
      stencil: full/bin/3d
      bin: standard
Per MPI rank memory allocation (min/avg/max) = 4.255 | 4.258 | 4.261 Mbytes
Step Temp E_pair E_mol TotEng Press 
       0            0    7792709.3            0    7792709.3    5898794.3 
     630            0   -45180.336            0   -45180.336   -154.07449 
Loop time of 1.12818 on 6 procs for 630 steps with 4175 atoms

99.3% CPU use with 6 MPI tasks x no OpenMP threads

Minimization stats:
  Stopping criterion = max force evaluations
  Energy initial, next-to-last, final = 
      7792709.32924461  -45180.0188663597   -45180.336116598
  Force two-norm initial, final = 2.0191930e+08 4.9721331
  Force max component initial, final = 1.0948746e+08 0.73126211
  Final line search alpha, max atom move = 0.053306038 0.038980685
  Iterations, force evaluations = 630 1000

MPI task timing breakdown:
Section |  min time  |  avg time  |  max time  |%varavg| %total
---------------------------------------------------------------
Pair    | 0.89343    | 0.97555    | 1.0398     |   5.1 | 86.47
Neigh   | 0.023762   | 0.024696   | 0.026205   |   0.5 |  2.19
Comm    | 0.043659   | 0.10777    | 0.19154    |  15.3 |  9.55
Output  | 0          | 0          | 0          |   0.0 |  0.00
Modify  | 0          | 0          | 0          |   0.0 |  0.00
Other   |            | 0.02017    |            |       |  1.79

Nlocal:        695.833 ave         704 max         685 min
Histogram: 1 1 0 0 1 0 0 1 0 2
Nghost:        1494.17 ave        1515 max        1468 min
Histogram: 1 1 0 0 0 0 1 1 1 1
Neighs:        0.00000 ave           0 max           0 min
Histogram: 6 0 0 0 0 0 0 0 0 0
FullNghs:      19997.0 ave       20462 max       19320 min
Histogram: 1 1 0 0 0 0 0 2 0 2

Total # of neighbors = 119982
Ave neighs/atom = 28.738204
Neighbor list builds = 26
Dangerous builds = 0

# Add velocity/set timestep
#
velocity            all create ${TEMP} 120598 rot yes dist gaussian
velocity            all create 210 120598 rot yes dist gaussian
timestep            5.0

# Define output
#
compute	            1 all msd
thermo	            100
thermo_style        custom step temp press vol etotal ke pe c_1[4] density

# Neighbor lists
#
neigh_modify        delay 0 every 1 check yes

# Set fixes
#
fix                 1 all momentum 10 linear 1 1 1 rescale
fix                 2 all nve
fix                 3 all temp/csvr ${TEMP} ${TEMP} 500.0 928347
fix                 3 all temp/csvr 210 ${TEMP} 500.0 928347
fix                 3 all temp/csvr 210 210 500.0 928347
fix                 4 all press/berendsen iso ${PRES} ${PRES} 1000.0 modulus 20000
fix                 4 all press/berendsen iso 50 ${PRES} 1000.0 modulus 20000
fix                 4 all press/berendsen iso 50 50 1000.0 modulus 20000

# Run 0.5 ns equilibration
#
dump                1 all custom 1000 eq.${NAME}.dump id type x y z vx vy vz
dump                1 all custom 1000 eq.liquid_density_MLmW.dump id type x y z vx vy vz
run                 100000
Per MPI rank memory allocation (min/avg/max) = 3.506 | 3.508 | 3.511 Mbytes
Step Temp Press Volume TotEng KinEng PotEng c_1[4] Density 
     630          210    801.42152       125000   -42567.537    2612.7992   -45180.336 2.7295415e-33   0.99914793 
     700     134.2192    26.658798    125417.03    -41765.99     1669.942   -43435.932   0.24258767   0.99582564 
     800    164.79948   -91.858202    125483.55   -41042.644    2050.4189   -43093.063   0.56391553   0.99529773 
     900    179.50842    163.82495    125173.86   -40638.648     2233.426   -42872.074   0.93708065   0.99776014 
    1000    195.01441   -160.67187    125231.71   -40383.762      2426.35   -42810.112    1.3423351   0.99729922 
    1100    199.63516   -40.552196    125271.36   -40199.739     2483.841    -42683.58    1.7808623   0.99698358 
    1200    202.67893    61.967208     125084.8   -40242.967    2521.7112   -42764.679    2.0862266    0.9984706 
    1300    201.99574    284.63205    125136.34   -40221.442    2513.2111   -42734.653    2.3960387   0.99805936 
    1400    201.08263   -92.703783    125011.84   -40245.027    2501.8502   -42746.877    2.7809601   0.99905326 
    1500    206.62292    132.24437    124759.19   -40193.817    2570.7819   -42764.599     3.007998    1.0010765 
    1600    210.97875    171.36144    124969.53   -40112.362    2624.9767   -42737.338    3.3350458   0.99939153 
    1700    209.69074    131.68528    125140.07   -40143.877    2608.9515   -42752.828    3.7184723   0.99802958 
    1800    206.84022    289.48403    125309.95   -40225.634    2573.4856    -42799.12     4.046152   0.99667657 
    1900    211.74532    90.845235    125574.02    -40233.65    2634.5143   -42868.164    4.3280392   0.99458068 
    2000    207.65118    109.52158    125753.61   -40214.493    2583.5754   -42798.068    4.6835266    0.9931603 
    2100    218.16175    40.707764    125796.34   -40206.854    2714.3469   -42921.201     5.070518   0.99282289 
    2200    217.13455   -121.02091    126018.34    -40264.15    2701.5666   -42965.716    5.2486463    0.9910739 
    2300     214.4804  -0.59878784    126112.43   -40269.011    2668.5439   -42937.555    5.5968882   0.99033452 
    2400    209.92756   -133.21078    126131.73   -40274.059     2611.898   -42885.957     5.864837   0.99018293 
    2500    214.32968     207.2029    126119.43   -40239.893    2666.6687   -42906.562    6.0751404   0.99027951 
    2600    212.68151   -4.9421999    126170.81   -40186.642    2646.1623   -42832.804    6.3986996   0.98987629 
    2700    213.11624    113.37566       126307    -40220.07    2651.5712   -42871.641    6.7162427   0.98880894 
    2800    211.97384   -87.673898    126406.09   -40226.413    2637.3575    -42863.77    7.0582013   0.98803381 
    2900    210.41341    288.98562    126488.76   -40305.905    2617.9428   -42923.848    7.3298803    0.9873881 
    3000    210.89376   -46.710361    126748.14   -40345.314    2623.9194   -42969.233    7.4939597   0.98536747 
    3100    213.41527   -64.062609     126668.6   -40334.045    2655.2917   -42989.337    7.6535513   0.98598619 
    3200    210.82075    24.173521    126556.15   -40396.171    2623.0109   -43019.182    7.9921267    0.9868623 
    3300    209.60519    116.99256    126394.85   -40394.344     2607.887   -43002.231    8.1730011   0.98812166 
    3400    209.84505    215.47609    126778.86   -40427.556    2610.8713   -43038.428    8.4458826    0.9851287 
    3500    210.46903    151.16579    126778.84   -40480.438    2618.6349   -43099.073    8.6867693   0.98512886 
    3600    210.88496    29.216289    126872.11   -40534.681    2623.8098   -43158.491    8.9299514   0.98440462 
    3700    204.59732    82.658911    127106.47   -40604.462    2545.5796   -43150.042    8.9488872   0.98258954 
    3800    210.62054   -13.745615    127052.85   -40569.844    2620.5199   -43190.364    9.1156812   0.98300424 
    3900    204.23796    187.92307       127284    -40619.51    2541.1085   -43160.619    9.2775082    0.9812191 
    4000    212.37445    234.71946     127537.4   -40627.153    2642.3419   -43269.495    9.4234051   0.97926953 
    4100    211.54633   -26.173073    127581.19   -40623.602    2632.0386    -43255.64    9.5256768   0.97893339 
    4200    207.39863   -23.015078    127520.44   -40626.441    2580.4333   -43206.875    9.6718661   0.97939981 
    4300    208.65377   -15.485048    127437.34   -40624.411    2596.0495   -43220.461     9.837794   0.98003841 
    4400    206.37224   -92.254353     127586.6   -40625.699     2567.663   -43193.362    10.012131    0.9788919 
    4500    209.27818    66.320612    127488.92   -40624.451    2603.8185    -43228.27    10.196883   0.97964194 
    4600    206.89488    9.5309585    127393.49   -40673.796    2574.1656   -43247.962    10.296233   0.98037576 
    4700    212.99045    199.45071    127338.84   -40598.748    2650.0061   -43248.754    10.445336   0.98079653 
    4800    207.26169    177.01655    127584.12   -40676.655    2578.7295   -43255.384    10.552477   0.97891094 
    4900    211.90327    91.643455    127829.62   -40576.727    2636.4796   -43213.207    10.807485   0.97703093 
    5000    211.54404    102.79886    127701.21   -40537.773      2632.01   -43169.783    10.957298   0.97801337 
    5100    213.16369   -97.372468    127996.68   -40606.452    2652.1616   -43258.614    10.988879   0.97575573 
    5200    211.25307   -67.279519    127714.25   -40662.731    2628.3898   -43291.121    11.137466    0.9779135 
    5300    207.52634    24.101519    127715.35   -40641.361    2582.0222   -43223.383    11.231361   0.97790511 
    5400    209.83911    1.0145033    127622.67   -40688.722    2610.7975   -43299.519    11.510545   0.97861525 
    5500     209.5141    176.23395    127585.23   -40691.187    2606.7537   -43297.941    11.564184   0.97890245 
    5600    208.91796    93.772756    127840.31   -40707.003    2599.3366   -43306.339    11.861819   0.97694924 
    5700    210.05249    12.777714    127863.83   -40713.716    2613.4523   -43327.169    12.006068   0.97676955 
    5800    211.57206    -4.359262     127855.6   -40738.998    2632.3587   -43371.357    11.990011   0.97683239 
    5900    206.45835   -47.889337    127912.15   -40766.508    2568.7344   -43335.243    12.139316   0.97640055 
    6000    205.59855   -88.576438    127915.74   -40764.284    2558.0368   -43322.321    12.291419   0.97637313 
    6100    207.43531    285.24892    127818.76   -40694.518    2580.8897   -43275.407    12.337197   0.97711392 
    6200     207.8961    14.889216    128002.65   -40750.099    2586.6227   -43336.722    12.483627   0.97571021 
    6300    209.51304   -95.707973    128061.71   -40727.768    2606.7405   -43334.508    12.677439   0.97526024 
    6400    209.86798    12.171646    128218.93   -40709.088    2611.1567   -43320.245    12.942358   0.97406435 
    6500    210.87557   -94.973924    128194.05   -40652.205    2623.6929   -43275.898    13.038839   0.97425339 
    6600    206.32302    17.799187    128175.65   -40712.499    2567.0506   -43279.549    13.241584   0.97439329 
    6700     205.6263    39.022744    128463.23   -40774.322    2558.3821   -43332.704    13.312805   0.97221195 
    6800    211.01772   -143.75263    128387.72    -40705.23    2625.4616   -43330.692    13.477336   0.97278378 
    6900    214.43951    17.047748    128321.45   -40651.417    2668.0351   -43319.452    13.585201   0.97328616 
    7000    217.44034    105.47625    128702.54    -40655.53    2705.3712   -43360.901    13.814824   0.97040427 
    7100    208.45701   -37.587282    128584.58   -40683.619    2593.6015    -43277.22    13.960597   0.97129449 
    7200    211.39723    61.115294       128767   -40751.083    2630.1834   -43381.266    13.984798   0.96991845 
    7300    207.17054    53.821346    128656.76   -40822.208    2577.5954   -43399.804    14.183125   0.97074958 
    7400    206.75454   -56.212857    128643.88   -40856.324    2572.4196   -43428.744    14.396546   0.97084673 
    7500     206.2814    80.473075    128689.26   -40826.273    2566.5328   -43392.806    14.412486   0.97050442 
    7600     205.3447   -4.5759001    128773.07   -40917.305    2554.8785   -43472.184     14.51576   0.96987277 
    7700    212.34923    219.67377    128760.99   -40840.688    2642.0281   -43482.716    14.673672   0.96996371 
    7800    213.38449  -0.14930234    128791.31   -40830.682    2654.9088   -43485.591    14.787781   0.96973539 
    7900    209.65168    214.02758    128834.51   -40911.528    2608.4655   -43519.994    14.975825   0.96941025 
    8000    209.08677    232.81725    128905.87   -40896.403    2601.4369    -43497.84    15.074463   0.96887357 
    8100    207.30534   -106.41216    128817.88   -40963.665    2579.2725   -43542.938     15.06181   0.96953533 
    8200    211.35859    80.964303    128780.98   -40984.568    2629.7027   -43614.271    15.082339    0.9698132 
    8300    206.37293    79.325018    128802.49   -40974.247    2567.6716   -43541.919    15.352264   0.96965119 
    8400    211.48433    106.77641    128959.44   -40938.111    2631.2672   -43569.379    15.488198   0.96847108 
    8500    210.86793   -16.432804    128983.18   -40873.425    2623.5979   -43497.023     15.59093   0.96829284 
    8600    208.10232    268.45838    128863.73   -40890.413    2589.1885   -43479.601    15.572258   0.96919039 
    8700    211.01919    141.13889    129142.52   -40865.724    2625.4799   -43491.204     15.64532   0.96709813 
    8800    207.35925    104.12637    129145.46   -40905.377    2579.9433    -43485.32    15.652787   0.96707614 
    8900    205.42487    76.614081    129108.37   -40982.896    2555.8759   -43538.772    15.916714   0.96735396 
    9000    207.64663   -94.366274    129014.23    -40938.23    2583.5188   -43521.749    15.989679   0.96805985 
    9100    206.24416    58.128522    129039.26   -40995.971    2566.0695   -43562.041    16.238282   0.96787202 
    9200    209.04247     145.0979    129299.43   -40900.587    2600.8858   -43501.473    16.370325   0.96592453 
    9300    207.78868   -53.909413    129292.51   -40951.784    2585.2862    -43537.07    16.500589   0.96597625 
    9400    212.91457    70.235895    129436.25   -40932.639     2649.062   -43581.701    16.627955   0.96490349 
    9500    208.68081    43.758249    129683.31    -40969.25     2596.386   -43565.636    16.606458   0.96306529 
    9600    211.94504    11.153926    129530.28   -40947.931    2636.9993    -43584.93    16.613753   0.96420304 
    9700    214.01599    76.114258    129482.66   -40910.415    2662.7657   -43573.181    16.760679   0.96455769 
    9800    210.36777     100.5566    129432.06    -40992.13     2617.375   -43609.505    16.824771   0.96493471 
    9900     208.7383   -121.51157    129323.06   -41060.028    2597.1013   -43657.129    16.928479     0.965748 
   10000    207.12672    16.246871    129370.97   -41064.729    2577.0502    -43641.78    17.123174   0.96539036 
   10100    209.60342     24.51136    129453.37   -41033.922     2607.865   -43641.787    17.169909   0.96477593 
   10200    208.36053    131.30228    129462.97     -41064.6    2592.4011   -43657.001    17.080482   0.96470439 
   10300    207.75228    152.85318    129505.56   -41054.544    2584.8333   -43639.378    17.197809   0.96438711 
   10400    209.61981    71.330636    129560.01   -40984.929     2608.069   -43592.998    17.368891    0.9639818 
   10500    209.03395   -73.555457     129634.5   -40967.038    2600.7797   -43567.817    17.581132   0.96342789 
   10600    212.27265    195.39849       129567   -40909.901    2641.0754   -43550.977    17.685834   0.96392976 
   10700    213.10646   -85.372371    129732.34   -40904.871    2651.4495    -43556.32    17.791165   0.96270127 
   10800    215.44038    109.96506    129714.44    -40914.02    2680.4879   -43594.507     17.94304   0.96283417 
   10900    211.92948   -82.630986    129609.28   -40936.982    2636.8056   -43573.787    18.038728   0.96361534 
   11000    212.16992   -2.7126179    129473.27   -40943.134    2639.7971   -43582.931    17.863479   0.96462762 
   11100    209.04407    211.06515    129524.01   -40987.015    2600.9057    -43587.92    17.885612    0.9642497 
   11200     213.0031    100.67448    129499.27   -40970.402    2650.1636   -43620.566    17.960413   0.96443392 
   11300    211.93506    90.926985    129574.11   -40970.342    2636.8751   -43607.217    18.193034   0.96387688 
   11400    207.78179    143.07971    129625.13   -40969.371    2585.2005   -43554.571    18.311213   0.96349753 
   11500    214.05937    34.702379    129420.06   -41004.009    2663.3055   -43667.315    18.536353   0.96502422 
   11600    207.82213    283.66708    129530.87   -41003.069    2585.7024   -43588.772     18.72728   0.96419866 
   11700    212.88609    149.37655     129569.4   -40899.668    2648.7077   -43548.376    18.706664   0.96391191 
   11800      210.402    56.045817    129483.81   -40968.181    2617.8009   -43585.981    18.908237   0.96454907 
   11900    213.00743    155.09707    129658.32    -40985.15    2650.2174   -43635.367    19.155097   0.96325085 
   12000    211.00074    61.936597    129705.92    -40988.94    2625.2503    -43614.19    19.063117   0.96289739 
   12100     211.2707    14.866852    129734.02   -40952.879    2628.6092   -43581.488    19.087561   0.96268881 
   12200    210.19951   -31.016471    129649.89     -40963.4    2615.2816   -43578.681    19.020123   0.96331354 
   12300    209.50031  -0.63993774    129484.45   -40983.647    2606.5821    -43590.23    19.146853   0.96454436 
   12400    209.97911    88.164557    129563.56   -40964.566    2612.5394   -43577.106    19.195097   0.96395536 
   12500    211.85703    121.42635    129769.31   -41060.068    2635.9043   -43695.972    19.338954   0.96242704 
   12600    209.01973   -50.009171    129812.26   -40989.131    2600.6028   -43589.734    19.513601   0.96210859 
   12700    211.10647    173.49978    129719.33   -40975.404    2626.5659    -43601.97    19.663426   0.96279787 
   12800    214.61193   -29.838109    129759.27     -40956.7    2670.1804   -43626.881    19.766942   0.96250153 
   12900    212.01715   -71.717528    129926.68   -41010.398    2637.8964   -43648.294    19.817682   0.96126128 
   13000    212.57554    36.709512    129718.04   -40955.242    2644.8439   -43600.086    19.958863   0.96280741 
   13100    211.13337   -37.425135    129713.42   -40964.951    2626.9005   -43591.852    20.061193   0.96284168 
   13200    216.05507  -0.19014831    129794.51   -40901.115    2688.1358   -43589.251    19.995068   0.96224018 
   13300    209.90424    143.03759    129898.55   -40947.646    2611.6078   -43559.254    20.256225   0.96146947 
   13400    207.75892   -11.548467    129658.66    -41019.32    2584.9159   -43604.236    20.241205   0.96324835 
   13500    211.92802    76.657496    129678.75   -41054.319    2636.7875   -43691.107    20.154667   0.96309916 
   13600    206.84118     132.3506    129741.68   -41071.436    2573.4975   -43644.933    20.588965   0.96263195 
   13700    207.18909    97.324624    129802.31   -41073.142    2577.8261   -43650.968    20.539056   0.96218235 
   13800     211.2465     194.0199     130025.8   -40993.179    2628.3081   -43621.487    20.586365   0.96052853 
   13900    209.14873    66.372017    129908.95   -41038.983    2602.2079   -43641.191     20.65489   0.96139248 
   14000    209.87009    169.23326    129859.49   -41030.045    2611.1829   -43641.228    20.724047   0.96175871 
   14100    210.43829   -59.227489    129905.68    -41043.59    2618.2523   -43661.842    20.831885   0.96141669 
   14200    209.07368    149.02117    129713.09   -41083.928    2601.2741   -43685.202    20.755069   0.96284413 
   14300      205.616    104.50986    129743.93   -41131.723     2558.254   -43689.977    21.050941    0.9626153 
   14400    212.75151    233.21801    129766.97   -41092.124    2647.0333   -43739.157    21.089703   0.96244441 
   14500    203.85061    89.079408    129825.49    -41046.03    2536.2891   -43582.319     21.20644   0.96201054 
   14600    210.13315    42.768353    129909.05   -41062.367    2614.4558   -43676.823    21.152568   0.96139179 
   14700    212.05723    24.825628     130167.6   -41132.919    2638.3951   -43771.314    21.431839    0.9594822 
   14800    207.30462    65.679443    130109.69   -41187.948    2579.2636   -43767.211    21.582156   0.95990922 
   14900      205.368    -6.801755    130054.11   -41262.011    2555.1683   -43817.179    21.692323   0.96031943 
   15000      202.961    103.80639    130184.49   -41257.869    2525.2207    -43783.09    21.626311   0.95935767 
   15100     205.4299    120.92692    130166.35   -41269.761    2555.9385     -43825.7    21.610503   0.95949137 
   15200     204.8312    13.003308    130159.31   -41179.675    2548.4896   -43728.164    21.750925   0.95954325 
   15300    207.79069    146.44812    130030.23   -41190.009    2585.3112    -43775.32    21.814694    0.9604958 
   15400    211.09643    109.65807    130260.59   -41180.948    2626.4409   -43807.389    21.863616   0.95879719 
   15500    211.04496   -9.9026911    130189.45   -41159.742    2625.8006   -43785.542    21.933681   0.95932111 
   15600    209.39329    69.386938    130170.43   -41091.582    2605.2507   -43696.832    22.055894    0.9594613 
   15700    208.64409    124.15679    130260.83   -41176.537    2595.9291   -43772.466    22.139759   0.95879545 
   15800    207.10798   -111.22469    130121.59   -41182.922     2576.817   -43759.739    22.088835   0.95982142 
   15900    207.01756   0.66021813    130308.26   -41226.975    2575.6921   -43802.667    22.149136   0.95844644 
   16000    210.89003    214.00472    130376.05   -41166.743    2623.8729   -43790.616    22.418666   0.95794813 
   16100    207.82803     96.01453    130171.09   -41115.252    2585.7758   -43701.028    22.372534   0.95945647 
   16200    212.24393   -172.93591    130205.92    -41174.18     2640.718   -43814.898    22.218838   0.95919976 
   16300     208.7998    38.951749    130249.28   -41183.604    2597.8664   -43781.471     22.30812   0.95888051 
   16400    210.36244   -171.54152    130061.34   -41097.253    2617.3087   -43714.562    22.525644    0.9602661 
   16500    212.17576  -0.71358887    130234.47   -41077.083    2639.8699   -43716.952    22.774953   0.95898951 
   16600    208.22758   -28.880767    130183.24   -41051.407     2590.747   -43642.154    23.027096   0.95936691 
   16700    210.12182   -64.276975    130204.16    -41079.22    2614.3149   -43693.535    22.950369   0.95921273 
   16800    212.23104    143.14565    130140.08   -41063.346    2640.5576   -43703.904    22.881554   0.95968508 
   16900    212.15607    93.301482    130200.66   -41022.083    2639.6248   -43661.708    22.961041   0.95923855 
   17000    212.26565    113.55589    130274.74   -41053.239    2640.9882   -43694.228    22.981996   0.95869304 
   17100    214.05367    35.436372    130425.35   -40986.332    2663.2345   -43649.567    23.131738   0.95758599 
   17200    206.80661    265.12646    130244.12   -41004.684    2573.0673   -43577.751    23.281902   0.95891848 
   17300    212.15322   -0.3782482    130422.64   -41070.254    2639.5894   -43709.843     23.49552   0.95760592 
   17400    213.04281    72.168721    130399.63    -41092.32    2650.6576   -43742.978    23.598491   0.95777486 
   17500    211.53065     146.5132    130486.41   -41077.555    2631.8434   -43709.398    23.655835   0.95713791 
   17600    212.57739    93.149818    130599.48   -41051.463    2644.8668   -43696.329     23.69416   0.95630923 
   17700     210.7457    69.968596    130570.51   -41081.943    2622.0772   -43704.021    23.710492   0.95652142 
   17800    212.50391     7.936458    130457.82    -41083.21    2643.9526   -43727.163    23.812107   0.95734771 
   17900    217.22144    77.886659    130380.12   -41054.985    2702.6477   -43757.633    23.800976    0.9579182 
   18000    214.24313    110.79603    130563.86   -40998.664    2665.5918   -43664.256    23.961784   0.95657017 
   18100    208.68028    230.15928    130536.91   -41089.279    2596.3794   -43685.658    24.145987    0.9567676 
   18200    209.61062   -75.908817    130665.11   -41078.341    2607.9546   -43686.296    24.259521   0.95582896 
   18300    213.99064   -18.146078    130732.82   -41011.156    2662.4504   -43673.606    24.422887   0.95533386 
   18400    209.08883     98.15752    130731.43   -41077.819    2601.4626   -43679.281    24.610137   0.95534403 
   18500    212.15704   -33.234932    130906.41   -41049.298    2639.6369   -43688.935    24.889643   0.95406705 
   18600    207.94414    86.150265    130812.18   -41112.689    2587.2205    -43699.91     25.04713   0.95475433 
   18700    210.66772    132.80035    130794.53   -41096.542    2621.1069   -43717.649    25.052978   0.95488314 
   18800    209.61995    142.14864    130850.83   -41088.086    2608.0707   -43696.156    25.078242   0.95447227 
   18900    210.28517    17.658177    130836.68   -41124.663    2616.3473   -43741.011    25.006751   0.95457549 
   19000    214.43636    211.08579    130881.77   -41109.942    2667.9961   -43777.938    25.005272   0.95424663 
   19100    210.17671    100.22855    130909.65   -41167.473    2614.9979   -43782.471    25.069506   0.95404344 
   19200    212.55102    26.625413    130723.66   -41144.872    2644.5388   -43789.411    25.194509   0.95540082 
   19300    215.16317    126.82159     130861.2   -41092.785    2677.0389   -43769.824    25.264431   0.95439663 
   19400    211.17678   -59.441723    130897.36   -41117.034    2627.4407   -43744.475    25.208501   0.95413301 
   19500    208.86668   -171.74617    130698.96   -41105.393    2598.6986   -43704.092    25.459661   0.95558135 
   19600     208.5996    119.10052    130867.43   -41141.882    2595.3756   -43737.258    25.605812   0.95435124 
   19700    214.50154    155.65399    130892.78   -41124.889     2668.807   -43793.696    25.597567   0.95416637 
   19800    209.30476    145.01322    131268.29   -41161.849    2604.1491   -43765.998    25.822344   0.95143685 
   19900    207.60367    79.914299    131306.01   -41175.244    2582.9843   -43758.229    25.787593   0.95116356 
   20000    210.50513    10.625576    131270.12   -41221.712    2619.0841   -43840.796    25.862814   0.95142364 
   20100    210.65463    30.109155    131205.74   -41191.525    2620.9441   -43812.469    26.102909   0.95189044 
   20200    205.18094    78.296142    131188.34   -41243.278     2552.841   -43796.119     25.97311   0.95201673 
   20300    205.77924   -51.286909    131311.67    -41279.02     2560.285   -43839.305    26.155139   0.95112252 
   20400    210.67823   -33.556514    131323.81   -41275.877    2621.2377   -43897.114    26.428393   0.95103463 
   20500    208.07737    85.931639    131363.34   -41251.724    2588.8781   -43840.602    26.369246   0.95074847 
   20600    210.45742    74.611449    131362.96   -41286.963    2618.4905   -43905.453    26.423326   0.95075122 
   20700    210.16524   -50.477322    131433.22   -41236.576    2614.8552   -43851.432    26.506533   0.95024292 
   20800    210.61756    1.9150982    131498.17   -41238.236    2620.4828   -43858.719    26.393819   0.94977361 
   20900    209.91388    85.719804    131521.87   -41271.094    2611.7278   -43882.821     26.48911   0.94960248 
   21000    210.48613    0.5326875    131322.55   -41362.044    2618.8477   -43980.891    26.506795   0.95104376 
   21100    206.32733   -41.985093    131352.83   -41386.958    2567.1043   -43954.062    26.516194   0.95082452 
   21200    204.86181   -70.105225    131306.96   -41360.424    2548.8704   -43909.295    26.494749    0.9511567 
   21300    208.03531    80.082317    131323.03   -41369.532    2588.3547   -43957.887    26.553396   0.95104025 
   21400    210.60188     87.32757    131380.25   -41337.515    2620.2878   -43957.802    26.477622    0.9506261 
   21500    208.95672    25.644568     131344.6   -41330.183    2599.8189   -43930.002    26.553378    0.9508841 
   21600    212.18396     71.81422     131299.3   -41282.899    2639.9718    -43922.87    26.635828   0.95121214 
   21700    213.66143   -47.738619     131489.5   -41260.081    2658.3544   -43918.436    26.885506   0.94983627 
   21800    210.30589    27.837384     131416.1   -41248.015    2616.6051    -43864.62    26.926053   0.95036678 
   21900    210.31789    29.785629    131397.41   -41259.378    2616.7544   -43876.132    27.045116   0.95050193 
   22000     209.7085    59.626681    131575.11   -41298.666    2609.1725   -43907.838    26.910493   0.94921821 
   22100    211.46334    75.877183    131433.94   -41246.194    2631.0059     -43877.2    27.043284   0.95023777 
   22200     211.5106    10.384239    131609.29   -41296.495    2631.5939   -43928.089    27.043416   0.94897171 
   22300    209.55903    130.88795    131617.47   -41271.587    2607.3127     -43878.9    27.126293   0.94891273 
   22400    211.77278    32.681187    131678.33   -41240.846     2634.856   -43875.702    27.154987   0.94847412 
   22500     210.4601    174.30549    131644.96   -41256.482    2618.5237   -43875.006    27.228831   0.94871457 
   22600    213.96812    5.0506208    131537.35   -41244.548    2662.1702   -43906.718    27.230625   0.94949071 
   22700    211.53628     133.2845    131667.49    -41244.98    2631.9135   -43876.893     27.46172   0.94855223 
   22800     213.7532    170.23833    131478.93   -41223.434    2659.4962    -43882.93    27.545296   0.94991259 
   22900    214.70166    146.40256    131615.91   -41277.782    2671.2969   -43949.079    27.700308     0.948924 
   23000    212.51358    23.581711    131666.83   -41274.544     2644.073   -43918.617       27.521   0.94855697 
   23100    208.11316     135.2282    131630.07   -41377.454    2589.3234   -43966.778     27.48339    0.9488219 
   23200      214.475   -5.0471966    131705.35   -41317.981    2668.4767   -43986.458    27.617634   0.94827955 
   23300    208.29337    26.111529    131843.03   -41355.798    2591.5656   -43947.364    27.834607    0.9472893 
   23400    206.99605   -135.01513    131789.28   -41292.012    2575.4244   -43867.436    28.032182   0.94767566 
   23500     209.8798   -47.672645    131732.12   -41334.852    2611.3037   -43946.156    28.156807   0.94808682 
   23600    210.05607   -32.766568     131880.4   -41318.336    2613.4969   -43931.833    28.089695   0.94702084 
   23700    211.56198    40.511008    131743.36   -41360.001    2632.2333   -43992.235    27.818626   0.94800598 
   23800    207.16463    4.5358161       131879   -41408.017    2577.5219   -43985.539    27.780101    0.9470309 
   23900    205.23255   -16.984288    131933.62   -41407.945    2553.4832   -43961.428    28.074725   0.94663884 
   24000    209.58048    72.235259    131961.89   -41323.426    2607.5796   -43931.005    28.203906   0.94643604 
   24100    207.65064    159.45305    131965.47   -41325.623    2583.5687   -43909.191    28.126365   0.94641041 
   24200    206.77278   -74.523457    131868.16   -41386.809    2572.6465   -43959.455    28.139676   0.94710878 
   24300    208.25553    174.05447    132178.57   -41357.715    2591.0947   -43948.809    28.164941    0.9448846 
   24400    209.29645   -121.77824    132053.17   -41416.448    2604.0458   -44020.494    28.376521   0.94578185 
   24500    207.26822    38.957593    132051.28   -41384.456    2578.8107   -43963.266     28.53172   0.94579539 
   24600     212.6219   -113.28936    132003.79   -41375.552    2645.4207   -44020.972    28.280607   0.94613566 
   24700    209.63621    76.009596    131660.27   -41388.889     2608.273   -43997.162    28.315433   0.94860427 
   24800    211.34573    74.282631    131802.32   -41382.409    2629.5426   -44011.952    28.459158   0.94758192 
   24900    214.26676    17.384849    131883.21   -41334.559    2665.8858   -44000.445    28.491448   0.94700068 
   25000    210.58237    44.626633    132006.14   -41318.774     2620.045   -43938.819     28.61038   0.94611884 
   25100    211.18083    62.109449    131973.27   -41331.968     2627.491   -43959.459    28.770672   0.94635442 
   25200    208.96495     113.9653    131931.98   -41384.601    2599.9213   -43984.523    28.618501   0.94665062 
   25300    210.57261    77.030705    131981.73   -41394.699    2619.9236   -44014.622    28.671271   0.94629378 
   25400    208.79902    36.211234    132188.82   -41390.739    2597.8568   -43988.596     28.78467   0.94481131 
   25500    211.20666    102.74177    132198.39   -41351.475    2627.8123   -43979.287    28.915316   0.94474289 
   25600    207.44952    -37.91312    132065.11   -41422.842    2581.0664   -44003.909    28.911963   0.94569633 
   25700    208.40646    232.75615     132162.2   -41444.688    2592.9726    -44037.66    28.732185   0.94500162 
   25800    206.17369    91.243798    132322.86   -41422.503    2565.1927   -43987.695    28.807854   0.94385421 
   25900    213.97235    36.285662    132083.55   -41380.817    2662.2228    -44043.04    28.711207   0.94556431 
   26000    211.69437    95.468598     132154.6   -41330.425    2633.8804   -43964.305    29.034796   0.94505594 
   26100    213.78448    5.0954562    132127.88   -41412.127    2659.8854   -44072.013    29.099243   0.94524704 
   26200    209.55061   -30.144847    132067.51   -41411.221     2607.208   -44018.429    29.105018   0.94567918 
   26300    211.24824    61.213513    132170.72   -41395.188    2628.3297   -44023.517    29.031097   0.94494066 
   26400     212.6228    73.771648     132185.3   -41387.653    2645.4319   -44033.085    29.144614   0.94483647 
   26500     209.6981    44.523711    132122.69   -41447.676     2609.043   -44056.719    29.062592   0.94528423 
   26600    209.44408    31.133242    132140.14   -41493.955    2605.8826   -44099.838    29.200699   0.94515935 
   26700    209.91681    34.977662    132016.12   -41521.516    2611.7642   -44133.281    29.099919   0.94604727 
   26800    207.03126    116.43405    132170.57   -41462.578    2575.8625    -44038.44    29.072929   0.94494175 
   26900     212.5839   -61.263048    132219.36   -41473.664    2644.9478   -44118.611    29.181282   0.94459307 
   27000    208.71837    99.791913    132128.62   -41519.156    2596.8533   -44116.009    29.248462   0.94524174 
   27100    206.43887   -4.9684206    132139.53   -41525.118     2568.492   -44093.611    29.441575   0.94516376 
   27200    205.52113   -15.543187     132180.9   -41545.504    2557.0735   -44102.577    29.280211    0.9448679 
   27300    207.89867   -10.199887    132213.06   -41574.759    2586.6548   -44161.413    29.444681   0.94463809 
   27400     207.4398    92.907267    132107.08   -41517.325    2580.9454   -44098.271    29.263213   0.94539588 
   27500    210.82576    187.44608    132343.54   -41471.812    2623.0733   -44094.885    29.418558   0.94370675 
   27600    208.92318    44.026277    132300.05   -41514.009    2599.4015   -44113.411    29.648977   0.94401697 
   27700    211.09982    155.33786     132410.7   -41531.161    2626.4831   -44157.644    29.644232   0.94322807 
   27800     209.8856    17.576897    132426.15   -41474.775    2611.3759   -44086.151    29.565138   0.94311801 
   27900    210.55711   -21.107694    132508.39   -41490.507    2619.7308   -44110.238    29.450308   0.94253271 
   28000     209.7976     149.4132    132427.75   -41533.946     2610.281   -44144.227    29.622857   0.94310666 
   28100    210.20137    53.132349    132535.27   -41500.149    2615.3046   -44115.454    29.573483   0.94234152 
   28200    209.20821   -23.553587    132521.24   -41550.367    2602.9478   -44153.315     29.56565   0.94244134 
   28300    208.41926    6.8481508     132527.8   -41545.514    2593.1318   -44138.646    29.557743   0.94239464 
   28400    207.74449    31.514599    132527.61   -41599.607    2584.7364   -44184.343    29.645431   0.94239599 
   28500    211.35497    41.077138    132418.64   -41622.768    2629.6577   -44252.426    29.855355   0.94317154 
   28600     206.4718   -68.993869     132408.9    -41576.37    2568.9017   -44145.272    29.870126   0.94324091 
   28700    206.18401    22.703238     132466.7   -41583.843     2565.321   -44149.165    29.805181   0.94282931 
   28800    210.94556    201.96904    132719.41    -41548.79    2624.5638   -44173.354    29.760038   0.94103408 
   28900    208.01668    146.00693    132654.99   -41522.458     2588.123   -44110.581    29.852772   0.94149106 
   29000    210.97727    113.35355    132597.76   -41595.814    2624.9584   -44220.772    30.033058   0.94189743 
   29100    209.96876    116.81566    132598.09   -41540.896    2612.4105   -44153.306    30.100196   0.94189513 
   29200    212.42455    51.707228     132824.7   -41507.798    2642.9653   -44150.763    30.160954   0.94028815 
   29300    212.00453    115.99401    132794.85   -41580.502    2637.7395   -44218.241    30.022205   0.94049954 
   29400    207.87096   -70.567575    132698.26   -41630.816      2586.31   -44217.126    29.965735   0.94118409 
   29500    209.61919    42.020605    132595.53   -41656.021    2608.0612   -44264.082    30.018477   0.94191329 
   29600    208.80422    70.587568    132691.32   -41573.997    2597.9214   -44171.919    30.107764   0.94123334 
   29700    208.35533     11.48124    132783.67   -41622.002    2592.3364   -44214.339    30.179661   0.94057866 
   29800    207.44766    105.76419    132904.57   -41605.803    2581.0432   -44186.846    30.324021   0.93972309 
   29900    210.11955    61.412356    132799.96   -41639.801    2614.2866   -44254.088    30.275296   0.94046331 
   30000    211.84383    216.81159    132828.55   -41624.748      2635.74   -44260.488    30.288801   0.94026087 
   30100     212.5298    82.491268     132927.1   -41626.017    2644.2748   -44270.292    30.296358   0.93956383 
   30200    206.99395    64.993587    133010.87   -41637.267    2575.3982   -44212.665    30.240638   0.93897205 
   30300    211.42884    254.55419    133146.13   -41599.026    2630.5767   -44229.603    30.345839   0.93801822 
   30400    212.17959   -42.390721    133016.97   -41588.876    2639.9175   -44228.794    30.288889   0.93892897 
   30500    210.08746   -18.544144    132927.14    -41605.18    2613.8874   -44219.067    30.324876   0.93956349 
   30600    210.97068    114.49839    132863.21   -41593.861    2624.8763   -44218.737    30.252821   0.94001563 
   30700    208.22168    72.007326    132849.34   -41600.855    2590.6736   -44191.529    30.356388   0.94011376 
   30800    211.87754    87.282652    132874.94    -41536.05    2636.1595   -44172.209    30.285679   0.93993265 
   30900    209.31929    60.786822    133020.42   -41645.417    2604.3299   -44249.747    30.281778   0.93890464 
   31000    205.59422   0.59994983    133018.48   -41679.206     2557.983   -44237.189     30.54366   0.93891835 
   31100    208.24131    54.684902    132925.52   -41668.565    2590.9178   -44259.483    30.364378   0.93957495 
   31200    206.65792    32.348077    132899.89   -41683.648    2571.2174   -44254.865    30.480298   0.93975617 
   31300    208.53935    44.956918    132960.06   -41640.557     2594.626   -44235.183    30.402989   0.93933089 
   31400    209.67072    81.604474    132929.63   -41606.284    2608.7023   -44214.986    30.460713   0.93954594 
   31500    209.36896   -3.4861788    132902.11   -41661.595    2604.9479   -44266.543    30.433294   0.93974046 
   31600    211.54567    16.931593    132919.85   -41602.038    2632.0303   -44234.069    30.394583   0.93961508 
   31700    207.64406     153.1333    132839.27   -41634.172    2583.4868   -44217.659     30.27741   0.94018501 
   31800    209.87558    42.481301    132909.87    -41558.11    2611.2512   -44169.361    30.450235   0.93968561 
   31900     211.9489    42.136268    132954.41   -41549.265    2637.0472   -44186.312    30.566699   0.93937083 
   32000    211.47432    15.446198    132840.96   -41538.537    2631.1425    -44169.68    30.628972   0.94017305 
   32100    212.99608    154.69523    132834.91   -41549.886    2650.0761   -44199.962    30.665125   0.94021589 
   32200    209.12513    115.51467    132886.79   -41547.325    2601.9142   -44149.239    30.650843   0.93984884 
   32300    213.94874   -69.739413    132864.62   -41539.377     2661.929   -44201.306    30.616246   0.94000563 
   32400    211.43494   -46.875744    132742.66   -41599.384    2630.6526   -44230.037    30.653947   0.94086925 
   32500      210.792    14.815532    132696.55   -41608.265    2622.6532   -44230.918    30.676029   0.94119621 
   32600     213.3215    78.826691    132710.18   -41557.494     2654.125   -44211.619    30.705656   0.94109953 
   32700     213.5177   -31.422618     132687.2   -41629.707    2656.5661   -44286.274    30.697186   0.94126251 
   32800    209.16516    76.998548    132695.78   -41670.727    2602.4123    -44273.14    30.763122   0.94120168 
   32900    207.06375    152.36915    132769.85   -41660.442    2576.2667   -44236.709    30.774284   0.94067661 
   33000    207.26448   -51.981474    132830.59   -41707.651    2578.7642   -44286.415    30.929684   0.94024642 
   33100    209.92453    107.79226    133052.32   -41641.314    2611.8603   -44253.174    30.814138   0.93867952 
   33200    206.24622    79.676915     133052.7   -41672.261    2566.0951   -44238.356    30.662481   0.93867686 
   33300    208.16091    72.466368    133138.54   -41611.595    2589.9174   -44201.512    30.867182   0.93807164 
   33400     207.1136   -74.762889    133136.65   -41692.606    2576.8869   -44269.493    30.911472     0.938085 
   33500    210.67637    84.316085    133078.67   -41649.793    2621.2146   -44271.008    30.788159   0.93849368 
   33600    208.48228    94.657578    132955.19   -41616.554    2593.9159    -44210.47    30.840037   0.93936529 
   33700    205.97773   -118.36012    132918.33   -41602.076    2562.7546   -44164.831    31.032263   0.93962578 
   33800    211.64717    46.198894    132896.02   -41591.316    2633.2932    -44224.61    31.093867   0.93978351 
   33900    209.86483    62.351881    133106.53   -41603.034    2611.1175   -44214.152    31.100471   0.93829727 
   34000     210.2385   -64.164414    133105.79   -41563.925    2615.7667   -44179.691    31.034708   0.93830243 
   34100    211.12557     130.2256    133115.16   -41593.767    2626.8034   -44220.571    31.191875   0.93823641 
   34200    207.17952   -17.847673    133076.62   -41598.298    2577.7071   -44176.005    31.269812   0.93850811 
   34300    207.94219    6.3547426    132905.93    -41652.14    2587.1962   -44239.337    31.224605   0.93971348 
   34400    210.31381    14.391909    133025.83   -41584.486    2616.7037   -44201.189    31.171639   0.93886647 
   34500    208.48472      -159.16     132966.1   -41606.734    2593.9463    -44200.68    31.341268    0.9392882 
   34600    212.77505   -85.529746    132999.55   -41592.732    2647.3261   -44240.059    31.374053   0.93905199 
   34700    208.23431    144.35103     132991.6   -41662.558    2590.8307   -44253.389    31.562085   0.93910809 
   34800    212.61571    222.38672    133078.87   -41660.901    2645.3436   -44306.244    31.293424   0.93849231 
   34900    207.23088    40.954858    132985.13   -41666.479    2578.3461   -44244.826     31.37706   0.93915384 
   35000    206.45223    45.234376    132931.78   -41732.692    2568.6583    -44301.35    31.372748   0.93953071 
   35100    207.57925     110.1061    132922.45   -41678.766    2582.6806   -44261.447    31.457579   0.93959665 
   35200    208.09461    6.8954389     132900.2   -41692.235    2589.0925   -44281.328    31.490199   0.93975399 
   35300    210.55495    11.844428    132818.66   -41671.592    2619.7038   -44291.296    31.563769   0.94033088 
   35400    210.76231    105.90283    132827.41    -41681.74    2622.2838   -44304.024    31.331718   0.94026893 
   35500    210.82494    23.656895    132857.75   -41585.364    2623.0631   -44208.427    31.382798   0.94005426 
   35600    208.27695    37.719401    132778.14   -41627.599    2591.3612   -44218.961    31.391467   0.94061788 
   35700    209.62764    85.627165    132894.11   -41587.884    2608.1664    -44196.05    31.465255   0.93979703 
   35800    210.57522    59.663851    132716.53   -41624.637    2619.9561   -44244.593    31.402157   0.94105451 
   35900    210.42141    7.0195215    132866.32   -41583.756    2618.0423   -44201.799    31.331375   0.93999358 
   36000    213.37878    157.99463    133032.35   -41546.609    2654.8377   -44201.447    31.322434   0.93882048 
   36100    212.18405    148.88687    133065.68   -41573.101    2639.9729   -44213.074    31.376231   0.93858527 
   36200    205.49445    20.928231    132909.75   -41605.316    2556.7416   -44162.057    31.347076   0.93968642 
   36300    206.14755  -0.18926084    133021.47   -41645.511    2564.8674   -44210.378    31.456546   0.93889725 
   36400    207.07307    69.405977    133125.79    -41583.62    2576.3827   -44160.003     31.56132   0.93816153 
   36500    212.75614    87.379627     132925.1   -41558.061    2647.0909   -44205.152    31.551647   0.93957792 
   36600    206.43178    -29.62559     132776.9   -41677.256    2568.4038    -44245.66    31.465029   0.94062667 
   36700    205.69534    8.5990739    132696.59   -41621.267    2559.2411   -44180.508    31.396907   0.94119592 
   36800    208.84125    54.093855    132698.21   -41608.133    2598.3822   -44206.515    31.606712   0.94118443 
   36900    208.24581   -0.6491525    132778.86   -41636.235    2590.9738   -44227.209    31.720784   0.94061278 
   37000    212.10194    109.64591    132739.81   -41585.309    2638.9514    -44224.26    31.800697   0.94088947 
   37100    211.81755   -30.532143    132774.03   -41567.353     2635.413   -44202.766    31.882845     0.940647 
   37200    211.78428    22.850467    132868.75   -41624.746    2634.9991   -44259.745    32.014797   0.93997644 
   37300    208.62127    -42.92862    133032.56   -41630.664    2595.6453    -44226.31    31.918152     0.938819 
   37400    208.50306   -83.116198    132982.14   -41661.202    2594.1744   -44255.376    31.935057    0.9391749 
   37500    204.30112   -32.703647     133116.3   -41670.915    2541.8943    -44212.81    32.064244   0.93822835 
   37600    210.81216    124.67796    132952.47   -41621.022     2622.904   -44243.926    32.005121    0.9393845 
   37700    205.63617   -81.691957    132928.44   -41631.142    2558.5049   -44189.647    31.860191   0.93955436 
   37800    204.18661    15.227099    132751.48   -41728.516    2540.4697   -44268.985    31.914998   0.94080678 
   37900    208.36416    37.035287    132568.55   -41692.428    2592.4462   -44284.875    31.967072   0.94210498 
   38000    207.94321   -19.976591    132756.45   -41672.257    2587.2088   -44259.466    32.183006   0.94077156 
   38100    209.00215     115.2163    132729.14   -41631.317    2600.3841   -44231.701    31.916275   0.94096511 
   38200    212.02251    58.931436    132798.08   -41644.063    2637.9631   -44282.027    31.911543   0.94047661 
   38300    214.30867    30.841105    132789.33   -41599.708    2666.4073   -44266.115    32.073682   0.94053863 
   38400    210.79488   -69.499779    132860.16   -41660.965    2622.6891   -44283.654    32.130413   0.94003721 
   38500    205.02767     111.1887    132830.91   -41667.181     2550.934   -44218.115    32.153907   0.94024418 
   38600    210.31874    158.27256    132917.71   -41612.618     2616.765   -44229.383    32.254872   0.93963014 
   38700    215.77552    71.266262    132783.67   -41624.814    2684.6577   -44309.471    32.253105   0.94057872 
   38800    209.82952   -28.713701     132895.7   -41650.551    2610.6781   -44261.229    32.210879   0.93978582 
   38900    209.62822    46.568135    132957.33   -41606.622    2608.1736   -44214.795    32.187764   0.93935014 
   39000    206.01561   -83.677471    132867.57   -41661.433    2563.2258   -44224.659    32.272398   0.93998477 
   39100    210.33062    66.859458    132733.07   -41614.974    2616.9127   -44231.887    32.228231   0.94093723 
   39200    208.59083    40.599198    132792.27    -41637.82    2595.2665   -44233.087    32.276154   0.94051781 
   39300    212.06101     17.59952    132777.23   -41627.102    2638.4422   -44265.544    32.421502   0.94062432 
   39400    214.44023   -101.51209    132688.26   -41590.053    2668.0442   -44258.097    32.300831   0.94125502 
   39500    212.13607     89.89896    132667.54   -41574.276     2639.376   -44213.652    32.415294   0.94140204 
   39600    208.72271   -54.884884    132826.97   -41610.257    2596.9073   -44207.165    32.425945   0.94027211 
   39700    213.10746   -12.746265    132767.71   -41573.274    2651.4619   -44224.736    32.328896   0.94069178 
   39800     210.5909   -159.66404    132665.43   -41640.431    2620.1511   -44260.583    32.294061     0.941417 
   39900    208.98117    100.87825    132729.43   -41667.211    2600.1231   -44267.334    32.410202   0.94096308 
   40000    208.13678    69.704107    132726.89     -41689.7    2589.6173   -44279.318    32.485547    0.9409811 
   40100    209.79234      7.37552    132750.15   -41602.157    2610.2155   -44212.373    32.612776   0.94081617 
   40200    207.81797    195.07417    132782.06   -41626.622    2585.6506   -44212.273    32.570179    0.9405901 
   40300    209.54411    91.822824    132722.68   -41613.636    2607.1271   -44220.763    32.608321   0.94101091 
   40400    214.48877    164.72152    132677.42    -41529.66     2668.648   -44198.308    32.626662   0.94133194 
   40500    212.59692    67.648846    132518.96   -41529.839    2645.1099   -44174.949    32.738357    0.9424575 
   40600    209.71211   -3.0082216    132697.15   -41553.197    2609.2173   -44162.415    32.717411   0.94119199 
   40700    206.88526    42.959858    132612.87   -41596.478     2574.046   -44170.524    32.601205    0.9417901 
   40800    207.97157   -14.891649    132630.23   -41634.248    2587.5617    -44221.81     32.55961   0.94166684 
   40900    204.91931    43.903024    132369.04   -41653.863    2549.5858   -44203.448    32.423761   0.94352491 
   41000    208.07683    128.28695    132622.27   -41571.711    2588.8714   -44160.582    32.591088   0.94172335 
   41100     208.3934   -133.19226    132619.09   -41555.644    2592.8101   -44148.454      32.8375   0.94174597 
   41200    211.94103    26.376002    132561.23   -41559.871    2636.9493    -44196.82    32.870527   0.94215699 
   41300    206.73787     14.17983    132486.65   -41696.619    2572.2121   -44268.831    32.984891   0.94268738 
   41400    204.15376     40.59147    132274.83   -41649.765    2540.0609   -44189.826    32.681416   0.94419695 
   41500    208.14667    190.81111    132332.05   -41658.212    2589.7403   -44247.953    32.644382   0.94378871 
   41600    209.75097    93.001503    132437.59    -41628.54    2609.7008   -44238.241    32.681171   0.94303658 
   41700    210.31776    147.53625    132495.38   -41613.332    2616.7528   -44230.085     32.86129   0.94262524 
   41800     210.4894    82.568189    132507.85   -41624.241    2618.8883   -44243.129    32.890988   0.94253653 
   41900    210.39225    70.191968    132527.27   -41597.089    2617.6796   -44214.768    32.978757   0.94239846 
   42000    208.32107    5.2834902    132380.16   -41581.476    2591.9102   -44173.386     33.06819   0.94344565 
   42100    206.80336    26.708487    132297.01   -41576.222     2573.027   -44149.249    32.966159   0.94403864 
   42200    212.67691    71.188631    132266.55   -41526.551     2646.105   -44172.656    32.968021   0.94425609 
   42300    210.63832    179.57085    132252.66   -41499.187    2620.7411   -44119.929    32.873248   0.94435521 
   42400    210.25039    125.99095     132358.7   -41537.861    2615.9146   -44153.776     32.94201   0.94359866 
   42500    213.43199   -60.128782    132402.47   -41529.969    2655.4997   -44185.469    33.176866   0.94328669 
   42600    205.73437    3.2453797    132239.87   -41535.604    2559.7267    -44095.33    33.276754   0.94444657 
   42700    210.36066    9.0945508    132366.79   -41547.019    2617.2865   -44164.305    33.275382   0.94354098 
   42800     211.8656    250.94444    132202.76   -41505.381    2636.0109   -44141.392     33.26886    0.9447117 
   42900    212.94368    97.837477    132384.63   -41574.135    2649.4242   -44223.559    33.313698   0.94341382 
   43000    210.59231    212.13567    132468.86   -41604.521    2620.1687    -44224.69    33.209099   0.94281398 
   43100    209.98714   -129.20515    132216.13   -41591.667    2612.6392   -44204.307    33.143029   0.94461618 
   43200    214.83285    -22.90589    132098.94   -41561.114    2672.9291   -44234.043    33.122775   0.94545412 
   43300    210.65955   -54.548468    132217.69   -41574.984    2621.0053   -44195.989    33.258704   0.94460498 
   43400    212.15254    165.32421    132448.66   -41535.492    2639.5809   -44175.073    33.261283   0.94295777 
   43500    213.63866    35.917834    132562.85   -41539.174    2658.0711   -44197.245    33.633505   0.94214547 
   43600    215.70149   -21.519796     132691.9   -41457.372    2683.7366   -44141.109    33.670233   0.94122919 
   43700    212.70696     152.7553    132480.09   -41495.996    2646.4789   -44142.475    33.777585   0.94273406 
   43800    210.24157   -1.7056798    132438.18   -41497.096    2615.8048   -44112.901    33.604154   0.94303234 
   43900    209.77044    133.26989    132525.82    -41551.22    2609.9431   -44161.163    33.625205   0.94240874 
   44000     208.9994    48.733918    132582.08   -41566.748    2600.3499   -44167.098     33.61969   0.94200882 
   44100    209.55416    -63.21814    132608.77   -41578.795    2607.2521   -44186.047    33.732023   0.94181927 
   44200    207.58905    119.14937    132587.58   -41610.901    2582.8024   -44193.703     33.96407   0.94196978 
   44300    213.16581    36.873086    132518.58   -41621.279    2652.1879   -44273.467    33.935634   0.94246022 
   44400     207.7028    1.6750107    132503.08   -41594.689    2584.2177   -44178.907    33.943969   0.94257045 
   44500     209.6196   -36.265713     132404.7   -41632.255    2608.0663   -44240.321    33.863829   0.94327085 
   44600    207.64255    17.904664    132328.99   -41698.043    2583.4681   -44281.511    33.998332   0.94381053 
   44700    209.82544    157.67358    132338.94   -41667.475    2610.6274   -44278.102    33.867191   0.94373951 
   44800     211.0616    58.026681    132369.27   -41629.224    2626.0076   -44255.232    33.871917   0.94352334 
   44900    210.27272     103.6801    132432.23   -41581.277    2616.1924    -44197.47    34.110442   0.94307472 
   45000    207.94939   -3.8888103    132310.26   -41580.561    2587.2857   -44167.847     33.90386    0.9439441 
   45100    211.17632    53.344596    132563.29   -41516.714    2627.4348   -44144.149    34.033251   0.94214235 
   45200    210.47464    19.377769    132546.75    -41574.84    2618.7047   -44193.545    34.035056   0.94225992 
   45300    209.46886   -22.272296    132591.97   -41599.819    2606.1909    -44206.01    34.123934    0.9419386 
   45400    211.56906    201.38428    132731.25   -41574.351    2632.3214   -44206.672     34.19486   0.94095016 
   45500    211.21457    209.29573       132709   -41593.819    2627.9108   -44221.729    34.188715    0.9411079 
   45600    215.54742    35.187221    132571.91   -41587.764    2681.8197   -44269.583    34.074672   0.94208107 
   45700    210.41912    59.123913    132750.81   -41611.175    2618.0139   -44229.189    34.381944   0.94081148 
   45800    213.45056    29.022553     132612.5   -41580.597    2655.7308   -44236.328    34.279113   0.94179273 
   45900    214.26829     79.31699    132649.92   -41526.269    2665.9048   -44192.174     34.36915   0.94152708 
   46000    215.92672    209.07941    132731.39   -41520.266    2686.5389   -44206.805    34.432486   0.94094916 
   46100     218.9886   -33.783079    132589.91   -41473.427    2724.6345   -44198.062    34.275824   0.94195323 
   46200    216.56511   -20.853674    132553.55   -41473.329    2694.4816    -44167.81     34.41577   0.94221157 
   46300    214.03534    37.898001    132414.13   -41492.697    2663.0065   -44155.703     34.43296   0.94320364 
   46400    214.24002    126.29758     132672.7   -41519.224    2665.5531   -44184.777    34.680386   0.94136541 
   46500     214.7364     23.25701     132513.8   -41529.962    2671.7291   -44201.691    34.611131   0.94249425 
   46600    214.00301    48.378172    132544.75   -41519.766    2662.6043    -44182.37    34.351682   0.94227415 
   46700    208.19154   -47.970859    132459.04   -41599.276    2590.2986   -44189.575    34.462939   0.94288384 
   46800    207.70987    90.213976     132493.1   -41627.633    2584.3056   -44211.939    34.622266   0.94264147 
   46900    210.28461    113.01942    132476.03   -41557.446    2616.3404   -44173.786     34.69689   0.94276296 
   47000    209.54233    54.885976     132511.7   -41537.873     2607.105   -44144.978    34.667544   0.94250918 
   47100    213.86338   -9.3577274    132408.71   -41519.939     2660.867   -44180.806    34.717673   0.94324225 
   47200    206.99956    165.77364    132351.77   -41570.992    2575.4681   -44146.461    34.748552   0.94364807 
   47300    212.45279    78.120503    132258.11   -41606.137    2643.3166   -44249.454    34.914908   0.94431634 
   47400    211.72495    97.448342    132356.05   -41576.701    2634.2609   -44210.962    34.716549   0.94361755 
   47500     215.8172    154.83039    132408.27   -41521.988    2685.1763   -44207.164    34.829416   0.94324539 
   47600    216.19811    40.477157    132380.98   -41483.718    2689.9155   -44173.633    34.893241   0.94343983 
   47700    213.77858    12.803944    132158.15   -41559.019    2659.8119   -44218.831    34.669946   0.94503056 
   47800    214.03681    106.44179    132311.37   -41557.051    2663.0248   -44220.076    34.898557   0.94393618 
   47900    209.24443    26.475817     132271.8   -41641.694    2603.3985   -44245.093     34.86119   0.94421856 
   48000    207.10209   -33.795049    132263.28   -41663.727    2576.7437    -44240.47    34.859957   0.94427942 
   48100    207.82922    97.828682    132194.61   -41625.335    2585.7906   -44211.125    35.090137   0.94476995 
   48200    205.60412   -110.47875    132188.32   -41648.813    2558.1062   -44206.919    34.912025    0.9448149 
   48300    205.45551    10.849383    132225.26   -41621.957    2556.2571   -44178.215    35.005877   0.94455094 
   48400    213.60623    45.847666    132130.47   -41544.018    2657.6676   -44201.686     34.93928   0.94522851 
   48500    212.36239    88.147088    132192.05   -41609.017    2642.1918   -44251.209    34.956379   0.94478825 
   48600    210.67212   -66.436199    132158.07   -41614.628    2621.1617    -44235.79    35.082722   0.94503112 
   48700    209.58899     33.94621    132382.18   -41585.771    2607.6855   -44193.457    34.975277   0.94343131 
   48800     212.1174    59.000817    132318.68   -41620.673    2639.1437   -44259.817    35.049685   0.94388408 
   48900    208.66791    51.307261    132407.64   -41607.555    2596.2255    -44203.78    35.050912   0.94324985 
   49000    214.89428   -6.5669263    132378.01   -41655.135    2673.6934   -44328.828    35.260603     0.943461 
   49100    207.66509   -26.708531    132398.15   -41654.858    2583.7485   -44238.607    35.183444   0.94331747 
   49200     208.1096    93.744544     132454.7   -41680.122     2589.279   -44269.401    35.226557   0.94291479 
   49300    211.09254    26.230364    132508.25   -41640.549    2626.3926   -44266.941    35.370028   0.94253368 
   49400     212.7502    109.77351    132596.64   -41622.392     2647.017   -44269.409    35.164355   0.94190543 
   49500    210.17649   -50.393466    132483.75   -41639.759    2614.9951   -44254.754     35.18963     0.942708 
   49600    211.50205    146.20047    132545.16   -41640.408    2631.4876   -44271.896    35.170748   0.94227121 
   49700    210.90949    83.115025       132503   -41653.015    2624.1151    -44277.13    35.360442   0.94257108 
   49800     212.0434    139.43822    132402.47   -41698.415     2638.223   -44336.638    35.318984   0.94328672 
   49900    209.82207     125.6858    132372.86   -41593.711    2610.5855   -44204.296    35.276165   0.94349773 
   50000    212.54374    141.52056    132561.37   -41629.981    2644.4482   -44274.429    35.250278   0.94215597 
   50100    209.26156    51.006069     132590.9   -41650.973    2603.6116   -44254.585    35.225751   0.94194615 
   50200     209.2529    156.98768    132532.08   -41692.618    2603.5039   -44296.122    35.194303   0.94236423 
   50300     215.7819    97.464906    132465.34   -41666.606    2684.7371   -44351.343    35.328131   0.94283902 
   50400    209.92812    8.4685914     132480.5   -41691.238    2611.9049   -44303.143    35.272739    0.9427311 
   50500     208.5453   -19.925265    132527.79   -41729.261    2594.7001   -44323.961    35.406366   0.94239474 
   50600    208.35253    87.562244     132512.2   -41741.083    2592.3016   -44333.384    35.396286    0.9425056 
   50700    204.24433   -56.991239    132662.66   -41746.521    2541.1878   -44287.708    35.223293   0.94143667 
   50800    205.36501    62.189303    132549.49   -41739.032    2555.1312   -44294.163    35.295758   0.94224044 
   50900    213.10467    47.622174    132611.18   -41652.749    2651.4272   -44304.177    35.192722   0.94180213 
   51000    205.39355    90.629045    132709.79   -41680.145    2555.4863   -44235.631    35.353592   0.94110234 
   51100    209.12695    107.61026     132700.7   -41711.744    2601.9368   -44313.681    35.299908   0.94116679 
   51200    210.29409   -52.181997    132644.41   -41699.523    2616.4583   -44315.981     35.51234   0.94156617 
   51300    206.90121    42.482986    132482.86   -41750.386    2574.2444   -44324.631    35.436265   0.94271436 
   51400    205.85736   -63.262728    132357.92   -41751.073     2561.257    -44312.33    35.479951    0.9436042 
   51500    207.45041    107.67176     132457.3    -41749.34    2581.0774   -44330.418    35.492195   0.94289624 
   51600    208.26236    75.369647    132570.28   -41691.049    2591.1797   -44282.229     35.56612   0.94209269 
   51700    211.72338   -55.764732    132637.64   -41673.018    2634.2414   -44307.259    35.569165   0.94161424 
   51800    206.81694    271.48335    132766.94   -41711.756     2573.196   -44284.952    35.611747   0.94069722 
   51900    207.22178   -42.791717    132687.23   -41752.325    2578.2329   -44330.558    35.645764   0.94126231 
   52000     201.9992   -18.324168     132623.2   -41766.819     2513.254   -44280.073    35.740667   0.94171677 
   52100    207.54384    102.31176     132735.3   -41717.406      2582.24   -44299.646    35.648941   0.94092147 
   52200    206.77723    150.74451    132768.27   -41728.441    2572.7019   -44301.143    35.649904   0.94068782 
   52300    212.48629    41.344156    132837.31   -41709.031    2643.7335   -44352.764    35.684135   0.94019885 
   52400    209.15947    147.58289    132968.49   -41665.183    2602.3415   -44267.525    35.863206   0.93927131 
   52500    209.58283    90.064872    132989.49   -41660.397    2607.6089   -44268.006     35.93898   0.93912305 
   52600    208.01438    -18.71729    133125.45   -41694.406    2588.0944   -44282.501    36.016061   0.93816388 
   52700    206.98247    105.56714    133067.64   -41717.339    2575.2555   -44292.594    35.930705   0.93857148 
   52800    208.60261   -39.508596    133098.73   -41686.698    2595.4131   -44282.112    36.098061   0.93835222 
   52900    212.88419   -35.917934    133037.34    -41684.61    2648.6841   -44333.294    36.118614   0.93878526 
   53000    214.37552    164.61132    132974.49   -41665.251    2667.2391    -44332.49    36.246441   0.93922895 
   53100     207.1216    87.551872    132997.72   -41712.781    2576.9865   -44289.768    36.143066   0.93906491 
   53200    213.92777    188.78502     133185.6   -41709.346    2661.6682   -44371.014    36.112044   0.93774019 
   53300    209.62124    106.74687    133190.59   -41713.255    2608.0868   -44321.342    36.246109    0.9377051 
   53400    205.70561    -133.8114    133149.26   -41790.322    2559.3689   -44349.691    36.234746   0.93799611 
   53500    202.64584    29.376933     133079.7   -41790.158    2521.2996   -44311.458    36.287234   0.93848645 
   53600     210.0931    86.340485    133048.59   -41797.744    2613.9576   -44411.701    36.395849   0.93870588 
   53700    204.86105    3.7324109    132915.97    -41828.87    2548.8609   -44377.731     36.20264    0.9396425 
   53800    207.24473   -89.358608    132872.25   -41708.364    2578.5185   -44286.883     36.26433   0.93995165 
   53900    208.87816   -76.459676    132830.65   -41752.805    2598.8414   -44351.646    36.312825   0.94024605 
   54000    207.09318    91.159883    132817.13   -41723.631    2576.6329   -44300.264    36.176062   0.94034171 
   54100    210.29369    51.664713    133005.95   -41739.706    2616.4533    -44356.16    36.254265    0.9390068 
   54200    213.73313     36.63926    132953.26   -41720.092    2659.2464   -44379.339    36.249716   0.93937891 
   54300    210.45653    174.02439    132982.94    -41694.05    2618.4794    -44312.53    36.377304   0.93916924 
   54400    209.21619  -0.16225008    132996.34   -41719.626    2603.0471   -44322.673    36.348049   0.93907462 
   54500     207.7138    29.167782    132955.28   -41695.532    2584.3545   -44279.886    36.346807   0.93936466 
   54600    211.28445    55.193631    132898.78    -41607.55    2628.7803    -44236.33    36.451119   0.93976404 
   54700    212.48493    66.112508    132847.89   -41623.701    2643.7165   -44267.417    36.355219   0.94012398 
   54800    209.18463   -63.663327    132788.61   -41693.904    2602.6545   -44296.558    36.185979    0.9405437 
   54900    210.85787    156.88873    132777.35   -41733.386    2623.4728   -44356.859    36.246219   0.94062349 
   55000     207.6533    105.43869    132630.63   -41788.425    2583.6018   -44372.027    36.400425   0.94166398 
   55100    205.50377    117.60465    132638.29   -41762.055    2556.8575   -44318.913    36.594539    0.9416096 
   55200    209.13441    97.352692    132607.63   -41769.616    2602.0297   -44371.645    36.523055   0.94182732 
   55300    206.99365    3.9916357    132565.65   -41722.975    2575.3946    -44298.37    36.491626   0.94212561 
   55400    212.26859    50.339763    132593.33   -41697.825    2641.0248    -44338.85    36.525305   0.94192889 
   55500    209.48105    81.215994     132656.8    -41632.16    2606.3425   -44238.502    36.549989   0.94147825 
   55600    210.36621   -58.873553     132516.7   -41680.396    2617.3556   -44297.752    36.528588    0.9424736 
   55700    208.36522    160.44948    132596.92   -41674.998    2592.4595   -44267.458    36.516665   0.94190342 
   55800    211.49265     46.20806     132559.8   -41684.152    2631.3706   -44315.523    36.652113   0.94216716 
   55900    214.11627    115.45851    132592.91   -41663.808    2664.0134   -44327.822    36.745772   0.94193192 
   56000    208.48041    29.592039    132583.21   -41660.462    2593.8926   -44254.354    36.513918   0.94200078 
   56100    213.19319    69.705014    132725.39   -41625.627    2652.5286   -44278.156    36.703567    0.9409917 
   56200    207.65178    214.40677    132813.59   -41627.957    2583.5829   -44211.539    36.804426   0.94036682 
   56300     211.0456    24.267587    132847.61   -41659.873    2625.8085   -44285.682    36.839746   0.94012603 
   56400    211.05984     94.44009    132780.18   -41651.961    2625.9857   -44277.947    36.849855   0.94060341 
   56500    208.48352    17.678342    132754.23   -41733.751    2593.9313   -44327.683    36.916897   0.94078731 
   56600    206.61717    70.917147    132890.51   -41758.873    2570.7104   -44329.583    36.815008    0.9398225 
   56700    208.85092    44.748417     132853.6   -41784.715    2598.5026   -44383.218    36.735815    0.9400836 
   56800    213.80815    42.260607    132757.97   -41715.337    2660.1798   -44375.517    36.773755   0.94076075 
   56900    209.97927    74.660176    132729.61   -41693.901    2612.5413   -44306.442    37.010695   0.94096177 
   57000    211.75963    118.92359    132726.52   -41640.138    2634.6924    -44274.83    36.939913    0.9409837 
   57100    207.94548   -24.986432    132674.07   -41702.303    2587.2371    -44289.54    36.966965    0.9413557 
   57200    209.20218    17.850739    132639.78    -41743.65    2602.8729   -44346.522    36.993084   0.94159903 
   57300    206.81553    21.542893    132596.08   -41792.277    2573.1784   -44365.455    36.810646    0.9419094 
   57400    206.54712    22.639517    132669.23   -41793.653    2569.8388   -44363.491    36.864758   0.94139006 
   57500    204.90344     78.61362    132734.13   -41833.671    2549.3883   -44383.059    37.059274   0.94092976 
   57600    206.34858    82.738407    132684.19   -41797.675    2567.3687   -44365.043    37.126973    0.9412839 
   57700    207.12985    99.848972    132713.88   -41834.613    2577.0892   -44411.702    36.961104   0.94107335 
   57800    204.06807    60.365797     132641.5   -41859.224    2538.9947   -44398.219    36.927631   0.94158684 
   57900    206.80911    63.379034    132594.51   -41830.146    2573.0985   -44403.244    37.006149   0.94192053 
   58000    203.42082    2.4644457    132614.91   -41823.162    2530.9417   -44354.104    37.011433   0.94177566 
   58100      206.297    50.469309    132649.96   -41752.784    2566.7269   -44319.511    36.928893   0.94152677 
   58200    211.78045    27.159169    132404.43   -41691.112    2634.9514   -44326.063    37.096153   0.94327279 
   58300    214.37494    72.182769     132478.5   -41626.211    2667.2318   -44293.443    37.128231   0.94274537 
   58400    209.51674    105.32621    132491.34   -41633.126    2606.7865   -44239.913    37.176361     0.942654 
   58500    210.61977    131.20274    132402.29   -41637.331    2620.5103   -44257.842    37.212757   0.94328798 
   58600    214.21011     44.52426    132477.05   -41606.869     2665.181    -44272.05    37.244969   0.94275571 
   58700    212.88785    71.918141     132578.6   -41611.692    2648.7296   -44260.421    37.104033   0.94203355 
   58800    210.89654    29.860636    132444.49   -41663.707     2623.954   -44287.661    37.223601   0.94298746 
   58900    210.69457    44.335379    132366.84   -41704.411    2621.4411   -44325.852    37.344435   0.94354065 
   59000    210.51903    81.495376    132450.14   -41686.808    2619.2569   -44306.064    37.155068   0.94294719 
   59100    207.64443     -36.7934    132251.17   -41686.399    2583.4914    -44269.89    37.165731   0.94436587 
   59200    207.96404    110.49099    132305.01   -41693.689     2587.468   -44281.157    37.289144   0.94398158 
   59300    211.93209   -18.309123    132214.35   -41690.089    2636.8381   -44326.927     37.21717   0.94462885 
   59400    211.51118    78.071642       132336   -41735.887    2631.6012   -44367.488    37.481467   0.94376052 
   59500    211.28264    123.61721    132595.67   -41704.123    2628.7577   -44332.881    37.540917    0.9419123 
   59600     210.5844    -3.624162    132370.92   -41695.837    2620.0703   -44315.907    37.515688   0.94351153 
   59700     210.0021    38.996732    132494.54   -41712.158    2612.8254   -44324.983     37.50716   0.94263125 
   59800    205.98196     175.4574    132559.58   -41697.167    2562.8071   -44259.974     37.62271   0.94216871 
   59900    210.40945    123.46334       132572   -41670.546    2617.8935   -44288.439    37.631175   0.94208047 
   60000    208.61471     120.7521    132663.58   -41703.166    2595.5635    -44298.73    37.596906    0.9414301 
   60100    208.48507    164.82469    132657.99   -41672.343    2593.9506   -44266.293     37.60398   0.94146979 
   60200    211.91464    69.653304    132843.23   -41652.383     2636.621   -44289.004    37.721854   0.94015698 
   60300    214.79933    6.0874759    132680.77   -41616.735     2672.512   -44289.247    37.836481   0.94130815 
   60400    212.97493    68.979384    132757.72   -41573.897    2649.8131    -44223.71    37.720081   0.94076253 
   60500    213.07371    68.520931    132691.49   -41608.182     2651.042   -44259.224    37.793143   0.94123208 
   60600     209.0247   -8.5594327    132604.61    -41656.35    2600.6646   -44257.015    37.734136   0.94184875 
   60700    211.90206    129.24011    132510.78   -41681.228    2636.4644   -44317.693    37.928165   0.94251574 
   60800    212.01369     41.01556    132661.23    -41643.07    2637.8534   -44280.923    37.974982   0.94144681 
   60900    208.16545     37.61957    132652.66   -41636.847     2589.974    -44226.82    37.926462   0.94150762 
   61000    210.20659    17.668472    132672.29    -41676.34    2615.3696   -44291.709    37.940023   0.94136835 
   61100    208.20031    279.61997    132629.04   -41714.385    2590.4076   -44304.793    37.998908   0.94167528 
   61200    206.01353    80.892928    132680.11   -41709.177    2563.1999   -44272.377    38.036548   0.94131284 
   61300    210.81282    65.226746    132724.74   -41695.523    2622.9122   -44318.435    38.056267   0.94099628 
   61400    206.76644   -38.416741    132641.09   -41722.878    2572.5676   -44295.446    38.161618   0.94158972 
   61500    209.76565    203.31371    132652.49   -41716.765    2609.8835   -44326.648    38.217096   0.94150884 
   61600    207.99515    107.06103    132743.98   -41666.363    2587.8551   -44254.218    38.148117   0.94085989 
   61700    210.58493   -4.2733461    132660.78   -41723.445    2620.0769   -44343.521    38.128493      0.94145 
   61800    203.26991   -124.54608    132473.96   -41782.924    2529.0641   -44311.989    37.981146   0.94277765 
   61900    206.48835    145.47971    132582.02   -41709.801    2569.1077   -44278.909    37.963091   0.94200929 
   62000    209.28538    40.651724    132624.06   -41661.452     2603.908    -44265.36     38.15251   0.94171065 
   62100     208.0481    47.518848    132519.47   -41672.526    2588.5139    -44261.04    38.260304    0.9424539 
   62200    205.81008    64.806889    132437.15   -41622.731    2560.6687     -44183.4    38.230115    0.9430397 
   62300    206.59338    72.727254    132326.18   -41660.501    2570.4144   -44230.916    38.243139   0.94383055 
   62400    206.80603    99.975608    132360.14   -41597.592    2573.0602   -44170.652    38.311291   0.94358836 
   62500     206.2515    64.085462    132312.32   -41612.925    2566.1608   -44179.086    38.229696   0.94392941 
   62600    211.09737    77.324498    132360.31   -41616.872    2626.4526   -44243.325    38.203463   0.94358717 
   62700    207.72182    78.226222    132408.15    -41638.71    2584.4543   -44223.165    38.294259   0.94324623 
   62800     209.3374    13.137491    132359.51   -41621.835    2604.5553    -44226.39     38.32317   0.94359289 
   62900    209.21937    106.45893    132328.05   -41569.583    2603.0867    -44172.67    38.307764   0.94381722 
   63000    212.45904    63.129634    132312.74   -41542.782    2643.3944   -44186.177    38.441167   0.94392645 
   63100    210.26426    114.49431    132284.82   -41540.609    2616.0871   -44156.696    38.504698   0.94412568 
   63200    211.02945    226.81724    132478.72   -41576.108    2625.6076   -44201.715    38.504108   0.94274378 
   63300    208.56239    105.23103    132670.72   -41627.793    2594.9126   -44222.705      38.7012   0.94137947 
   63400    218.72057    64.955311    132752.65   -41560.492    2721.2997   -44281.792    38.721523   0.94079848 
   63500    208.36932    129.57037    132638.51   -41658.662    2592.5105   -44251.172     38.74396   0.94160805 
   63600    211.24664    265.62168    132770.61   -41657.833    2628.3098   -44286.143     38.79784   0.94067119 
   63700     208.2546    97.732629    133082.73   -41660.934    2591.0831   -44252.017    38.807728   0.93846505 
   63800    206.94196   -100.68666    133082.42   -41767.704    2574.7514   -44342.455    38.728086   0.93846724 
   63900    204.31079    219.02851    132921.55   -41763.826    2542.0146    -44305.84    38.767071   0.93960304 
   64000    205.97012    118.32482     132972.3   -41739.939    2562.6599   -44302.599    38.908296   0.93924444 
   64100    208.78373    115.97504    132980.86   -41670.502    2597.6665   -44268.168     38.97954   0.93918396 
   64200    210.77906    148.75198    132990.88   -41666.015    2622.4923   -44288.508       39.028   0.93911321 
   64300    216.04899    104.92662    133109.03   -41588.866    2688.0602   -44276.926    39.061057   0.93827964 
   64400     211.1627   -28.060042    133055.02   -41617.696    2627.2654   -44244.962    39.080204   0.93866051 
   64500    212.77305    2.7243783    132996.94    -41609.21    2647.3013   -44256.511    38.959411    0.9390704 
   64600    211.11264    129.46452    133133.25   -41667.577    2626.6426    -44294.22    38.891005   0.93810894 
   64700    212.77821    115.00193    133150.26   -41695.572    2647.3654   -44342.937    38.939623   0.93798909 
   64800     207.6952    10.227916    133133.57   -41715.145    2584.1232   -44299.268     39.03777   0.93810667 
   64900    209.97417     142.6574    133073.35   -41706.213    2612.4778   -44318.691    39.010327   0.93853124 
   65000    213.81501    129.92311     133092.6   -41677.201    2660.2652   -44337.466    38.992266   0.93839547 
   65100    210.23488    3.4173626    133086.87   -41691.292    2615.7216   -44307.014    38.975774   0.93843588 
   65200    208.35225   -131.77857    132972.34   -41688.129     2592.298   -44280.427    39.158882   0.93924412 
   65300    207.60787    169.58199    132981.24   -41687.542    2583.0366   -44270.578    39.204079   0.93918127 
   65400    212.08109    75.020534    132883.94   -41625.921     2638.692   -44264.613    39.068719   0.93986898 
   65500    211.20598    82.903963    132852.62   -41684.036    2627.8039    -44311.84    38.984747   0.94009054 
   65600    207.37847    207.32919    132923.25   -41726.919    2580.1825   -44307.101    39.118507     0.939591 
   65700    205.20231    47.631218    132898.63   -41765.769    2553.1069   -44318.876    39.275051   0.93976507 
   65800    207.78507    52.019844    132929.57   -41770.927    2585.2413   -44356.169    38.987439   0.93954631 
   65900    208.80114    126.64716    132765.19   -41741.319    2597.8831   -44339.202     39.15952   0.94070965 
   66000    210.83393   -29.063647     132767.4   -41645.417    2623.1749   -44268.592    39.165973   0.94069395 
   66100    211.92612     69.20463    132621.95   -41591.202    2636.7639   -44227.966     39.05329   0.94172564 
   66200      214.635    80.876504     132735.9   -41566.728    2670.4675   -44237.196     39.05318    0.9409172 
   66300    213.84267    88.206911     132776.7    -41611.28    2660.6094    -44271.89     39.15381   0.94062805 
   66400    208.34079    59.980318    132760.01   -41659.355    2592.1555    -44251.51    39.258189    0.9407463 
   66500     208.5585   -32.706804    132746.17   -41670.406    2594.8642    -44265.27    39.309909    0.9408444 
   66600    207.67404    49.077609    132593.11   -41681.603    2583.8599   -44265.463    39.325411   0.94193051 
   66700    208.35657    136.55182    132696.69   -41703.129    2592.3518    -44295.48    39.325988   0.94119524 
   66800     210.7879    64.300439    132678.96   -41646.852    2622.6022   -44269.454    39.421661   0.94132097 
[...]
   84600    207.98178    74.428783    133060.58   -41763.995    2587.6888   -44351.683    43.245556   0.93862124 
   84700    206.59042    107.30796    132952.76    -41767.66    2570.3775   -44338.037    43.278746   0.93938245 
   84800    206.79631    85.242672    132919.66   -41739.156    2572.9392   -44312.095    43.222272   0.93961637 
   84900    208.67393    88.465091    133004.89   -41729.604    2596.3004   -44325.904    43.237533    0.9390143 
   85000     211.3074    104.68901    133096.94   -41684.536    2629.0658   -44313.602    43.240077   0.93836487 
   85100    210.16453    27.293981    133009.82   -41686.792    2614.8463   -44301.638    43.185636   0.93897948 
   85200    206.55745    128.57167    133100.71   -41689.534    2569.9674   -44259.501     43.15249   0.93833825 
   85300    208.20156    49.912394    132981.09   -41719.207    2590.4232    -44309.63    43.203809   0.93918237 
   85400    209.35245   -76.938054    132886.89    -41696.42    2604.7425   -44301.163    43.247636   0.93984808 
   85500    208.41617    68.699688    132855.95   -41656.957    2593.0934   -44250.051    43.264619   0.94006695 
   85600    210.15665    111.20823    132954.04   -41629.177    2614.7482   -44243.925    43.423765   0.93937343 
   85700    209.31436     86.31467    132890.24   -41660.284    2604.2686   -44264.552    43.443866   0.93982444 
   85800    205.45723    122.48956    132845.29   -41657.166    2556.2785   -44213.445    43.392328   0.94014238 
   85900    209.21452    102.08019    133136.57   -41559.193    2603.0264   -44162.219    43.533425   0.93808551 
   86000    210.25571    135.47603     133104.9   -41615.494    2615.9808   -44231.475     43.48956   0.93830871 
   86100    211.34153   -87.532638    133109.38   -41614.277    2629.4905   -44243.768    43.514713   0.93827715 
   86200    208.32971   -10.193087    132934.64   -41577.444    2592.0176   -44169.462    43.530336   0.93951052 
   86300    210.29098    -54.76191    132887.65   -41603.116    2616.4195   -44219.535    43.598612   0.93984273 
   86400    209.06907    145.55837    132914.28   -41620.919    2601.2167   -44222.136    43.460316   0.93965442 
   86500    213.20724    -40.57545    132993.34   -41602.328    2652.7034   -44255.032    43.636053    0.9390958 
   86600    214.96807   -25.134135    133029.35   -41546.929    2674.6115   -44221.541    43.505723   0.93884161 
   86700    210.20652   -98.496491    133087.16   -41549.848    2615.3687   -44165.217    43.642442   0.93843383 
   86800    209.31576    109.68451    133036.37   -41621.224     2604.286    -44225.51    43.713059   0.93879207 
   86900    214.93575   -2.6212206    133001.31   -41599.856    2674.2094   -44274.065    43.637375   0.93903952 
   87000    209.89633   -5.7154626    132881.18    -41610.03    2611.5094    -44221.54    43.662385   0.93988851 
   87100      208.776    69.731773    132863.96   -41643.693    2597.5704   -44241.263     43.56755   0.94001029 
   87200    210.69913   -29.237218    132909.32   -41643.001    2621.4978   -44264.499     43.60445   0.93968947 
   87300    209.32594     31.04988    132778.63   -41649.086    2604.4126   -44253.498    43.630929   0.94061439 
   87400    210.24432   -85.207751    132725.27   -41661.031    2615.8391    -44276.87    43.618555   0.94099254 
   87500    211.07135     69.38057    132611.39   -41670.583    2626.1289   -44296.712    43.467377   0.94180066 
   87600    206.68792   -44.072136    132793.45   -41683.016    2571.5907   -44254.606    43.788837   0.94050942 
   87700    211.30524    135.35297    132694.51   -41681.107    2629.0389   -44310.146    43.710241    0.9412107 
   87800    209.29664    38.532862    132699.38   -41659.894    2604.0481   -44263.942    43.877572   0.94117617 
   87900     208.2258    -131.4595    132602.98   -41668.706    2590.7248   -44259.431    43.616471   0.94186037 
   88000    205.79647    70.433022    132640.28   -41692.392    2560.4994   -44252.892    43.607378    0.9415955 
   88100    211.82917    45.471945    132733.79   -41631.988    2635.5577   -44267.546    43.623887   0.94093219 
   88200     213.5094    31.374418    132695.19   -41606.245    2656.4629   -44262.708    43.776936    0.9412059 
   88300    209.88782    46.436525    132596.47     -41633.9    2611.4035   -44245.304    43.762164   0.94190662 
   88400     207.2864   -30.587657    132544.31   -41732.617    2579.0369   -44311.654    43.726399   0.94227727 
   88500    214.83979   -33.411936    132561.63   -41638.118    2673.0154   -44311.133    43.764938   0.94215419 
   88600    211.59205    113.49188     132540.4   -41591.007    2632.6073   -44223.614    43.916353   0.94230504 
   88700    208.49022    67.085965    132747.78    -41572.46    2594.0147   -44166.475    44.171342   0.94083302 
   88800    218.41104    139.90052    132644.54   -41518.466    2717.4486   -44235.915    44.095929   0.94156526 
   88900    212.10786    11.359846    132617.55   -41570.158     2639.025   -44209.183    43.939635   0.94175689 
   89000    212.39339    90.814167    132689.84   -41555.174    2642.5776   -44197.751    43.937018   0.94124378 
   89100    206.64902   -31.918933    132650.22   -41648.244    2571.1067   -44219.351    43.963364   0.94152497 
   89200    204.21563    85.974738    132583.72   -41682.919    2540.8307    -44223.75    44.095623   0.94199719 
   89300     211.7158    195.36723    132654.69   -41690.251    2634.1471   -44324.398    44.018977   0.94149322 
   89400    209.48411    67.675901    132877.79   -41723.934    2606.3806   -44330.315    44.001181   0.93991248 
   89500    207.50077    42.286954    132915.15   -41762.195     2581.704   -44343.899    44.262594   0.93964828 
   89600    205.36939    -8.910033    133041.03   -41811.108    2555.1856   -44366.294    44.177438   0.93875917 
   89700    209.36494    141.82912    133137.55   -41774.366    2604.8978   -44379.264    44.139231   0.93807862 
   89800    204.97034    140.47568    133031.48   -41741.808    2550.2207   -44292.028    44.194737   0.93882661 
   89900    204.74243    118.56434    132967.74   -41799.368     2547.385   -44346.753    44.141199   0.93927664 
   90000    211.35538    35.888216    133067.34   -41718.213    2629.6627   -44347.875    44.323975   0.93857362 
   90100    205.94329   -25.834469    133113.34   -41720.605     2562.326   -44282.932    44.344556   0.93824924 
   90200    204.51251   -108.01511    133034.35   -41752.328    2544.5244   -44296.853    44.293471   0.93880636 
   90300    206.07871    74.013605    133002.33   -41757.757    2564.0109   -44321.768    44.371984   0.93903236 
   90400    210.22556    84.566162     133078.8   -41745.617    2615.6057   -44361.223    44.466534   0.93849278 
   90500    209.86144    70.339302    133063.47   -41707.972    2611.0752   -44319.047    44.524035    0.9386009 
   90600    211.00782    21.562599    133009.07   -41621.515    2625.3384   -44246.853    44.564217   0.93898479 
   90700    213.41196   -87.538844    133068.93   -41629.582    2655.2506   -44284.833    44.486087   0.93856236 
   90800    211.15936   -43.897668    132956.38   -41672.074    2627.2239   -44299.298     44.55113   0.93935688 
   90900    207.92029    179.45948    132851.12   -41759.975    2586.9238   -44346.898    44.516164   0.94010113 
   91000    203.79117    55.082385    132944.62    -41761.72    2535.5497   -44297.269    44.457565   0.93943999 
   91100    205.71182    105.56347    133035.34   -41751.055    2559.4462   -44310.501    44.600644   0.93879932 
   91200    207.10742    86.981671    133021.32   -41706.145    2576.8101   -44282.955    44.656695   0.93889833 
   91300    214.31447    -64.92629    132928.52   -41625.884    2666.4794   -44292.363    44.683775   0.93955379 
   91400    213.69744    17.814765    132735.87   -41599.824    2658.8024   -44258.626    44.712068    0.9409174 
   91500    211.47168    229.96627    132781.86   -41600.966    2631.1097   -44232.076    44.688655   0.94059154 
   91600    212.78714    59.547852    132711.42   -41641.389    2647.4766   -44288.865    44.744912   0.94109078 
   91700     210.0163    114.04527    132685.61   -41703.543    2613.0021   -44316.545      44.6252   0.94127384 
   91800     209.1623    -46.00956    132736.69   -41671.291    2602.3767   -44273.668    44.882963   0.94091162 
   91900    208.85204     41.29798     132721.3   -41674.622    2598.5164   -44273.138    44.726774    0.9410207 
   92000    210.44401    190.44653    132786.36   -41679.551    2618.3236   -44297.875    44.765647   0.94055962 
   92100    210.33583   -15.076919    132781.31   -41719.741    2616.9776   -44336.719    44.858846    0.9405954 
   92200    208.14133    10.108584    132732.57   -41671.318    2589.6738   -44260.992    44.813054   0.94094078 
   92300    210.81501   -31.618301    132815.11   -41591.761    2622.9395   -44214.701    45.032273   0.94035602 
   92400    212.20449  -0.67744295     132873.1   -41603.977    2640.2272   -44244.204    44.865502   0.93994566 
   92500    209.91864    67.233677    132828.08   -41650.874     2611.787   -44262.661    44.884927   0.94026422 
   92600    208.31704    16.170919    132753.35   -41621.484      2591.86   -44213.344    44.826731   0.94079354 
   92700     215.5003    81.141374    132677.81   -41617.956    2681.2335   -44299.189    44.960004   0.94132913 
   92800    210.27281    39.638627    132739.05   -41665.971    2616.1935   -44282.164     45.20053   0.94089484 
   92900    211.72497   -89.019915    132647.76   -41639.039    2634.2611     -44273.3    45.046865    0.9415424 
   93000    211.67413    103.96584    132649.92    -41663.62    2633.6286   -44297.249    45.125766   0.94152711 
   93100    213.97622    37.681931    132600.37    -41595.42     2662.271   -44257.691    45.111623    0.9418789 
   93200    213.29162      69.8948    132695.62    -41610.61    2653.7532   -44264.363    45.225214   0.94120283 
   93300    209.57957    2.1522928    132674.99   -41638.006    2607.5682   -44245.574    45.295972   0.94134917 
   93400    206.04053    140.98449    132564.35    -41665.67    2563.5359   -44229.206    45.148417   0.94213486 
   93500    208.16542    -67.02522     132764.3   -41712.655    2589.9736   -44302.628     45.27454   0.94071593 
   93600    205.64901    34.262096    132666.63   -41779.049    2558.6647   -44337.714    45.132633   0.94140847 
   93700    207.17911    135.29099    132915.65   -41738.079    2577.7021   -44315.781    45.255887   0.93964477 
   93800    209.63637   -56.123886     132903.1   -41694.963    2608.2749   -44303.237     45.27511    0.9397335 
   93900    209.33662   -36.139507    132914.43   -41681.657    2604.5455   -44286.203    45.619443   0.93965336 
   94000     210.4814     26.14555    132824.46   -41695.815    2618.7888   -44314.604    45.518235   0.94028988 
   94100    209.47564      194.736    132949.55   -41701.204    2606.2752   -44307.479    45.357576   0.93940517 
   94200    211.42784    119.70855    133065.47   -41707.629    2630.5642   -44338.193    45.400596   0.93858677 
   94300    212.63784    26.883119    132914.38    -41673.51     2645.619   -44319.129    45.565715   0.93965371 
   94400    209.95768   -28.215547    132941.94   -41679.216    2612.2728   -44291.488    45.734338   0.93945893 
   94500    212.82044     52.48212    132921.08   -41628.123    2647.8908   -44276.014    45.627064   0.93960634 
   94600    210.94631    222.75318    132897.14   -41667.245    2624.5732   -44291.819    45.585161   0.93977564 
   94700    211.20559   -44.503909    132946.37   -41717.108    2627.7991   -44344.907    45.830098    0.9394276 
   94800    205.36727    60.367531    132888.66   -41694.729    2555.1593   -44249.888    45.534625   0.93983558 
   94900    211.82836    109.62412    132849.19    -41659.81    2635.5475   -44295.357     45.55006   0.94011484 
   95000    213.81846   -39.316803    132945.03   -41644.125    2660.3081   -44304.433    45.614934   0.93943709 
   95100    208.86604    65.895701    132969.46   -41640.628    2598.6907   -44239.319    45.735495   0.93926451 
   95200    211.92962    52.927834    133040.41    -41669.94    2636.8073   -44306.747    45.835644   0.93876359 
   95300    212.98349   -42.026595    132988.59   -41568.125    2649.9195   -44218.044    45.923629   0.93912938 
   95400    208.41576    74.529302    132917.34   -41618.628    2593.0883   -44211.716     45.87203   0.93963278 
   95500    212.70469    3.6783568    132887.89    -41625.09    2646.4507   -44271.541    45.884955   0.93984102 
   95600    212.13923    60.032535    132961.41    -41618.95    2639.4153   -44258.365    45.673069   0.93932135 
   95700    213.43665     43.86469    132848.75   -41676.337    2655.5578   -44331.894    45.671099    0.9401179 
   95800    204.71263    35.501062    132875.99    -41730.44    2547.0143   -44277.454    45.702837    0.9399252 
   95900    209.17474    115.08182    132903.33   -41685.516    2602.5314   -44288.047    45.805849   0.93973181 
   96000    210.74179    38.497936    132993.75   -41755.492    2622.0286    -44377.52    45.942543   0.93909293 
   96100    211.27663     124.5146    132865.78   -41713.951    2628.6829   -44342.634    45.659041   0.93999743 
   96200    210.75938   -12.315327    133077.48   -41753.127    2622.2474   -44375.374    45.662245   0.93850206 
   96300    209.75724    71.831454    133134.51   -41702.422    2609.7789   -44312.201    45.810512   0.93810004 
   96400    209.76647    49.155896    133075.65   -41685.526    2609.8937    -44295.42    45.892126   0.93851499 
   96500    207.41193    64.097719    133019.82   -41727.063    2580.5988   -44307.662    45.869599   0.93890891 
   96600    206.09135    42.277955    133068.48   -41723.088    2564.1682   -44287.256    45.983074   0.93856554 
   96700    208.39406    98.566215     133088.1   -41795.772    2592.8183    -44388.59    46.008779   0.93842722 
   96800    203.76815    54.186357    133074.18   -41845.584    2535.2632   -44380.847    46.021937   0.93852532 
   96900    206.86964    142.98852     133107.4   -41785.197    2573.8516   -44359.049    46.085042    0.9382911 
   97000    208.23197    26.698153     133216.6   -41791.154    2590.8016   -44381.955    45.999964   0.93752196 
   97100    209.24328   -5.6452379    133238.34   -41782.082    2603.3843   -44385.467    45.923215   0.93736899 
   97200    208.15585   -7.0927485    133150.52   -41805.331    2589.8546   -44395.186    46.071338   0.93798729 
   97300    211.35497    44.326125    133168.81   -41805.049    2629.6576   -44434.707    46.181539   0.93785845 
   97400    208.99041   -71.122042    133259.53   -41808.542     2600.238    -44408.78    46.141718   0.93721994 
   97500    212.07753     98.81234       133242   -41714.285    2638.6477   -44352.933    46.140932   0.93734324 
   97600    209.61702   -36.979554    133162.29   -41791.361    2608.0343   -44399.395    46.183548   0.93790433 
   97700    212.14966     164.4784    133197.37   -41724.424    2639.5451   -44363.969    46.131025   0.93765733 
   97800    209.61765    50.957427    133205.99   -41705.975    2608.0421   -44314.017    46.158299   0.93759667 
   97900    211.81205    36.912404    133296.98   -41674.908    2635.3446   -44310.252    46.284399   0.93695665 
   98000    209.67868    48.127044     133247.3   -41696.638    2608.8014   -44305.439    46.202879   0.93730595 
   98100    211.56852    165.63561    133349.13   -41767.078    2632.3146   -44399.392    46.250253   0.93659019 
   98200    211.50462    46.585585    133245.58   -41750.994    2631.5196   -44382.514    46.539655    0.9373181 
   98300    211.23081    227.29501    133291.76    -41759.27    2628.1129   -44387.383    46.399968   0.93699335 
   98400    211.64582    150.76378    133328.81   -41774.349    2633.2763   -44407.625    46.426987   0.93673298 
   98500    207.54747    122.47899    133332.39   -41771.417    2582.2851   -44353.702    46.315024   0.93670778 
   98600    207.31876     175.4945    133372.73   -41789.233    2579.4395   -44368.673    46.325616   0.93642452 
   98700    202.47573    83.478442    133510.31   -41835.476     2519.183   -44354.659    46.619108   0.93545952 
   98800    208.32078    193.47948    133544.39   -41806.926    2591.9065   -44398.833    46.466901   0.93522079 
   98900    207.24886   -131.33726    133507.62   -41803.968    2578.5698   -44382.537    46.421627    0.9354784 
   99000    203.62638   -54.566982    133522.17   -41836.321    2533.4992   -44369.821    46.530731   0.93537646 
   99100    209.46319    216.80961    133560.72   -41764.254    2606.1203   -44370.374    46.539512   0.93510646 
   99200    206.96476   -147.18154    133652.49   -41761.938    2575.0351   -44336.973    46.551961   0.93446439 
   99300    210.38724   -13.968433     133598.9   -41724.277    2617.6172   -44341.894     46.38357   0.93483922 
   99400    209.85886    122.69987    133579.27   -41704.404    2611.0432   -44315.448     46.44901   0.93497658 
   99500    211.79241    31.309367    133537.82   -41587.045    2635.1003   -44222.146    46.632632   0.93526679 
   99600    214.02146    61.483076    133490.12   -41613.768    2662.8338   -44276.602    46.628857   0.93560099 
   99700     217.9856    63.254785    133436.15   -41634.893    2712.1553   -44347.048    46.627543    0.9359794 
   99800    211.18846    133.18749    133507.81   -41660.175     2627.586   -44287.761    46.598455   0.93547704 
   99900    209.24628   -6.6666691    133407.12   -41713.202    2603.4215   -44316.623     46.48524   0.93618309 
  100000    211.38234   -35.378716    133423.94   -41709.067    2629.9982   -44339.066    46.594999    0.9360651 
  100100    213.97118    142.09702    133352.12    -41641.91    2662.2083   -44304.118    46.789639   0.93656925 
  100200    210.77426    135.47822     133281.2   -41651.726    2622.4325   -44274.158    46.503536   0.93706761 
  100300    213.82078    72.734658    133251.72   -41637.326     2660.337   -44297.663    46.612914    0.9372749 
  100400    211.65408    167.80674    133131.46   -41663.825    2633.3792   -44297.204    46.667303   0.93812157 
  100500    212.70405   -19.093065    133157.76   -41583.011    2646.4428   -44229.453    46.612884   0.93793629 
  100600    212.02815   -50.568888    133165.95   -41658.039    2638.0332   -44296.073    46.632846   0.93787856 
  100630    208.54444   -16.919417    133021.71   -41641.604    2594.6893   -44236.293    46.594343   0.93889555 
Loop time of 75.4038 on 6 procs for 100000 steps with 4175 atoms

Performance: 572.916 ns/day, 0.042 hours/ns, 1326.194 timesteps/s
98.4% CPU use with 6 MPI tasks x no OpenMP threads

MPI task timing breakdown:
Section |  min time  |  avg time  |  max time  |%varavg| %total
---------------------------------------------------------------
Pair    | 57.16      | 60.96      | 62.742     |  24.0 | 80.85
Neigh   | 4.7796     | 4.8204     | 4.8489     |   1.1 |  6.39
Comm    | 5.2811     | 7.0946     | 10.943     |  71.2 |  9.41
Output  | 0.15917    | 0.15991    | 0.16327    |   0.4 |  0.21
Modify  | 1.7403     | 1.7581     | 1.7793     |   1.2 |  2.33
Other   |            | 0.6103     |            |       |  0.81

Nlocal:        695.833 ave         700 max         690 min
Histogram: 2 0 0 0 0 0 0 0 2 2
Nghost:        1468.33 ave        1477 max        1458 min
Histogram: 2 0 0 0 0 1 0 1 1 1
Neighs:        0.00000 ave           0 max           0 min
Histogram: 6 0 0 0 0 0 0 0 0 0
FullNghs:      19077.7 ave       19261 max       18773 min
Histogram: 1 0 0 1 0 0 1 0 2 1

Total # of neighbors = 114466
Ave neighs/atom = 27.417006
Neighbor list builds = 5197
Dangerous builds = 0

undump              1
unfix               2
unfix               3
unfix               4


################################################
#######         Run Simulation         #########
################################################

reset_timestep      0
log                 log.run_${NAME}
log                 log.run_liquid_density_MLmW
