LAMMPS data file via write_data, version 29 Oct 2020, timestep = 800000

4175 atoms
1 atom types

-0.23265046447058424 50.232650464469586 xlo xhi
-0.23265046447058424 50.232650464469586 ylo yhi
-0.23265046447058424 50.232650464469586 zlo zhi

Masses

1 18.015

Atoms # atomic

3662 1 46.64594918262668 0.5996993699904783 6.358924703693232 -1 0 0
3764 1 8.480591569197708 0.6359981417616389 0.6364093078628001 1 0 0
2474 1 39.41815579867696 24.757915852697323 3.6842083252400606 0 0 0
3932 1 20.940219220825437 11.352529861800827 0.5892341655175296 1 0 1
3705 1 26.740707172168328 0.63376719073338 1.563343722859081 0 1 1
918 1 29.28663404736957 0.5918379401823585 1.4552980894402172 0 1 0
2178 1 34.731086646199955 2.2610855854125784 1.9884532684598502 0 1 0
1886 1 45.51569705335628 22.12110666812857 15.720749610900693 -1 0 1
3469 1 37.10414406365611 2.653265022263632 3.6122955156851453 0 0 0
1921 1 44.25566549248907 24.706341724007043 0.9033316372161975 0 0 1
3028 1 30.57981150715325 20.7906301899212 0.050346468418899726 -1 1 0
3716 1 -0.11810011552096954 1.781276742442944 0.8296694524694976 0 1 1
3661 1 48.96970853916187 5.397683481354612 0.36788202021124927 0 1 1
561 1 3.7234130837855988 4.6265938511457785 2.0318732132815724 -1 0 1
1981 1 6.2457906209899114 5.447229051732976 0.19969981956106947 0 1 2
3568 1 9.029784167283184 2.8800499912944093 1.9344623773001137 1 0 0
2547 1 12.213266784856467 4.984118107658708 0.47253012571583075 1 0 -1
1252 1 31.2682601746085 0.18695854899783448 5.071060541228195 0 0 1
3782 1 18.25662974944966 4.933284718864567 2.5926258999900194 0 1 1
2755 1 25.459202330427022 24.540957163008528 14.000134702661203 0 -1 -1
2792 1 42.972130758540075 -0.10566559993040034 8.461294212407168 1 1 0
3800 1 22.198979245812726 6.387762164785765 2.3191641948306665 0 0 1
3957 1 31.417164357118605 0.1961271311486923 16.21068202800084 0 1 1
2509 1 30.24080783270378 2.66628124666423 2.6892960171075595 0 1 0
2439 1 30.116513548993172 5.193640918178417 1.0785520841548928 0 1 0
3424 1 27.93563929510445 23.712005087295484 12.91577687698121 0 0 1
2054 1 38.42201653669677 4.821549930566281 2.465608778561674 0 1 1
1737 1 39.911231285552006 3.690809370794064 0.37844391695989066 0 0 1
3611 1 41.28901115649701 5.244140753299291 3.4177072850970904 -1 0 1
400 1 43.84132874775854 4.009697959262114 2.718066226746842 -1 -1 0
336 1 1.776185435166055 22.922195719120527 3.9805258568953414 0 -1 0
267 1 47.69324336456408 1.612880078297616 1.4563362617631619 1 0 -1
3372 1 0.4658705070313298 7.235097177033276 1.1300361603762574 1 1 0
965 1 5.947245166586142 24.468705862135316 10.745834164174044 1 0 1
2070 1 11.240383969012111 9.896638469669572 0.9705515400759666 0 0 1
2866 1 14.897797123266923 8.175334282439165 1.3523240810318913 1 0 1
2396 1 17.718450728063758 8.90612304376419 1.3058785642213364 0 0 1
3794 1 19.580082138688578 7.285281086592262 2.93329426100664 0 1 1
3412 1 24.225362081230045 8.283373494988913 2.366529493314613 -1 1 1
1039 1 26.519491371296322 7.955293146337361 0.460422418061348 0 0 1
1013 1 28.593985245457443 7.49294259000123 2.235725883270854 0 1 1
1188 1 33.60550332626053 8.46946987311183 0.643166338138595 0 0 1
4079 1 20.195966563795395 14.282228725694042 0.033837115721979893 0 0 2
2837 1 35.9277134975769 6.607098777225124 2.4047712618544423 -1 1 0
2653 1 36.328111994248644 8.466209252523745 -0.08143865319641883 0 2 0
2624 1 46.40576013005514 7.367235760363969 1.3788171406922967 0 0 0
4028 1 17.10584075062325 4.712269076758169 0.04235141854285329 0 1 1
2762 1 6.060668420183492 8.875125563747131 2.499702406978947 0 0 1
1250 1 9.737687114528864 12.310950227681792 0.3825016188837942 0 0 0
3240 1 11.5814756608911 10.619756231598414 3.724195720542908 1 1 0
2911 1 13.969327192113301 10.65139815550973 1.0130588182263573 0 0 1
2496 1 25.711763890949207 2.78831485251158 0.34586671847688855 -1 1 0
3234 1 37.92278464013384 23.368317868912698 1.6961834024275797 -1 0 0
1719 1 13.251320286218322 15.570085537009323 -0.05669041460926105 1 0 0
891 1 29.490158125735544 13.653526325410038 1.8355834605192154 -1 -1 0
3099 1 -0.15757986643072866 24.76416769070792 10.431950509993916 1 -1 0
963 1 17.097804351611714 13.65548320435157 0.9669752903729938 0 0 0
391 1 33.02196746205313 9.773969198120769 3.302247291447843 -1 0 0
2392 1 40.71898004044125 8.748553121551858 1.5526528349263735 0 1 0
1411 1 38.0490912048831 10.110602547197608 1.4246099866998494 0 -1 1
220 1 41.29497905717173 12.631442620634251 1.8218197989978862 -1 0 1
1813 1 44.59715388203841 9.428244705842335 0.20306759619007025 0 0 0
2100 1 33.72800830133083 0.25966911064155274 9.044101435855099 0 1 1
3024 1 2.882629267908257 13.943706440045554 1.0656877397196018 1 1 1
2904 1 7.379719999298625 11.444956940836091 1.964261610975349 1 1 -1
3793 1 19.68378730335842 24.831590519448262 9.683160329457909 1 1 0
3499 1 11.048549882893658 14.79200071358191 0.8888348546201581 0 1 1
3351 1 14.66847161553152 13.563469678373988 1.6440185843777226 0 0 1
142 1 30.925851058943454 23.715577629093755 16.318362909730237 -1 1 0
101 1 1.416385697292591 -0.050299875121881193 10.259910836801119 1 0 -1
3855 1 18.421083624068824 11.554496499729352 2.5888587509545435 0 1 0
941 1 29.500713224326226 3.073473918472008 8.116644267380932 0 1 1
885 1 29.313267507002564 0.518625167103248 10.018804764824278 0 0 1
2630 1 41.96919004486077 22.975538611844595 0.8048079093425309 0 1 0
2638 1 35.918123564263226 12.537991772454067 0.3756183276295827 1 1 0
1658 1 34.77377858516776 24.33317204893472 10.357387030303325 1 -1 0
2797 1 38.574870229818046 13.009864788382787 0.9552546589997593 1 1 0
3796 1 23.05282681954401 0.6812338845929071 14.401998256085871 0 1 1
1573 1 33.836429020644275 24.307025788778425 16.03758289537648 0 1 1
1572 1 39.75452129336193 24.832525816167745 14.145070233690067 0 0 1
1270 1 29.18791166842338 0.8011957024050727 6.569390061239694 0 0 0
1455 1 11.302952062104925 24.047538381819145 0.2305333324506722 0 0 1
1518 1 12.930883288487403 0.5380051621273683 0.7401057764210724 0 1 1
3373 1 2.9121835475959723 19.334625937851108 1.8202443263421326 0 1 2
2651 1 6.851022239705749 17.377247284359374 0.47015948782399386 0 0 0
1477 1 14.324796368961518 17.833171868006957 1.4557894376810079 -1 0 0
3210 1 15.540324031186291 16.81634328844618 3.640773311737937 0 1 1
1264 1 17.058678077541355 18.118224948228338 0.20540218007261263 0 0 1
1302 1 23.08378878399319 20.47792938996103 15.695690678242183 0 0 0
2124 1 22.158780333637313 4.470052259603424 0.1083148096163929 0 1 0
3230 1 22.429610711536565 16.277110783053608 1.6618325934531437 0 1 0
949 1 42.627890572943315 23.480806760006956 11.123241051539408 0 0 1
362 1 28.292332224422857 15.753033121883167 0.5210633829513509 0 0 -1
478 1 32.01065756955552 14.896169297086292 1.6780088469897547 -1 0 0
2602 1 35.22902063265663 18.577848902973585 0.5557504706049539 0 0 0
2696 1 37.00483450109623 16.35761892565114 0.28740771834765544 -1 0 0
1592 1 45.451742003872226 18.390261865080692 0.12380219080856886 0 -1 1
3085 1 2.033334065925055 24.44714177242165 8.699172116818403 1 0 0
1161 1 43.91360131757821 0.15681621069340257 5.812203002244031 -1 0 0
2501 1 48.67150834311687 16.40056900876564 1.7886627263290467 1 0 0
2424 1 41.86895832690671 0.30576895359889955 15.485974552001698 -1 1 -1
669 1 50.01914751172812 18.74850139294597 0.626918768314852 0 0 0
837 1 5.471929893185803 20.883774469867028 2.850153020525659 1 0 0
2664 1 7.13623801147274 24.924959421962587 15.410023065619269 1 1 1
2383 1 12.051258555378249 19.344988147288838 1.7923431446753697 0 0 0
3338 1 27.094303188272505 24.412701686327026 7.461164607208195 -1 0 0
3168 1 15.07577531418604 22.16452387757455 2.6731002052124433 0 0 2
3071 1 16.987469112412658 20.94315474345848 1.1873632669178753 1 1 1
3226 1 19.055179135193875 21.874740291758346 2.834720037708557 0 0 0
3115 1 21.248167896235238 20.556687121591896 1.6577764218552278 -1 0 1
2271 1 19.425006148791816 24.675731477376235 16.227819477727166 0 0 -1
1798 1 25.499437914720975 20.31296779754031 2.0057275608373315 1 0 0
1577 1 8.738273731548658 24.80669534853315 9.81619397393519 1 0 1
2927 1 28.53851541410262 19.38712342457541 2.555949449261922 1 0 0
3924 1 37.006708919601536 20.713030454389916 2.1102759152744164 0 0 1
3357 1 15.14645051831916 -0.025301421336745566 10.06346156145796 0 1 0
1124 1 43.048548167294044 19.30024483323506 4.240342395400309 0 0 0
3508 1 41.61906219530208 23.00946744745971 3.7516616887434875 0 1 0
1256 1 43.847430447923855 20.252677717950533 1.5405266024443858 0 -1 0
473 1 1.353974252991357 24.957215697089605 -0.12277755574707984 0 0 0
3329 1 -0.016456380471142618 23.699100677147776 1.9199547287370198 0 1 0
446 1 40.69049463526453 5.645551367324665 16.401158149355776 0 0 0
1606 1 4.691465263851225 23.385054152577492 2.1949506850422957 1 -1 0
156 1 38.88696128870619 24.87816352608177 6.591427719235167 0 -1 0
2281 1 16.2612107644271 22.544925032192126 15.91268052573037 0 1 0
962 1 9.487307621943742 22.230336688705595 1.5397583269339383 1 0 1
1376 1 14.0164424900385 23.945587024064416 1.0607325013161006 0 0 0
1275 1 48.5042396341843 21.59220569054666 15.450883599866208 -1 0 1
3920 1 20.034290827495923 24.451318675791327 2.4704099537481397 -1 0 1
2712 1 23.449252868621024 22.118924350605965 1.2752126862043742 0 1 0
3780 1 22.636307551467155 24.533248375780616 1.7873261469322035 1 1 1
688 1 27.69217780256057 22.1283882345804 1.0626946421096757 0 0 1
624 1 30.196932515975735 23.553856791294123 1.354739054571501 0 0 0
192 1 31.30319040499069 19.933529715823656 2.7696425591650793 0 0 0
4170 1 35.93893880641437 22.970287204474968 14.349660726974859 0 1 1
2456 1 34.285800404226705 22.108222896299157 2.1781225482882203 1 1 1
2592 1 20.31251653357845 12.330240540012086 15.955166517615393 0 1 0
1900 1 34.157145983196 3.3573856350705906 16.24426699329059 0 0 0
1006 1 16.55502689839476 23.428253828544968 13.37508181974336 0 0 0
3166 1 45.65981213769841 22.30878649349464 1.5089645565724983 0 -1 0
1309 1 48.45597723523527 21.786514999026256 0.8424571947454631 -1 0 1
3029 1 39.01259569281662 -0.03169533367597502 16.37909420348384 -1 1 0
2270 1 1.7214336338460396 2.7627454670923877 2.705527174453439 0 0 0
327 1 3.035001588751589 0.573114119104443 3.920308309542568 1 -1 0
3503 1 5.669946287595525 0.2636337328234718 4.718008606763765 0 1 1
794 1 6.29991702450264 2.1766676118012236 6.443548812965745 1 0 1
2594 1 11.040091099796758 3.3268291636284637 3.818039487933123 1 1 0
1362 1 11.081034323873887 1.2810687945856691 5.560069043379314 0 0 1
2795 1 13.107927023157249 2.8378893042742477 2.273830404771158 0 1 0
3870 1 15.067442383231752 3.113277836719657 4.345755935595278 0 1 1
355 1 17.35735003622599 1.4009739803911405 4.338603159588065 0 0 0
2156 1 19.254151942956405 2.249595598178528 2.7774716368401458 0 1 0
3431 1 21.416063665175106 1.9983052274574336 4.578084568567744 0 1 1
3203 1 0.06652180168582 17.69768753683529 15.581805214223394 1 0 -1
1274 1 24.587240267450518 1.7002498462867073 3.383104868021132 0 0 0
3335 1 25.723589924730906 2.9523622071399003 7.5523053432226765 0 1 0
1027 1 44.80626567607928 5.174294925904961 0.5694071512381902 -1 -1 0
764 1 28.449743049307717 3.6743780290363337 4.654843976036904 1 1 0
3760 1 32.8403321725968 2.144742261839949 3.9564971401018605 0 1 1
3450 1 40.87369940938575 1.5352415358183407 1.742029368380756 -1 1 0
3776 1 39.58393627022282 1.2744890659050074 5.726935494659796 0 1 1
1951 1 44.45738438036997 1.1386166423381052 1.7777316515495016 0 0 1
350 1 48.48510688471799 0.5398916380332781 4.201266202948904 -1 0 0
247 1 39.4800042046181 19.815603585453886 0.37454029217152596 -1 -1 0
299 1 5.370582529703175 3.9079942350150505 4.42567375629923 0 0 1
2237 1 7.3234626839781285 4.782484259808223 2.674111571118707 1 1 0
3039 1 10.122838810729899 5.938961338517357 4.11207811792458 0 1 0
638 1 16.17149265049149 5.349794512686183 4.224699079428106 1 0 0
725 1 22.57036739190689 4.698271454781918 4.856445230399413 1 1 1
389 1 24.771733805852072 4.552978298090713 2.564219270738145 0 0 0
1099 1 26.50473652650141 6.83047948548173 5.702452543972612 0 0 1
100 1 27.013806406869758 5.591536648901103 3.5250783544963293 -1 0 0
211 1 32.68873653314736 4.532090706060126 5.061279046849063 -1 0 0
2420 1 39.73337743037645 3.894572546551063 5.5996041487255495 0 0 0
853 1 43.75892890798397 3.3707548107994794 5.822880439325888 -1 0 0
957 1 41.965842846365064 1.6546024079878874 4.3623296344602815 0 0 1
2561 1 46.692358237572236 3.5402832873883776 7.2579087102748 0 1 0
196 1 48.19676985282089 4.043148135569019 2.904225576343309 -1 0 1
3522 1 50.20049748502285 2.9555544141118686 4.544561930053899 -2 1 0
2175 1 2.0388613125873163 6.637905017810326 3.5359575290279044 0 0 0
234 1 7.238442225513739 7.457553263389009 4.321060999604036 0 0 0
78 1 12.328767547937563 6.870890627856983 5.948755594776742 0 0 0
2915 1 14.424012578729688 7.658185734111943 4.143469056235614 1 2 1
275 1 11.886026153534155 7.200612239582376 2.437352146083433 0 0 0
4021 1 17.522252881522583 6.029973608298687 6.619207701111735 0 1 2
2986 1 21.54968627043144 6.488779625552323 6.751788763664462 0 1 0
631 1 19.062158740657306 7.713679390383681 5.359673397006381 2 0 0
3524 1 24.85624756569615 8.959294329018217 4.914906349012114 0 0 0
496 1 30.946318378805152 9.374209669428094 7.835395961620632 -1 0 0
2328 1 33.68462613791095 6.610892726719538 3.6484978748603756 0 1 1
2180 1 33.282723260959614 9.341666550873976 6.213827217115971 0 0 0
715 1 37.6696284387875 7.274086592014823 4.654182022759399 0 0 1
3123 1 42.7437995083568 7.595590797502715 4.174903985423774 -1 0 1
2206 1 46.200564349096396 4.551014504351178 4.469110800120838 -1 -1 0
814 1 45.389776658990655 7.028848103790712 4.017109165897555 0 0 1
522 1 48.91599306898134 8.544715071638908 5.593297610237686 0 0 0
2428 1 1.6599165598584624 11.300435899174328 1.76832856579334 0 0 0
3070 1 4.324193542139797 9.0130842293843 5.752580602984088 0 1 0
915 1 3.353032640450712 9.47204339871884 3.0956971054792475 0 0 0
3167 1 6.697060713934417 10.378042794060356 6.097127878390957 1 0 0
2242 1 11.150212497886706 9.406663771275669 6.393893288665815 0 1 0
3631 1 14.091542120604515 11.852248212008302 3.9158248095818404 0 0 1
3814 1 14.830056893483066 10.112730443719846 5.791904678889556 1 0 1
3818 1 17.69609496626037 10.414336622849673 4.9657439806041745 1 1 0
3017 1 20.33913278136983 10.387467807101379 6.235266489560115 -1 0 0
222 1 23.426269530345458 10.75666554198179 2.1150469809165595 1 0 0
2298 1 27.297508563656397 10.208526491486339 5.235537650175025 0 1 0
1071 1 27.532869124566854 12.911811184501607 4.097110004312352 0 0 1
1772 1 30.946415954311316 11.407077638804468 4.366971658442811 1 0 1
303 1 29.553782468500984 8.921210756621557 4.364971830335377 0 0 0
48 1 36.94573353190613 11.519527062192587 5.137334429349116 -1 0 0
655 1 39.03621537409488 9.685694845024042 4.2344446233572315 0 0 1
1621 1 41.70122286448918 10.259853092131864 5.473757155176618 -1 1 0
3140 1 42.98218763723598 10.165725345712417 2.5319100749682346 0 0 0
829 1 48.77773371557069 8.435998385183641 2.7858492359032523 -1 0 0
201 1 49.13374139559983 11.246149517121738 2.2018574723527724 0 -1 0
1568 1 2.1966783541072266 15.101441921655779 3.5638039412035725 1 0 1
2636 1 5.237724790655968 13.958974474272042 4.240674550350103 1 0 1
3514 1 7.440351566374555 12.474320918757911 4.587956129845804 1 0 1
2038 1 11.751042751807628 15.504936727171463 4.058986399756211 0 0 1
882 1 10.323596740251856 12.911262879399432 4.6133385021875775 1 0 1
1654 1 12.671832127734314 14.552083340878603 7.295668682712702 0 0 1
3402 1 14.305447056012493 14.482319061806802 4.760764192875257 0 1 0
907 1 17.63856155129524 16.07255306958954 2.050616712962428 0 0 0
3650 1 24.784927354962452 13.159329299242552 3.5216799345422483 0 0 0
25 1 21.594047611264255 12.05350033256669 3.6740185921445723 0 0 0
2494 1 30.188644945996543 14.36717092102699 4.953312956324869 0 1 0
3197 1 33.98149558272223 12.369919804583438 2.2443993144663756 -1 0 0
2401 1 32.4847001237851 12.90713974505562 6.4925757612020965 0 1 0
4080 1 35.77402700899334 13.884545498274473 3.9907670054455044 0 2 0
2902 1 40.55849800932623 14.665828633295426 3.668702366622573 -1 1 0
3442 1 37.644592391024645 15.408467325587301 2.8744775490901286 0 1 0
3403 1 40.80257014707966 13.030163899994825 6.185979080118711 0 1 0
2805 1 44.48094352311777 14.92208962380767 3.024608036311814 -1 0 0
3669 1 45.990137299059086 13.395424122253155 4.917651258014344 -1 1 0
2855 1 48.585103568219864 12.927241576931296 4.3811671806292445 -1 1 0
104 1 3.543796093931968 17.39429285521488 4.468710596024149 0 0 1
317 1 5.945317206825286 16.674406681490648 3.214001502163281 0 1 1
253 1 8.180048178783608 18.115519265485755 4.294969936555323 0 0 0
3325 1 10.216393418625797 17.446151983367752 2.3958804745924374 0 0 1
1901 1 11.874559954372792 17.12042310439984 6.45371112004666 0 1 1
1381 1 17.952966882577424 17.561408264184376 6.426779662131107 0 0 1
2558 1 19.221290904651138 17.402607672796698 4.277284940356346 1 0 0
3299 1 23.316570921155613 18.279110980151415 5.280821261956651 0 0 0
1501 1 24.646339811175096 17.570261633171825 2.9854313534013106 0 0 1
4069 1 27.2856849138479 16.779659426410653 3.037540267131044 0 0 1
3154 1 29.122639755484865 20.39005195415766 6.148629799804778 0 1 1
3725 1 31.80484673899191 21.03563684931336 5.621982969109775 0 1 1
1679 1 32.73501075056208 15.927239516402526 5.72573732685501 0 0 1
4140 1 34.49140406908545 17.2760161105591 4.281127477419985 1 0 1
3693 1 37.20146733712218 17.120259686642502 4.937839700045705 0 1 0
605 1 42.75939553441917 16.237308045863283 4.474953011908311 0 0 0
749 1 40.84199162456956 15.170223138785312 8.469677323776686 0 0 1
2296 1 46.29981436719699 17.38621721883138 2.639199332579304 -1 0 0
848 1 50.134364762118224 15.444679407727527 4.100364197506416 -1 -1 0
802 1 49.61207077122461 17.89605145962063 5.639701636484238 0 0 0
3897 1 0.5520923418390199 19.176304102604302 3.5370101875761493 1 1 1
224 1 5.898098997645002 20.03985323350098 6.3795368635014436 1 0 0
3790 1 7.506887368792162 20.76020915687014 4.501272633972495 1 0 0
3052 1 11.66398263267805 22.046457862695018 5.622619432263373 0 0 0
874 1 13.146480109791122 20.629106637840934 3.996706585232644 0 0 0
262 1 14.196358093428854 18.47588078721559 5.300286424091783 0 0 0
2303 1 21.010144294396294 19.467605985645314 4.369084032441811 -1 1 0
2644 1 26.89048714481241 21.94213909956173 4.241798099339362 0 0 0
285 1 28.985779424142667 21.98224587881674 8.09101458249476 0 0 0
758 1 33.085674968560255 17.746122271080544 2.050696160976091 0 1 1
2912 1 31.855739439864575 23.11534830283495 7.73264402249324 0 0 0
2065 1 34.083527529141136 19.373060900859798 6.124466495631193 -1 0 1
3490 1 36.28267121123734 21.093193685556404 6.328412862075986 -1 0 1
2573 1 37.932436997657604 19.84856116241081 4.5120358172622455 0 0 0
586 1 40.5654193926068 20.664419355270564 4.808552165439332 0 0 0
1601 1 40.265090824107986 21.212423710743725 7.455694030148993 -1 0 2
264 1 47.14162756676893 18.817899362185326 4.67233963581948 -1 -1 0
905 1 3.308167900516649 20.434786291788487 4.949742145591525 1 0 0
1970 1 4.052796615264282 24.355891525437883 4.585512283698498 0 0 1
2535 1 6.424524012547598 23.752431877595253 5.831141753474329 -1 0 1
3709 1 9.612889376288285 22.5187624664911 4.218114334267638 0 0 0
112 1 13.279581860591565 24.277110478831027 6.175648351921929 0 0 -1
2975 1 15.745515797230258 23.478469001777682 5.019338318496426 0 0 0
683 1 17.651575702105365 22.812077378711777 7.1169424095308065 -1 0 0
3323 1 8.75324918695927 -0.22320669030411083 14.899415291454895 0 0 1
2367 1 25.064932059001308 23.696253639104373 5.456201794641926 1 0 0
2540 1 29.00075582827442 24.269843556702632 4.625465191457684 0 0 0
3317 1 31.663160457109065 23.162490111104038 3.756394348566749 0 0 1
2814 1 43.37198244850883 24.04698901055524 5.851641212243123 0 0 0
2886 1 46.156860195415874 22.840911429887818 4.318423995012159 -1 0 1
3422 1 48.66097347264912 21.089394359731255 3.6446539548476937 -2 0 0
2702 1 0.48596525473935637 2.1354747896578936 8.766791598428194 0 0 1
2263 1 5.898915041192242 2.4732709656759133 10.504390161877934 0 1 0
3854 1 44.99221333453387 22.46433435413663 12.80639612029607 0 1 0
3907 1 8.966717342040768 2.8663838421455567 6.700354771212931 0 2 0
1757 1 40.23387025263517 0.4823997202668707 8.601821577867911 0 0 1
2243 1 13.713314999551496 1.5117569738625711 6.681792196039181 0 1 0
166 1 18.340367506080064 1.48327609675316 7.059806650987379 1 0 0
3063 1 21.216411358302498 0.75898467194769 7.223776420289043 1 0 0
3195 1 23.63401099151763 1.3318001506557329 8.777149910644642 0 0 0
2796 1 26.547998225213767 1.421850426468416 5.55192833114672 1 1 0
1884 1 31.989840879966582 2.512685460963777 9.324757602698732 0 1 1
3892 1 35.197018997886715 0.22639337003172016 5.062977470669294 0 0 1
1697 1 36.45169283539096 0.9021430768048424 9.55798838854307 0 0 1
4073 1 40.257069035221605 3.206539543832986 9.701510608314406 -1 1 1
1160 1 5.560284978994401 12.984378196977858 0.5486453048479516 0 0 1
45 1 43.372580590196534 2.4607814451275023 16.37716005205846 0 1 0
186 1 12.15690856876403 24.582936827023783 12.741265304736629 0 -1 0
1243 1 48.844047169826766 2.2920800726086927 10.503180327247266 -1 0 1
436 1 2.66012235345672 3.147471349529123 5.997145195923319 0 -1 0
2146 1 4.8392453726008995 3.828881271992043 8.352275032079799 0 0 1
11 1 9.58468751359675 1.836432356196486 9.504772103523042 0 0 0
366 1 9.318698196136264 6.018597297921537 7.071160310203085 1 0 0
3429 1 13.781574960290548 3.5084856855739788 8.33807246847128 0 1 0
623 1 14.71370331146379 6.142603209104774 7.536905265451568 0 0 0
487 1 18.845409732721325 3.784170544222807 7.96723620513076 0 0 0
2791 1 21.19445042070616 4.664795138914509 9.127611004562171 0 0 1
1739 1 24.703610931736787 5.164758331641794 6.614060131385151 0 1 1
3759 1 30.20363074572018 5.198187764116392 6.345330192647615 0 1 1
2258 1 34.79752907694632 4.401310422005929 7.031991905276687 1 1 0
2900 1 36.2740261694846 2.1830686261141765 6.633536047430407 0 1 1
3306 1 37.1083552771226 3.8378892526724773 9.595278638629994 0 0 0
3000 1 42.96437698594714 4.413945130541856 9.782577613016441 0 0 1
2988 1 44.744943177534125 2.4311778522858414 9.021712459719152 1 1 0
149 1 49.60376812424954 3.884726157644222 7.059242200376786 -1 0 0
1560 1 2.5482629248714908 5.974756409326371 6.140183518880428 1 0 1
1202 1 1.6323382118940222 6.70337214388014 8.708037584498705 1 0 0
1744 1 5.325180210239931 6.37850795737755 6.009414408820867 0 0 0
607 1 6.750604480141771 6.005877210428922 8.483463927824834 0 1 0
879 1 11.095392536113113 4.599504893267611 8.943135804991915 0 0 1
2472 1 14.77301059695774 8.078817256230675 9.706244885594758 0 1 0
3720 1 17.508108785242303 7.634341791265037 8.894119192292235 0 0 1
955 1 22.62315933522037 8.980135799777823 7.3697648918063985 0 1 0
929 1 26.678886550308402 7.892919078075886 9.647259093036505 0 0 1
2305 1 28.77635807728145 7.495832068534103 6.965024933462241 0 1 0
3616 1 32.32796425169627 8.427341648869941 10.225964831720352 -1 0 1
2368 1 35.198340519906154 7.041270676883511 6.187062811270212 0 0 0
332 1 36.481251608032196 8.894554204512472 7.8759611644704535 0 0 0
4128 1 37.95036805270864 5.418791419253348 7.334198057763524 -1 1 1
3946 1 41.87885684946973 4.981309475676493 7.194942879079771 -1 0 1
2216 1 42.65012791388891 7.476524030598784 6.954460366207129 0 0 0
617 1 46.264219392998726 6.0059198776568925 8.51192427432975 0 0 0
2306 1 46.44244303599706 8.251079881358475 6.5231827028737595 1 1 0
3543 1 2.899830133178726 9.356954163629986 8.05203200159842 1 1 0
4086 1 8.584093837736276 8.923417534827811 7.92540701602702 0 1 1
1507 1 9.10349307165371 11.455217073520298 9.297283722305922 0 1 1
2554 1 13.33178477252375 9.931093268469361 8.194984163448831 0 1 0
3348 1 12.50138748408099 11.528315349900705 10.162826954141192 1 0 0
864 1 18.3823437560884 10.341926627995194 8.28495131657666 0 0 0
3058 1 18.391609764146406 13.083395321609032 6.242763173642867 0 2 1
1974 1 24.21621761507171 11.252515309850436 8.039104771450498 0 0 1
3186 1 26.63495918627014 10.404879993042758 7.939041282670722 0 0 0
1566 1 30.711186520984707 11.957042752562268 8.872798115929818 0 0 1
1985 1 35.72549451262522 12.148977432083681 9.523025751451733 0 0 0
3895 1 34.898151889432626 11.464442778049959 6.978682837237656 0 0 1
1703 1 31.089389299440544 12.219726340986522 11.709781011656576 0 -1 0
3249 1 39.3710305453572 9.730323666379253 7.470842413818228 0 1 0
343 1 44.64186441940538 11.110396654939516 5.3972723673313405 -1 0 -1
1968 1 46.16378939037335 10.79517484244849 7.827837259209458 0 0 0
1414 1 45.650934180839585 10.620868504950305 10.473425235546863 -1 0 0
1818 1 0.7579142764329238 10.934763705671612 8.000654813504248 1 0 0
1738 1 1.1427281425523041 13.848864365390549 7.687293531443454 0 0 0
4121 1 3.7562098927822265 14.537372875427067 6.630405199302873 1 1 1
203 1 8.350923899264846 14.45356216496355 7.673962247915426 0 0 0
3062 1 10.85086099537759 12.38331252503979 7.275385177291434 0 1 1
1104 1 12.51256684604953 14.715809595413454 10.539607036098516 0 0 1
658 1 16.537263782082263 15.130485838229287 6.55837547840703 0 -1 0
2039 1 20.547583365278673 14.709813581449726 3.1781318510268193 0 0 0
3586 1 20.781610199179504 13.963857426877865 7.500235259808416 0 1 1
1511 1 24.290597409030628 15.251483399399497 5.197323943279061 0 0 1
1133 1 28.202116994812837 12.876285551148523 7.231878225182777 -1 0 0
4135 1 36.02314878344103 16.64933241500597 9.17189006652905 -1 1 2
756 1 38.229450601957424 12.633128227385024 7.025130143153936 0 0 1
2157 1 45.09985200117889 13.730340677040456 7.66595205272583 -1 1 0
493 1 46.26991789233898 14.708166981496003 9.719887324281924 -1 0 0
282 1 48.787962598902695 11.244577670937899 6.507857032372352 -2 -1 0
718 1 49.14415922908999 15.169143714241889 7.630822911792561 -1 -1 0
3396 1 2.8749668375742083 17.575418881984266 9.780830617493036 0 0 0
625 1 4.097931670269467 17.473230816789044 7.186943060311504 0 0 0
425 1 5.771033895581104 14.378448204865723 8.662167587425051 1 0 1
2512 1 6.887631316118624 18.104183828453035 8.339395581562464 1 1 -1
3105 1 9.049215045869607 16.868934813310247 6.865000585688654 0 0 0
1028 1 9.987165443861212 17.153707778042797 9.51064240309133 0 1 0
1002 1 15.349611539342572 17.631437915268094 9.153423021641485 0 0 1
3583 1 21.99834893666974 16.59653406471658 7.419562943988889 0 0 -1
1001 1 22.871706834249366 12.692585881424622 6.157572170628377 0 0 0
1164 1 26.27882326125936 18.78402304511125 7.629822956705244 1 1 0
106 1 27.713829483357934 18.552236495675004 12.050157544779971 1 0 -1
1194 1 28.52852903895274 17.46619398755099 7.201473710801811 0 1 0
1004 1 35.20461515017486 14.405701908278042 6.8001591331157885 0 0 0
3594 1 33.69285009941413 18.49221186458791 8.88025476890167 0 0 1
1462 1 37.77005059605099 15.489624917912842 7.252641296651744 1 0 1
416 1 43.140212378929206 15.826265035255165 7.236209099689087 -1 0 0
3872 1 43.902206658308714 18.20234049971319 8.100249485902966 0 1 1
1936 1 48.66117938547346 16.896061244393888 9.956486217835495 0 0 1
148 1 45.785726339691095 17.733952715145083 10.02064129443753 0 0 0
1670 1 0.82984413999615 20.49548278630014 6.894604620694365 1 0 1
2520 1 12.251735437059004 18.47422574657424 8.733790597709117 0 0 0
1282 1 11.416390282862693 21.156408305068307 8.305879738415667 0 -1 0
1905 1 15.829769999857941 19.3323187216464 7.2659220306348615 1 0 1
1236 1 15.458992412322969 21.74375589464974 8.679479962962349 1 -1 0
3146 1 20.656512444833464 20.69631551554014 8.613757216687544 1 1 1
2574 1 20.135750766726932 21.70048365779271 5.999202365878132 0 1 0
2251 1 23.30111727208163 21.804113374342954 8.563761853829918 1 0 0
1155 1 24.61588994359485 20.442862806306056 6.138541079698876 0 -1 -1
449 1 27.290016540232823 22.17672305497325 10.17773991223752 -1 -1 0
3533 1 31.310472550846594 17.15215536517266 7.923668853228154 1 1 1
1301 1 31.04056041698957 22.08930710674273 10.344920076285536 -1 0 -1
2252 1 37.87231655893375 20.66930090753387 8.631961673227993 -1 0 -1
140 1 37.29965277568709 18.58999644169628 10.659646812921656 0 0 0
1139 1 41.94608940168065 19.677325377171485 9.079206503105492 0 0 1
1074 1 45.02874915046107 19.906815110551506 6.091825402115245 -1 0 1
3440 1 2.947788832531229 21.87299952945081 8.66880582669916 0 0 0
171 1 5.5875601891091975 22.385346490094463 8.111019031489104 0 0 0
2652 1 13.147187872451369 23.20126292080541 8.859393812663395 1 0 -1
2532 1 22.350660899606307 23.42632903599649 6.419631554631644 0 1 0
614 1 1.8824151459653176 23.094930831280887 13.377705555324809 1 0 0
2174 1 34.08020355667004 24.237761913531255 7.851423720264229 0 1 1
3426 1 36.18884911663551 23.648993967881506 6.223357798340839 -1 1 0
1520 1 33.11787540435884 20.5231536614631 10.571115909558733 0 0 1
1249 1 38.06768778542944 22.555585584583376 10.66459098013824 0 0 1
2333 1 41.15481966557341 23.942801252273828 7.7486398052307 0 0 0
1258 1 45.12853654207538 22.350914562013298 7.423338559443397 0 0 0
3518 1 47.80437780861459 22.771701964335353 7.963313528052302 -1 -1 0
1510 1 49.591989835232084 22.543755479325668 5.943653289495945 -2 -1 0
108 1 36.37877788244296 10.9145762058752 15.771907983474904 0 0 0
3609 1 3.746671696893627 0.9905949961890699 11.445253354646821 1 1 0
396 1 20.820254969371906 1.9190016622779371 16.254147388957644 0 0 0
2151 1 10.045618344283437 3.2039350504838806 11.693708944582355 1 0 0
937 1 15.131402448058388 2.8478762795821413 10.869160807237384 0 0 0
381 1 19.820735577366747 1.465775070234686 11.851450826182095 0 0 0
3242 1 22.188727579272598 2.729793005647594 10.88644314167941 0 1 0
585 1 24.455606456874865 4.407270878971106 11.12282499219127 0 0 0
909 1 37.67645536858704 21.38240132308084 15.964185420019973 -1 0 0
1850 1 27.608857626754954 3.884199415557199 9.807982946042854 0 0 1
1777 1 13.628520194744993 20.056231685766093 15.920673286394955 0 -1 1
3550 1 32.39841957503613 2.4003239089001345 12.15243573274244 -1 2 0
767 1 37.36718622394356 4.583841838888144 12.57522828257386 -1 1 0