
# Create simulation box of size 50 x 50 x 50 Angstrom
#
lattice	            sc 1
Lattice spacing in x,y,z = 1.0000000 1.0000000 1.0000000
region 	            all block 0 50 0 50 0 50 units box
create_box          1 all
Created orthogonal box = (0.0000000 0.0000000 0.0000000) to (50.000000 50.000000 50.000000)
  1 by 2 by 3 MPI processor grid

# fill box with 4175 randomly distributed atoms
#
create_atoms        1 random 4175 63782 all
Created 4175 atoms
  create_atoms CPU = 0.001 seconds
mass                1 18.015

# Define potential
#
pair_style          sw
pair_coeff          * * ML_mW.sw mW
Reading sw potential file ML_mW.sw with DATE: 2019-02-27

# Run minimization
#
minimize            1.0e-8 1.0e-8 10000 1000
WARNING: Using 'neigh_modify every 1 delay 0 check yes' setting during minimization (../min.cpp:187)
Neighbor list info ...
  update every 1 steps, delay 0 steps, check yes
  max neighbors/atom: 2000, page size: 100000
  master list distance cutoff = 6.0032907
  ghost atom cutoff = 6.0032907
  binsize = 3.0016454, bins = 17 17 17
  1 neighbor lists, perpetual/occasional/extra = 1 0 0
  (1) pair sw, perpetual
      attributes: full, newton on
      pair build: full/bin/atomonly
      stencil: full/bin/3d
      bin: standard
Per MPI rank memory allocation (min/avg/max) = 4.255 | 4.258 | 4.261 Mbytes
Step Temp E_pair E_mol TotEng Press 
       0            0    7792709.3            0    7792709.3    5898794.3 
     630            0   -45180.336            0   -45180.336   -154.07449 
Loop time of 1.12868 on 6 procs for 630 steps with 4175 atoms

99.0% CPU use with 6 MPI tasks x no OpenMP threads

Minimization stats:
  Stopping criterion = max force evaluations
  Energy initial, next-to-last, final = 
      7792709.32924461  -45180.0188663597   -45180.336116598
  Force two-norm initial, final = 2.0191930e+08 4.9721331
  Force max component initial, final = 1.0948746e+08 0.73126211
  Final line search alpha, max atom move = 0.053306038 0.038980685
  Iterations, force evaluations = 630 1000

MPI task timing breakdown:
Section |  min time  |  avg time  |  max time  |%varavg| %total
---------------------------------------------------------------
Pair    | 0.88754    | 0.97622    | 1.03       |   5.1 | 86.49
Neigh   | 0.024046   | 0.024403   | 0.024962   |   0.2 |  2.16
Comm    | 0.054409   | 0.10811    | 0.19761    |  15.4 |  9.58
Output  | 0          | 0          | 0          |   0.0 |  0.00
Modify  | 0          | 0          | 0          |   0.0 |  0.00
Other   |            | 0.01995    |            |       |  1.77

Nlocal:        695.833 ave         704 max         685 min
Histogram: 1 1 0 0 1 0 0 1 0 2
Nghost:        1494.17 ave        1515 max        1468 min
Histogram: 1 1 0 0 0 0 1 1 1 1
Neighs:        0.00000 ave           0 max           0 min
Histogram: 6 0 0 0 0 0 0 0 0 0
FullNghs:      19997.0 ave       20462 max       19320 min
Histogram: 1 1 0 0 0 0 0 2 0 2

Total # of neighbors = 119982
Ave neighs/atom = 28.738204
Neighbor list builds = 26
Dangerous builds = 0

# Add velocity/set timestep
#
velocity            all create ${TEMP} 120598 rot yes dist gaussian
velocity            all create 225 120598 rot yes dist gaussian
timestep            5.0

# Define output
#
compute	            1 all msd
thermo	            100
thermo_style        custom step temp press vol etotal ke pe c_1[4] density

# Neighbor lists
#
neigh_modify        delay 0 every 1 check yes

# Set fixes
#
fix                 1 all momentum 10 linear 1 1 1 rescale
fix                 2 all nve
fix                 3 all temp/csvr ${TEMP} ${TEMP} 500.0 928347
fix                 3 all temp/csvr 225 ${TEMP} 500.0 928347
fix                 3 all temp/csvr 225 225 500.0 928347
fix                 4 all press/berendsen iso ${PRES} ${PRES} 1000.0 modulus 20000
fix                 4 all press/berendsen iso 0 ${PRES} 1000.0 modulus 20000
fix                 4 all press/berendsen iso 0 0 1000.0 modulus 20000

# Run 0.5 ns equilibration
#
dump                1 all custom 1000 eq.${NAME}.dump id type x y z vx vy vz
dump                1 all custom 1000 eq.liquid_density_MLmW.dump id type x y z vx vy vz
run                 100000
Per MPI rank memory allocation (min/avg/max) = 3.506 | 3.508 | 3.511 Mbytes
Step Temp Press Volume TotEng KinEng PotEng c_1[4] Density 
     630          225    869.67124       125000   -42380.908    2799.4278   -45180.336 2.7295415e-33   0.99914793 
     700    143.16453   -35.660128    125488.09   -41520.199     1781.239   -43301.438   0.26624897   0.99526172 
     800    177.64856   -213.89089    125467.55   -40735.694    2210.2858   -42945.979   0.61800274   0.99542464 
     900    195.44602   -192.71936    125360.46   -40302.996    2431.7201   -42734.716    1.0568047   0.99627499 
    1000    209.32381    54.837504     125592.1   -40015.928    2604.3861   -42620.314    1.4333003   0.99443745 
    1100    215.60883   -51.541681    125549.69   -39836.322    2682.5837   -42518.906    1.8590584   0.99477336 
    1200    218.73992    229.66086    125723.54   -39866.578    2721.5404   -42588.118    2.2920627   0.99339783 
    1300    220.05889   -223.28688     125635.6   -39850.617    2737.9509   -42588.568    2.6545107   0.99409316 
    1400    215.72792    89.606323    125514.94   -39861.111    2684.0655   -42545.177    3.0573553   0.99504877 
    1500    220.78498   -25.321922    125652.52   -39802.796    2746.9849   -42549.781    3.4819515   0.99395928 
    1600    228.04358    71.082472    125733.43   -39705.493    2837.2956   -42542.789    3.8636764   0.99331965 
    1700      225.205   -15.320826    125806.68   -39723.304    2801.9784   -42525.282    4.2826703   0.99274135 
    1800    227.30177   -86.763989    125898.43   -39803.652    2828.0661   -42631.718    4.6353078   0.99201782 
    1900    223.91389    -157.8154    125636.23   -39783.188    2785.9145   -42569.103    5.0615551   0.99408816 
    2000    224.41078   -86.553782    125662.64   -39735.553    2792.0967    -42527.65    5.3893534   0.99387928 
    2100    228.90947    237.92835    125656.64   -39690.861     2848.069    -42538.93    5.7415261   0.99392673 
    2200    224.79621    197.53506    125639.06   -39760.966    2796.8923   -42557.858    6.1747772   0.99406576 
    2300    228.62938    141.22141    125970.68   -39742.142    2844.5842   -42586.726    6.6737923   0.99144891 
    2400    225.50139    323.11124    126012.23   -39763.879     2805.666   -42569.545    7.1142464     0.991122 
    2500    227.47337   -152.14556    126341.76   -39721.003    2830.2012   -42551.205    7.3869038   0.98853691 
    2600    229.05971   -29.541973    126421.55   -39671.326    2849.9383   -42521.264    7.8864582   0.98791299 
    2700    226.50062    219.59952    126347.06   -39696.769    2818.0983   -42514.867    8.1672202   0.98849545 
    2800    227.03715     135.9238    126424.01    -39675.43    2824.7738   -42500.204    8.4541823    0.9878938 
    2900    224.17821   -125.88752    126221.86   -39744.827    2789.2032    -42534.03    8.8814809   0.98947592 
    3000    228.95991   -219.87722    126105.49   -39774.058    2848.6966   -42622.754    9.1351021   0.99038902 
    3100    226.24401   -176.77077    125978.68   -39749.934    2814.9056   -42564.839    9.5391572   0.99138591 
    3200     223.9232    116.17238    126142.11   -39804.632    2786.0304   -42590.663    10.035064   0.99010151 
    3300    228.58167    -130.2815    126305.85   -39797.354    2843.9905   -42641.345    10.515684   0.98881792 
    3400    224.34167   -232.96888    126066.13   -39832.859    2791.2369   -42624.096     10.66741    0.9906982 
    3500    227.19082    133.28299    126051.54    -39859.47    2826.6858   -42686.156    10.978193   0.99081287 
    3600    225.56154   -93.958998    126053.68   -39913.747    2806.4143   -42720.162    11.275137   0.99079611 
    3700    223.01608   0.47535691    125905.23   -39977.219     2774.744   -42751.963    11.642893   0.99196425 
    3800    220.92465    40.416976    125911.24   -39920.303    2748.7226   -42669.026    12.028155   0.99191697 
    3900    227.76578    155.51991    125958.41   -39940.314    2833.8393   -42774.153    12.279439    0.9915455 
    4000    222.09804    44.488537    126461.69   -39935.079    2763.3219   -42698.401    12.547211   0.98759938 
    4100     229.7848    178.75458     126732.3   -39930.958    2858.9597   -42789.917    12.945212   0.98549058 
    4200    228.28986    78.158029    126781.67   -39950.635    2840.3599   -42790.995    13.074328   0.98510688 
    4300     226.3059    32.652248    126842.56    -39979.44    2815.6756   -42795.116     13.28785   0.98463395 
    4400      227.406     208.7694    126982.19   -39989.902     2829.363   -42819.265    13.572514   0.98355128 
    4500    220.70878    174.89376    127024.47   -39982.508    2746.0368   -42728.545    13.985005   0.98322388 
    4600    224.93112    93.599968    127141.61   -40044.125    2798.5707   -42842.696    14.196965     0.982318 
    4700    225.38283    74.052587    127205.38   -39966.072    2804.1909   -42770.263      14.5576   0.98182555 
    4800    226.69728   -24.495402    127119.34   -40029.776    2820.5452   -42850.321    14.635415   0.98249006 
    4900    227.26457   -94.005695    127388.35   -39919.351    2827.6033   -42746.955    14.963875   0.98041537 
    5000    228.40213    43.520155    127294.63   -39876.215    2841.7567   -42717.971    15.376544   0.98113717 
    5100    228.73773   -37.548883    127323.27   -39966.711    2845.9323   -42812.643    15.698426   0.98091649 
    5200    223.67478    -144.5186    127347.83   -40010.365    2782.9395   -42793.305     15.88829    0.9807273 
    5300    226.56504    254.18431    127279.52   -39985.409    2818.8998   -42804.309    16.115107   0.98125361 
    5400    221.87301    96.153474    127298.04   -40030.957     2760.522   -42791.479    16.545327   0.98111084 
    5500    223.79893   -41.099691    127420.86   -40030.585    2784.4842   -42815.069    16.793114   0.98016519 
    5600    227.11046     89.95387    127310.38   -40037.049    2825.6859   -42862.735    17.063779   0.98101576 
    5700    227.69944   -40.052391    127377.45   -40040.633    2833.0139   -42873.647    17.360867   0.98049923 
    5800    223.52007    1.2553696    127486.16   -40067.232    2781.0146   -42848.246    17.722798   0.97966311 
    5900    226.03382   -139.27632    127469.58   -40105.017    2812.2904   -42917.307    17.872267   0.97979054 
    6000    222.98108    26.355112     127422.8   -40117.375    2774.3086   -42891.684    18.118381   0.98015024 
    6100    225.52918   -44.609194    127510.78   -40066.986    2806.0117   -42872.998    18.295656   0.97947398 
    6200    224.75649   -42.704532    127468.52   -40146.664     2796.398   -42943.062    18.615951   0.97979868 
    6300     224.3798     162.3973    127422.39   -40118.932    2791.7113   -42910.643    18.960753   0.98015341 
    6400    224.78704    117.04492    127486.23    -40094.98    2796.7781   -42891.758     18.92864   0.97966259 
    6500    227.95151   -24.755096    127493.35   -40055.989    2836.1501   -42892.139    19.225999    0.9796079 
    6600    223.67787    70.878201    127386.06   -40132.239     2782.978   -42915.217    19.586052   0.98043298 
    6700    221.05724   -74.365334    127320.06   -40196.988    2750.3723    -42947.36    19.955755   0.98094118 
    6800    225.86545   -215.76854    127278.28   -40103.265    2810.1955    -42913.46    20.088949   0.98126319 
    6900    227.60315   -46.416944    127371.21    -40031.86    2831.8159   -42863.676     20.38516   0.98054728 
    7000     227.2638    232.38717    127486.36   -40024.863    2827.5938   -42852.457    20.772719   0.97966158 
    7100    226.19707    -2.177842    127459.52   -40049.063    2814.3216   -42863.385    21.159393   0.97986787 
    7200    226.91812   -15.097721    127525.72   -40119.397    2823.2928    -42942.69    21.541207   0.97935922 
    7300    225.35272   -93.187899    127693.87    -40194.01    2803.8163   -42997.826     21.84747   0.97806959 
    7400    222.70714    93.431609    127721.14   -40230.116    2770.9002   -43001.016    22.274368   0.97786076 
    7500    220.78404   -7.7784491     127776.9   -40206.552    2746.9732   -42953.525    22.316564     0.977434 
    7600     217.0558   -62.319407    127767.28   -40273.079    2700.5869   -42973.666    22.557487   0.97750765 
    7700    222.86253    -43.95264    127724.07   -40168.915    2772.8336   -42941.749    22.727519   0.97783834 
    7800    228.02655   -170.37319    127745.14    -40143.85    2837.0839   -42980.934    22.995768   0.97767704 
    7900    222.55953    132.92127    127915.49   -40202.227    2769.0636   -42971.291    23.290263   0.97637503 
    8000    223.87109   -84.540642    127806.99    -40173.27     2785.382   -42958.652    23.440492   0.97720394 
    8100    223.64066   -212.81148    127855.12   -40251.693    2782.5149   -43034.208     23.52168   0.97683604 
    8200    222.23956   -131.66032    127845.33   -40264.952    2765.0827   -43030.035    23.910338   0.97691088 
    8300    222.30841   -74.393356    127955.27   -40264.001    2765.9393    -43029.94    24.132431   0.97607146 
    8400    223.41195    88.877351    127833.03   -40214.221    2779.6694   -42993.891    24.382845   0.97700489 
    8500    228.08281    70.853541    127830.06   -40124.116    2837.7838     -42961.9    24.519138   0.97702752 
    8600    224.03959   -65.109914    127791.22   -40141.874    2787.4784   -42929.353    24.699671    0.9773245 
    8700     225.9028   -50.083548    127843.71   -40121.822    2810.6603   -42932.482    24.997659   0.97692321 
    8800    221.45684   -111.45473    127926.02   -40171.397    2755.3441   -42926.741    25.311692   0.97629468 
    8900    222.01824    74.488794     127730.9   -40266.147     2762.329   -43028.476    25.567781   0.97778604 
    9000    226.47569    -154.0734    128013.24   -40225.402    2817.7882    -43043.19     25.90779   0.97562946 
    9100    222.80695   -130.05431    128024.67   -40282.863    2772.1421   -43055.005     26.19838   0.97554234 
    9200    224.70536    178.13631    128049.17   -40186.019    2795.7619   -42981.781    26.424813    0.9753557 
    9300    223.47006    113.37824    128234.52   -40233.949    2780.3924   -43014.342    26.546909   0.97394598 
    9400    224.94266    51.840077     128379.4   -40178.901    2798.7144   -42977.615    26.838764   0.97284685 
    9500    220.79052   -112.04037    128310.37   -40184.277    2747.0538    -42931.33    26.968549   0.97337017 
    9600    224.78306    24.793034    128301.89   -40155.435    2796.7287   -42952.164    27.143906   0.97343454 
    9700    222.41835    275.80889    128316.47   -40066.752    2767.3072   -42834.059    27.522344   0.97332395 
    9800    226.01425    -18.60306    128367.31   -40139.983     2812.047    -42952.03    27.852278   0.97293846 
    9900    217.47073   -99.100274    128248.33   -40220.265    2705.7493   -42926.014    28.048577   0.97384105 
   10000    221.81979   -103.10674    128016.88   -40225.305    2759.8599   -42985.165    28.184241   0.97560175 
   10100     227.2148   -3.5326061    127892.82   -40191.491     2826.984   -43018.475    28.479719   0.97654807 
   10200    221.23324   -19.648289    127845.79   -40245.161    2752.5621   -42997.724    28.818128   0.97690734 
   10300    225.76448    294.92877    128162.11    -40231.46    2808.9393   -43040.399    29.089637   0.97449621 
   10400    228.64522   -33.528447    128266.75   -40175.178    2844.7812   -43019.959    29.440201   0.97370125 
   10500    226.37584   -41.581824    128412.95   -40164.627    2816.5458   -42981.173    29.843654   0.97259268 
   10600    231.41609    11.252248    128321.54   -40094.683    2879.2562   -42973.939    30.135038   0.97328549 
   10700    226.28484   -20.852316    128320.19   -40081.595    2815.4136   -42897.009    30.250261   0.97329571 
   10800    226.00915   -170.48295    128012.08   -40052.792    2811.9835   -42864.776     30.48594   0.97563834 
   10900     227.9602    217.95538    127893.18   -40074.409    2836.2583   -42910.667    30.670543   0.97654538 
   11000    223.27108     100.2001    128101.77   -40054.734    2777.9167    -42832.65    31.011152   0.97495524 
   11100    224.06111   -4.4127148    128098.05   -40096.947    2787.7462   -42884.693    31.176271   0.97498354 
   11200    225.14713     47.67588    128197.14   -40082.973    2801.2584   -42884.232     31.24738   0.97422997 
   11300    226.09913   -35.743224    128254.92   -40073.859     2813.103   -42886.962    31.791664   0.97379105 
   11400    220.73509   -25.065879    128389.85   -40071.406    2746.3642   -42817.771    31.962267    0.9727676 
   11500    224.40824   -72.877385    128485.34   -40096.885    2792.0651    -42888.95    32.207212   0.97204469 
   11600     222.6881    1.7141735     128376.2   -40106.349    2770.6633   -42877.012    32.617887   0.97287108 
   11700    228.00024    6.1435678    128523.68    -39999.02    2836.7564   -42835.776    32.798484   0.97175474 
   11800    229.39435   -84.727911    128595.93   -40077.955    2854.1019   -42932.056    32.943953   0.97120874 
   11900    225.92828    136.16946    128419.51    -40104.27    2810.9774   -42915.248    33.097945   0.97254299 
   12000    226.75598   -25.511104    128614.44   -40115.435    2821.2755   -42936.711    33.354663   0.97106896 
   12100    227.88533   -2.2286121    128579.72   -40077.347    2835.3268   -42912.674    33.597095   0.97133122 
   12200    226.39521    57.446822     128337.8   -40083.102    2816.7868   -42899.889    33.589037   0.97316219 
   12300      226.433    82.015682    128258.61    -40093.71    2817.2571   -42910.967    33.708349   0.97376303 
   12400    225.42895    54.809102    128451.47   -40090.823    2804.7647   -42895.588    33.878955   0.97230102 
   12500    221.98361    25.404481    128669.17   -40188.411    2761.8981   -42950.309    34.029598    0.9706559 
   12600    226.99498   -122.38528    128490.23   -40108.679    2824.2491   -42932.928    34.285754   0.97200769 
   12700    227.77264    31.800753    128641.61   -40085.662    2833.9247   -42919.586    34.510163   0.97086385 
   12800    226.25803    57.429239    128377.35   -40061.611    2815.0801   -42876.691    34.749911   0.97286235 
   12900    225.67318   -81.452749    128320.81   -40120.105    2807.8034   -42927.909    34.996155   0.97329099 
   13000    228.67591    181.98962    128355.82   -40057.708    2845.1631   -42902.871    35.208051   0.97302556 
   13100    227.71505   -44.432691    128290.85   -40063.729    2833.2081   -42896.937    35.352921   0.97351829 
   13200     226.4283   -106.08451    128320.22   -39972.453    2817.1985   -42789.651    35.735144   0.97329551 
   13300     222.7082   -61.416075    128255.24   -40013.321    2770.9134   -42784.235    36.132246   0.97378859 
   13400    225.43062   -63.217884    128287.07   -40095.054    2804.7855    -42899.84    36.334429     0.973547 
   13500    221.75935   -24.408754    128003.02   -40116.929    2759.1079   -42876.037    36.707149   0.97570735 
   13600    219.22257   -29.167387    128072.88   -40133.813    2727.5455   -42861.359    36.843929   0.97517516 
   13700      222.928    90.482269    127875.18   -40121.748    2773.6481   -42895.396    36.776703   0.97668282 
   13800    228.51641    41.365876    127961.58   -40036.837    2843.1786   -42880.015    36.825938   0.97602339 
   13900    227.78721    236.39786    127806.28   -40088.131    2834.1059   -42922.237     36.97999   0.97720934 
   14000    229.20938   -35.776454    127861.67   -40090.235    2851.8005   -42942.035    37.177482   0.97678599 
   14100    226.64121   -115.92899    127839.63   -40093.324    2819.8475   -42913.171    37.344796   0.97695445 
   14200    226.08239    15.326887     127843.4   -40147.288    2812.8947   -42960.183    37.527957    0.9769256 
   14300    222.41978    34.108562    128019.25   -40193.882    2767.3249   -42961.207    37.730263   0.97558365 
   14400    222.36878   -127.36532    128087.12   -40180.294    2766.6904   -42946.985    38.038313   0.97506678 
   14500    223.63323    48.314166     128146.9   -40128.363    2782.4225   -42910.786    38.218442   0.97461191 
   14600     225.8938   -23.073812    128166.49   -40138.891    2810.5484   -42949.439    38.333299   0.97446295 
   14700    224.78578   -195.55227     128021.1   -40178.842    2796.7624   -42975.605    38.457761   0.97556958 
   14800    224.11652    -17.54144    127898.78   -40222.199    2788.4356   -43010.634     38.73451   0.97650261 
   14900    216.94765   -123.53223    127873.46   -40279.606    2699.2412   -42978.847    39.025887   0.97669596 
   15000    217.83848    5.2978735    127669.47    -40272.29    2710.3249   -42982.615    39.349126   0.97825655 
   15100    221.64878    11.340822    127912.95   -40296.889    2757.7323   -43054.621    39.871818   0.97639446 
   15200    223.05985     5.392606    127914.34   -40216.288    2775.2886   -42991.577    40.089821   0.97638378 
   15300    223.46136   -120.94133    127831.28   -40222.545    2780.2841   -43002.829    40.338297   0.97701821 
   15400    228.63132    101.78209     127827.1   -40207.556    2844.6083   -43052.164    40.621885   0.97705019 
   15500    226.31528    24.032354    127967.81   -40196.567    2815.7924   -43012.359    40.767327   0.97597585 
   15600    225.03883    32.503166    128160.93   -40131.693    2799.9109   -42931.604    40.934999   0.97450517 
   15700    224.98529    49.742324    127991.91   -40228.478    2799.2447   -43027.723    41.096595   0.97579211 
   15800    229.34228    36.351358    128282.83   -40230.258     2853.454   -43083.712     41.45035   0.97357918 
   15900    224.53891   -32.275053    128283.23   -40277.058    2793.6909   -43070.749     41.53477   0.97357617 
   16000    225.88481    93.544336    128313.85   -40217.124    2810.4365    -43027.56    41.753189    0.9733438 
   16100    223.51166   -92.723866    128123.37   -40165.857      2780.91   -42946.767      42.0262   0.97479087 
   16200    225.48901   -113.42176    128152.67   -40219.566     2805.512   -43025.078    42.379308   0.97456799 
   16300    221.43776    145.85311    128239.29   -40243.934    2755.1068    -42999.04    42.731254   0.97390973 
   16400    229.62864    7.0684497     128112.7   -40150.045    2857.0168   -43007.062    42.772341   0.97487207 
   16500     226.2515    237.94651    128181.18   -40140.777    2814.9988   -42955.776    42.811304   0.97435124 
   16600    229.10598    137.91213    127888.29   -40115.777    2850.5139   -42966.291    42.812909   0.97658268 
   16700    224.72643    35.822268    127941.91   -40144.339     2796.024   -42940.363    42.987056   0.97617345 
   16800    227.07282    147.39663    128008.42   -40117.334    2825.2176   -42942.551    43.141288   0.97566623 
   16900    224.07322    50.329855    127962.83   -40083.333    2787.8968    -42871.23    43.463308   0.97601379 
   17000    231.50659   -40.013689     128059.3    -40114.07    2880.3821   -42994.452    43.926584   0.97527861 
   17100    227.84887   -37.830202    127988.02   -40047.571    2834.8732   -42882.444    44.229811   0.97582174 
   17200    228.71914   -25.245817    127797.34   -40049.723    2845.7009   -42895.424    44.575308    0.9772777 
   17300     225.7647    158.85231    127822.16   -40107.316    2808.9421   -42916.258    44.764547   0.97708796 
   17400    222.74798    46.327189    127864.67   -40129.319    2771.4083   -42900.727    45.115897   0.97676309 
   17500    226.08169    2.0300276    127937.26    -40116.97     2812.886   -42929.856    45.312018   0.97620887 
   17600    224.56689   -71.718343     127760.6   -40089.285     2794.039   -42883.324    45.299398   0.97755875 
   17700    224.71195    43.503708     127609.7   -40094.712    2795.8439   -42890.556    45.312915   0.97871474 
   17800    226.54917   -21.243479    127574.03   -40098.689    2818.7023   -42917.391    45.593092   0.97898834 
   17900    229.63669    32.624765     127546.8   -40070.829    2857.1171   -42927.946    45.719565   0.97919738 
   18000    229.62691     73.35423    127575.52   -40002.266    2856.9953   -42859.262    45.949586   0.97897694 
   18100    226.33873    108.68039     127765.7    -40097.11    2816.0841   -42913.194    46.405524   0.97751969 
   18200    227.82821    135.09286    127770.11   -40116.697     2834.616   -42951.313    46.651826   0.97748594 
   18300    233.41802   0.88775235    127990.89   -40024.214    2904.1639   -42928.378    46.681878   0.97579983 
   18400    220.69147    91.161095     127920.1    -40096.89    2745.8215   -42842.712    46.866151   0.97633983 
   18500    227.73991   -24.222978    127995.69   -40058.844    2833.5175   -42892.362    47.126231   0.97576329 
   18600    225.80672    240.25793     128083.9   -40107.328    2809.4649   -42916.793    47.313987   0.97509123 
   18700    223.11001    16.333384    127921.44    -40068.34    2775.9127   -42844.253    47.711297   0.97632962 
   18800     226.6067    37.655031    128084.26   -40053.845    2819.4181   -42873.263    47.954774   0.97508848 
   18900    224.62837    -57.95622    128135.43   -40088.321    2794.8039   -42883.124     48.27372   0.97469913 
   19000    225.70697    54.261289    128078.81   -40074.446    2808.2238    -42882.67    48.511743   0.97512998 
   19100    222.02263    81.500593     128274.4   -40121.639    2762.3837   -42884.022      48.7858   0.97364313 
   19200     226.6357   -44.506345    128176.72   -40103.291     2819.779    -42923.07    49.085812   0.97438513 
   19300    229.01554   -122.67629    128235.01   -40057.893    2849.3887   -42907.282    49.493353   0.97394221 
   19400    226.26371    14.107244    128619.58   -40087.571    2815.1507   -42902.721    49.575649   0.97103017 
   19500    225.41341   -145.52561       128501   -40074.238    2804.5713   -42878.809    49.632876   0.97192624 
   19600    226.95833    -84.80815    128564.95   -40118.324    2823.7931   -42942.117    49.887601    0.9714428 
   19700    231.07162   -32.030111    128463.23   -40107.925    2874.9703   -42982.895    50.117726   0.97221199 
   19800    222.83468    5.2523034    128317.97   -40143.594    2772.4871   -42916.081    50.091972   0.97331252 
   19900    224.71715   -92.366194    128535.07    -40155.18    2795.9085   -42951.089    50.196643    0.9716686 
   20000    222.23151    58.321083    128453.36   -40204.474    2764.9825   -42969.456    50.443897   0.97228666 
   20100    220.47424    76.519421    128282.17   -40147.744    2743.1187   -42890.862    50.651212   0.97358416 
   20200    221.85136    -158.0203    128280.21   -40184.643    2760.2527   -42944.895    50.799806   0.97359906 
   20300     224.4443    -12.61496    128181.13   -40209.192    2792.5138   -43001.706    51.278928    0.9743516 
   20400    221.31277   -215.34346    128120.46   -40210.585    2753.5517   -42964.137    51.388635   0.97481304 
   20500    227.77165    66.108248    128127.06   -40178.787    2833.9124     -43012.7    51.564238   0.97476279 
   20600    218.74307    52.302036    128136.74   -40205.205    2721.5797   -42926.785    51.552595   0.97468912 
   20700    225.12535    65.505622    128113.32   -40138.974    2800.9874   -42939.961    51.670299   0.97486733 
   20800    225.60191    87.511393    128178.57    -40138.43    2806.9167   -42945.347    52.034585   0.97437106 
   20900    224.83316   -135.58035    128262.09   -40178.213     2797.352   -42975.565    52.470965   0.97373657 
   21000    220.22015    -58.32788    128233.46   -40275.334    2739.9573   -43015.292    52.459978   0.97395399 
   21100    223.23697  -0.59778456    128375.09    -40292.79    2777.4923   -43070.282    52.702121   0.97287949 
   21200    220.31162   -85.633304    128332.92   -40278.557    2741.0954   -43019.653    53.218637   0.97319921 
   21300    225.20693   -116.45452    128246.29   -40291.352    2802.0024   -43093.354    53.346028   0.97385654 
   21400     222.9006    0.6779557    128255.65   -40269.043    2773.3073    -43042.35    53.614203   0.97378552 
   21500    225.51589    140.02406    128317.02   -40266.809    2805.8464   -43072.655    53.830628   0.97331978 
   21600    224.91804    190.50498    128501.61   -40210.312    2798.4081   -43008.721    54.242534   0.97192159 
   21700    224.73701    45.816326    128606.84   -40187.502    2796.1557   -42983.658    54.336417   0.97112635 
   21800    222.47231    78.589124    128429.12   -40181.277    2767.9784   -42949.256    54.466368   0.97247017 
   21900    225.17047      74.0182    128471.46   -40200.799    2801.5488   -43002.347    54.749506    0.9721497 
   22000    222.01012    -185.1266    128403.28   -40238.637     2762.228   -43000.865     54.87009   0.97266591 
   22100    226.96582   -113.71858    128453.03   -40188.187    2823.8863   -43012.074    54.891971    0.9722892 
   22200    224.06989   -103.55588    128392.33    -40219.73    2787.8554   -43007.585    55.194653   0.97274885 
   22300    224.71506    -50.34953    128230.83    -40188.67    2795.8826   -42984.553    55.446169   0.97397397 
   22400    230.11587    170.78139    128440.31    -40152.45    2863.0789   -43015.529    55.673678   0.97238547 
   22500    224.95353    2.9072648     128696.5    -40155.72    2798.8495   -42954.569    56.094627    0.9704498 
   22600    225.68609    157.23836    128671.26    -40119.51    2807.9641   -42927.474    56.444281   0.97064011 
   22700    225.37216   -134.74959    128700.45   -40126.543    2804.0582   -42930.601    56.539499   0.97042002 
   22800    228.88579    110.96428     128744.5   -40112.683    2847.7744   -42960.458    56.797157   0.97008798 
   22900    225.22835    -144.1888    128714.78   -40161.781    2802.2689    -42964.05    57.027021   0.97031193 
   23000    226.38951   -111.52385    128685.74   -40130.137    2816.7159   -42946.853    57.030971   0.97053095 
   23100    227.22566   -41.710146    128679.88   -40231.284    2827.1192   -43058.403    57.178085   0.97057513 
   23200    224.14152    32.032869    128615.43   -40178.144    2788.7466   -42966.891    57.373722   0.97106145 
   23300    222.36279   -43.295886    128571.96   -40211.167    2766.6159   -42977.782    57.651392   0.97138978 
   23400    225.55609    108.77648    128703.83   -40136.436    2806.3466   -42942.783    57.942603    0.9703945 
   23500    222.96642    48.016549    128748.43   -40196.781    2774.1262   -42970.907    58.063127   0.97005834 
   23600    225.39853   -22.167818    128690.98   -40176.065    2804.3863   -42980.452    58.095166    0.9704914 
   23700    222.52447    53.090728    128620.01   -40195.154    2768.6274   -42963.781    58.103066   0.97102693 
   23800    219.86496   -210.77617    128616.51   -40243.479    2735.5381   -42979.017    58.254071   0.97105331 
   23900    225.57671   -93.700071    128562.01   -40254.681    2806.6031   -43061.285    58.643536   0.97146496 
   24000     225.8015   -78.057614    128759.91   -40183.513    2809.3999   -42992.913    59.216253    0.9699719 
   24100    225.70898   -157.36068    128744.93   -40194.024    2808.2488   -43002.272    59.590736   0.97008471 
   24200    221.75571   -57.304845    128628.87   -40270.005    2759.0626   -43029.067    59.898931   0.97096001 
   24300    223.07933   -54.813998    128440.57   -40239.173     2775.531   -43014.704    59.829074   0.97238354 
   24400    223.38416    34.743492    128664.11   -40260.971    2779.3236   -43040.295    59.973802   0.97069412 
   24500    223.65969    203.78499    128672.65   -40208.897    2782.7517   -42991.648    60.124033   0.97062963 
   24600    226.01546    38.183428    128653.25   -40184.776     2812.062   -42996.838    60.400446   0.97077603 
   24700    221.56219    21.775101    128808.06   -40198.894    2756.6549   -42955.549    60.880965   0.96960927 
   24800    221.01484    1.6439471    128559.77   -40202.408    2749.8448   -42952.252    61.135965   0.97148193 
   24900    222.18648    272.24726    128634.66   -40136.605    2764.4222   -42901.027    61.347145   0.97091629 
   25000    222.80973    217.29115    129012.65   -40127.688    2772.1766   -42899.865    61.895711   0.96807164 
   25100    225.63213   -49.287105    129007.32   -40133.136    2807.2927   -42940.429    62.247435   0.96811169 
   25200    223.78614   -203.04319    128903.22   -40181.141     2784.325   -42965.466    62.389098   0.96889347 
   25300    222.54117   -121.25468    128688.07   -40190.644    2768.8352    -42959.48    62.514709   0.97051339 
   25400    226.46959    163.88226    128753.07   -40178.951    2817.7122   -42996.664    62.667695   0.97002342 
   25500    226.82654   -9.4780761    129098.03   -40147.947    2822.1533     -42970.1    62.844143   0.96743143 
   25600    222.32459   -157.77623    128672.52   -40238.862    2766.1406   -43005.003    62.697191   0.97063061 
   25700    223.19774    25.135222    128819.59   -40239.342    2777.0043   -43016.346    62.991635   0.96952252 
   25800    224.68932   -171.26964    128937.65    -40218.66    2795.5623   -43014.222    63.557392   0.96863475 
   25900    225.19956   -263.71799    128581.23   -40169.244    2801.9106   -42971.155    63.588282   0.97131978 
   26000    228.44259   -106.27733    128520.59   -40090.849    2842.2601   -42933.109    63.939271   0.97177805 
   26100    220.47718    102.10794    128709.29   -40164.427    2743.1553   -42907.582    64.613057   0.97035337 
   26200    224.41012   -4.3280933    128702.49   -40142.037    2792.0885   -42934.125    64.920774   0.97040459 
   26300    225.11899     121.9617    128695.08    -40122.75    2800.9082   -42923.658    65.094665   0.97046053 
   26400    222.82412    21.274278    128757.08   -40110.814    2772.3557    -42883.17    65.493001   0.96999318 
   26500    224.31739    26.110641    128809.35   -40170.854    2790.9348   -42961.789    65.645734   0.96959956 
   26600    223.50682    61.621897    128884.02   -40212.742    2780.8498   -42993.592    65.715457   0.96903781 
   26700    219.71169    9.0134202    129006.09   -40237.473    2733.6311   -42971.104    66.215911   0.96812089 
   26800    225.73333   -101.53153       129070   -40163.163    2808.5518   -42971.715    66.590103   0.96764153 
   26900    224.75693   -89.825976    128949.37   -40164.322    2796.4036   -42960.725    66.829094   0.96854673 
   27000     224.9747    123.06158    128885.08   -40196.609     2799.113   -42995.722    67.018089   0.96902986 
   27100    224.45593   -152.76363    128830.54   -40198.121    2792.6585   -42990.779    67.312545   0.96944007 
   27200    222.21439    121.80324    128829.81   -40231.163    2764.7695   -42995.933    67.383069   0.96944562 
   27300    223.76353   -26.208936       128857   -40270.272    2784.0438   -43054.316    67.315965   0.96924101 
   27400     224.7295    195.09477     129001.2   -40229.362    2796.0622   -43025.424    67.507956   0.96815759 
   27500    228.95254   -32.825389    129252.98   -40188.362    2848.6048   -43036.966    67.798975   0.96627167 
   27600    224.27065   -159.89442    129321.44   -40223.648    2790.3532   -43014.002    67.949383   0.96576014 
   27700    228.95542   -288.27089    129368.69   -40220.284    2848.6407   -43068.925    68.204519    0.9654074 
   27800    228.61747   -51.748982    129164.04   -40172.649    2844.4359   -43017.085    68.518509   0.96693702 
   27900    224.73913    27.400204     128913.8   -40199.071     2796.182   -42995.253    68.632154   0.96881394 
   28000     224.9277    218.19161    129022.13   -40232.621    2798.5282   -43031.149     68.88759   0.96800051 
   28100    222.25815   -162.88745    129079.19   -40208.227    2765.3139    -42973.54    68.989164   0.96757263 
   28200    223.66594   -53.256053    128855.84   -40251.636    2782.8295   -43034.465    69.164636   0.96924975 
   28300    227.44407     24.17167    128749.01   -40235.855    2829.8366   -43065.691     69.48014   0.97005396 
   28400    220.73769   -179.96199    128895.74   -40273.497    2746.3966   -43019.893    69.642841   0.96894974 
   28500    218.84891   -113.00639    128820.09    -40284.74    2722.8966   -43007.637    69.569987   0.96951871 
   28600    226.47947    68.245822    128890.26   -40234.789    2817.8351   -43052.624    70.021248   0.96899092 
   28700    225.50393   -135.98068       128785   -40259.466    2805.6976   -43065.163    70.347536   0.96978292 
   28800    222.07576    75.060891    128692.83   -40236.504    2763.0446   -42999.549    70.856986   0.97047746 
   28900    224.09581    53.683663    128793.76    -40203.04     2788.178   -42991.218    71.404552   0.96971697 
   29000    223.03102    119.47539    128913.09   -40278.717    2774.9299   -43053.647    71.414614   0.96881933 
   29100    224.68976    69.881294    128700.74   -40203.186    2795.5677   -42998.754    71.609107   0.97041781 
   29200     223.2679   -60.525201     128745.6   -40155.788    2777.8771   -42933.665    71.679255   0.97007971 
   29300    224.51538   -117.73158     128598.3   -40217.927    2793.3981   -43011.325    71.893966   0.97119082 
   29400    222.44511    86.009056    128633.13   -40265.334      2767.64   -43032.974    71.993844   0.97092786 
   29500    223.37284   -7.2942917    128790.13    -40282.48    2779.1828   -43061.662    72.464276    0.9697443 
   29600    227.35269    42.112222    128742.35   -40205.233    2828.6997   -43033.933    72.506794   0.97010417 
   29700    230.58116    14.080059    128658.18   -40267.898     2868.868   -43136.766    72.538011   0.97073879 
   29800    222.59322   -31.059024    128681.12   -40241.479    2769.4829   -43010.962    72.389946   0.97056577 
   29900    223.60679    247.02935    128717.41   -40261.205    2782.0936   -43043.299    72.768479   0.97029216 
   30000    225.35486     29.50207    128687.51   -40250.648    2803.8429   -43054.491    73.174205   0.97051756 
   30100    228.46752   -14.095557    128570.62   -40254.429    2842.5703   -43096.999    73.208913   0.97139994 
   30200     222.9624   -20.791641    128524.52   -40260.515    2774.0761   -43034.591    73.351403   0.97174839 
   30300    224.84706     211.5903    128775.59   -40221.495    2797.5249   -43019.019     73.60024   0.96985377 
   30400    220.45869    48.541013    128677.27   -40203.428    2742.9252   -42946.353    73.583879   0.97059481 
   30500    227.02256   -13.743346    128557.51   -40196.605    2824.5923   -43021.198    73.458995   0.97149898 
   30600    223.82185    -131.9045    128345.62   -40201.254    2784.7693   -42986.023    74.178803   0.97310289 
   30700    225.10347   -8.8512777    128072.03   -40208.909    2800.7152   -43009.624    74.094952   0.97518166 
   30800    223.17231   -68.686758    128255.25   -40147.086    2776.6878   -42923.774    74.416368   0.97378855 
   30900    219.81847   -11.081608    128434.18   -40234.339    2734.9597   -42969.298    74.533446    0.9724319 
   31000    222.58198    45.425006    128405.97   -40272.217     2769.343    -43041.56    74.676048   0.97264553 
   31100    224.86062   -59.719373    128455.39    -40276.75    2797.6935   -43074.443    74.921621   0.97227132 
   31200    226.29291   -59.748411    128401.19   -40287.902    2815.5141   -43103.416    75.042492   0.97268175 
   31300    223.97951   -65.086532    128746.81   -40237.899     2786.731    -43024.63    75.693829   0.97007053 
   31400    222.11912   -69.704713    128734.72   -40193.101    2763.5841   -42956.685    75.941493   0.97016167 
   31500    219.35261    23.450887    128686.46   -40241.692    2729.1635   -42970.855    76.125326   0.97052551 
   31600    227.20196   -94.662671    128856.01   -40165.405    2826.8244    -42992.23    76.314477    0.9692485 
   31700    224.09153    18.935336    128534.77   -40205.823    2788.1247   -42993.948    76.474966   0.97167088 
   31800    226.32342   -34.638764    128570.97   -40134.488    2815.8936   -42950.382    76.536852   0.97139729 
   31900    228.41076    42.862664    128569.38   -40135.653    2841.8641   -42977.518    76.929968   0.97140926 
   32000    228.21236   -12.269263    128603.24   -40125.305    2839.3956   -42964.701    77.288593   0.97115356 
   32100    226.02567   -23.222695    128308.15   -40142.962    2812.1891   -42955.151    77.294624   0.97338706 
   32200    226.98387    71.899126    128426.14   -40142.951    2824.1108   -42967.061    77.315065   0.97249279 
   32300    230.50597    11.864322    128438.74   -40133.258    2867.9325   -43001.191    77.647616   0.97239736 
   32400    222.72502    173.95883    128290.79   -40184.835    2771.1227   -42955.958    77.620168   0.97351874 
   32500     224.5541    2.9984052    128468.29   -40192.831    2793.8799   -42986.711    77.961965   0.97217371 
   32600    230.13827     55.18284    128348.34   -40145.638    2863.3576   -43008.996    78.280456   0.97308221 
   32700    223.34168    59.071845    128408.44   -40199.325    2778.7951    -42978.12    79.061039   0.97262682 
   32800    219.48492   -45.168301     128433.4   -40230.826    2730.8097   -42961.636    79.206968   0.97243779 
   32900    219.22434    32.923819    128244.71   -40229.502    2727.5676    -42957.07    79.349095   0.97386857 
   33000    222.89768    27.069621    128317.24   -40285.384    2773.2709   -43058.655    79.395627   0.97331805 
   33100     223.5601    -31.77703    128067.67   -40204.087    2781.5127     -42985.6    79.449291   0.97521481 
   33200    221.79674    60.131442    128065.93   -40235.145    2759.5731   -42994.718    79.678991   0.97522806 
   33300    224.09931   -132.39057    127938.96   -40163.285    2788.2214   -42951.506    79.888531   0.97619595 
   33400    220.63965   -184.68135    127980.06   -40222.679    2745.1767   -42967.856    80.038375   0.97588244 
   33500    222.53658   -150.39378    127865.08   -40177.715    2768.7782   -42946.493    79.993626      0.97676 
   33600    223.98439   -47.469643    127801.56   -40145.822    2786.7916   -42932.614    80.146911   0.97724546 
   33700    225.23711    30.225492    127858.83   -40136.007    2802.3778   -42938.385    80.304931   0.97680774 
   33800    223.00943    175.40815    127938.69   -40127.294    2774.6612   -42901.955    80.806815   0.97619798 
   33900    224.15612   -10.361207    127973.95   -40129.602    2788.9283    -42918.53    80.833141   0.97592903 
   34000      230.794   -77.292296    127798.65   -40103.716    2871.5162   -42975.232    81.210587   0.97726765 
   34100    223.22698     250.4214     127913.6   -40146.184     2777.368   -42923.552    81.219163   0.97638949 
   34200    226.78293    25.193235    128330.02   -40143.895    2821.6108   -42965.506    81.242792   0.97322119 
   34300    221.67481    206.66893    128412.37   -40200.842     2758.056   -42958.898    81.591333   0.97259706 
   34400    226.52941    44.594567     128545.1   -40132.616    2818.4566   -42951.073    81.773046   0.97159274 
   34500    225.57282    151.98475    128520.81   -40166.513    2806.5547   -42973.067    82.084157    0.9717764 
   34600     228.4713     11.00254    128444.34   -40158.616    2842.6173   -43001.233     82.05593   0.97235494 
   34700    221.52232    46.860687    128253.62   -40239.012    2756.1588    -42995.17    82.215403   0.97380088 
   34800    220.90654    45.099422    128428.35   -40223.411    2748.4973   -42971.908    82.418419   0.97247604 
   34900    221.96832    45.332103    128195.45   -40233.312    2761.7079    -42995.02    82.177212   0.97424278 
   35000    220.49419   -54.208441     128106.3   -40306.877    2743.3669   -43050.244    82.111939   0.97492079 
   35100    224.82717   -42.312508    127870.96   -40246.699    2797.2774   -43043.976    81.891985   0.97671504 
   35200    221.83176   -17.796291    128163.14   -40235.455    2760.0088   -42995.464    82.252911   0.97448836 
   35300    220.90929    110.21958    128220.43   -40225.027    2748.5315   -42973.558    82.879702     0.974053 
   35400    226.73034   -45.350478    128391.77   -40243.298    2820.9565   -43064.255    83.322085   0.97275309 
   35500    226.23006    31.011005    128194.53   -40138.368     2814.732     -42953.1    83.655001   0.97424975 
   35600    223.70199    159.04091    128112.08    -40181.39    2783.2781   -42964.668     84.05123   0.97487681 
   35700    227.97096    26.491298    128280.45   -40146.618    2836.3922    -42983.01    84.562496   0.97359727 
   35800    226.26903    79.333073     128362.9   -40204.162    2815.2169   -43019.379    84.611829   0.97297187 
   35900     227.8499   -52.215769    128429.84   -40162.621     2834.886   -42997.507     84.69205   0.97246476 
   36000    230.06915    9.5471028    128294.76   -40131.607    2862.4977   -42994.104    84.836444   0.97348862 
   36100     227.4992    37.984776    128267.72   -40167.534    2830.5225   -42998.056    85.051582   0.97369385 
   36200    224.65406     12.22427    128232.82   -40193.987    2795.1236   -42989.111    85.263744   0.97395887 
   36300    224.13953    34.116414    128475.18     -40257.8    2788.7219   -43046.522    85.505167   0.97212151 
   36400    228.51947   -4.1256126    128631.64   -40199.704    2843.2167   -43042.921    85.705099   0.97093915 
   36500    226.16453    -57.84849    128654.94   -40170.367    2813.9167   -42984.284    86.011641   0.97076325 
   36600    223.17399    82.051313    128429.86   -40304.127    2776.7087   -43080.836    86.188855   0.97246459 
   36700    224.68105   -70.830483    128379.42   -40231.532    2795.4594   -43026.992    86.266566   0.97284666 
   36800     221.5605   -58.163141    128507.38   -40222.118    2756.6338   -42978.752    86.587604   0.97187797 
   36900    220.87549    1.7247517    128569.63   -40232.408     2748.111   -42980.519    86.691903   0.97140743 
   37000    223.69509   -2.2682613    128348.62   -40155.166    2783.1922   -42938.358     86.94552   0.97308015 
   37100     228.9814    95.545392    128830.55   -40151.069     2848.964   -43000.033    87.243657   0.96944003 
   37200    223.67977   -21.422343    128873.47   -40218.117    2783.0016   -43001.119    87.847153   0.96911715 
   37300     222.3108    -10.74943    128824.61    -40235.38    2765.9689   -43001.349    88.045599   0.96948474 
   37400    220.49546   -250.60038    128672.73    -40267.42    2743.3827   -43010.802    88.220365   0.97062908 
   37500    223.13951     -61.3188    128774.37    -40264.34    2776.2797   -43040.619     88.51833   0.96986299 
   37600    223.86069   -20.911069    128756.19   -40207.165    2785.2526   -42992.418    88.466011   0.96999988 
   37700    225.82859   -150.96158    128571.22   -40210.503     2809.737    -43020.24     88.40967   0.97139537 
   37800    218.47764   -33.910126    128467.45   -40313.695    2718.2772   -43031.972    88.744987   0.97218008 
   37900    223.88775     89.75464     128517.1   -40274.246    2785.5893   -43059.835    88.934748   0.97180445 
   38000    218.92853    40.796393    128579.92   -40245.556    2723.8872   -42969.443    89.494701   0.97132966 
   38100    225.41994     210.4838    128779.18   -40185.194    2804.6526   -42989.847    89.693583    0.9698267 
   38200    223.01944    32.254566    128509.85   -40202.352    2774.7858   -42977.138    89.517436   0.97185929 
   38300    224.08855    7.2233059    128510.94   -40145.719    2788.0876   -42933.807    89.449425   0.97185106 
   38400    224.75926   -25.043025    128376.53   -40219.528    2796.4325    -43015.96    89.476817    0.9728686 
   38500    225.05307   -80.616264    128458.78   -40242.539     2800.088   -43042.627    89.914039   0.97224566 
   38600    226.72484   -74.381027    128422.42   -40192.569    2820.8881   -43013.457    89.984302   0.97252093 
   38700    225.41667   -38.021071    128454.83   -40199.382     2804.612   -43003.994    89.823772   0.97227555 
   38800    227.23012     52.86271    128499.66   -40207.024    2827.1747   -43034.199    90.018081   0.97193632 
   38900    222.19107   -111.45591    128621.31   -40161.789    2764.4793   -42926.269    90.640177   0.97101713 
   39000    219.70176    129.65541     128516.5    -40192.93    2733.5076   -42926.438    90.802931   0.97180898 
   39100    224.30552    33.797906    128482.35   -40155.799    2790.7871   -42946.586    91.108645   0.97206732 
   39200    221.04624   -98.534032    128166.63   -40185.272    2750.2355   -42935.507    91.427072   0.97446188 
   39300    220.89846   -111.83062     128229.4   -40186.346    2748.3968   -42934.743    92.019341   0.97398487 
   39400    228.39325    -60.23175    128342.12   -40155.393    2841.6462   -42997.039    92.055996   0.97312938 
   39500    228.36605    106.51998    128148.02    -40152.35    2841.3078   -42993.658    91.918987   0.97460339 
   39600    221.41407     6.382352    128198.23    -40185.38    2754.8119   -42940.192    92.104619   0.97422165 
   39700    221.57723    75.161532    128257.08   -40128.248     2756.842    -42885.09    92.234267   0.97377461 
   39800    224.83432    139.35257    128348.05   -40176.897    2797.3664   -42974.264     92.60005   0.97308444 
   39900    220.44269   -66.651234    128256.33   -40228.515    2742.7261   -42971.241    92.717399   0.97378035 
   40000    220.89513   -85.457287    128281.54   -40250.611    2748.3554   -42998.967    92.874601   0.97358896 
   40100    226.56421    135.79099    128445.54   -40140.978    2818.8895   -42959.868    93.066135   0.97234588 
   40200    223.33972    130.64145    128678.18   -40155.369    2778.7708   -42934.139    93.249614   0.97058793 
   40300    222.10661   -11.082478    128730.23   -40119.641    2763.4285   -42883.069    93.361405   0.97019555 
   40400    226.73528   -18.365708    128489.89    -40016.62    2821.0179   -42837.638    93.047694   0.97201029 
   40500    226.08803     38.45847    128285.81   -40020.941    2812.9649   -42833.906    92.977042   0.97355655 
   40600    227.35368   -47.623433     128241.1   -40067.588    2828.7121     -42896.3    93.272059     0.973896 
   40700    222.99662    83.882713    128200.72    -40118.32    2774.5019   -42892.822    93.694901   0.97420274 
   40800    221.53176   -166.65142    128234.64   -40185.599    2756.2762   -42941.876    94.156346   0.97394506 
   40900    220.39714    7.1851183     128148.4   -40225.245    2742.1594   -42967.404    94.692388   0.97460049 
   41000      228.195   -48.565477    128195.71   -40139.729    2839.1796   -42978.909    94.815488   0.97424079 
   41100    226.57674    28.581407    128244.98   -40106.696    2819.0454   -42925.741    95.421827    0.9738665 
   41200    225.36026   -39.036512    128207.03   -40119.969    2803.9101   -42923.879    95.478944   0.97415481 
   41300    219.13306    308.01085    128273.79   -40264.191    2726.4319   -42990.623    95.923406   0.97364782 
   41400    222.49801   -2.3383731    128204.16   -40196.738    2768.2982   -42965.037    96.136114   0.97417658 
   41500    222.76146    100.85013    128306.12   -40196.356     2771.576   -42967.932    96.527222   0.97340247 
   41600    224.14623   -194.72392    128422.74   -40164.848    2788.8052   -42953.653    96.736476   0.97251847 
   41700    222.09932   -12.376967    128345.08   -40136.655    2763.3378   -42899.992    97.108448   0.97310694 
   41800    219.62796   -179.17444    128260.61   -40134.414    2732.5894   -42867.003    97.027075   0.97374784 
   41900    226.16178  -0.56628964     128354.3    -40105.15    2813.8825   -42919.032    97.429285   0.97303705 
   42000    223.72802    118.53108    128432.33   -40104.028    2783.6019   -42887.629    97.487299   0.97244591 
   42100    224.18931   -28.300565    128355.32    -40121.02    2789.3413   -42910.361    97.533467   0.97302937 
   42200     225.0414    156.34292    128454.19   -40081.187    2799.9429    -42881.13    97.764783   0.97228042 
   42300    226.03896   -74.514867    128353.33   -40054.455    2812.3544    -42866.81    97.947993   0.97304441 
   42400     223.9335   -22.269344    128399.11   -40090.571    2786.1584   -42876.729    98.328349   0.97269749 
   42500    227.99413    48.762108    128164.06   -40089.646    2836.6804   -42926.327    98.472241   0.97448142 
   42600     228.7729    68.801282    128401.58   -40098.507    2846.3698   -42944.877    99.059008   0.97267874 
   42700    225.21201    57.293675     128572.4   -40110.339    2802.0656   -42912.405    99.315662   0.97138644 
   42800     226.4771    129.58243    128445.65    -40069.71    2817.8058   -42887.516    99.396849   0.97234507 
   42900    225.53562   -39.272332    128365.56   -40161.215    2806.0919   -42967.307    99.398038   0.97295175 
   43000    224.04712    70.057054    128285.67   -40179.304    2787.5722   -42966.876     99.70089   0.97355765 
   43100    223.20572   -257.92273    128071.01   -40144.624    2777.1035   -42921.727    99.630593   0.97518939 
   43200    229.43613   -152.21523    128195.03   -40098.643    2854.6217   -42953.265    99.342109   0.97424594 
   43300    224.54733    120.73253    128175.58   -40114.277    2793.7957   -42908.072    99.349522   0.97439379 
   43400     228.6321   -36.834094    128122.65   -40062.312     2844.618    -42906.93    99.367732   0.97479631 
   43500    225.95938     50.63932    128003.31   -40076.238    2811.3642   -42887.602    99.595511   0.97570517 
   43600    232.57812    84.804062    127955.41   -39998.073    2893.7139   -42891.787    99.847729   0.97607042 
   43700     230.0483     -105.651    127924.56   -40036.426    2862.2382   -42898.665    100.09239   0.97630579 
   43800    226.46336  -0.47388332    127983.11    -40048.86    2817.6348   -42866.495    100.42043   0.97585919 
   43900     226.1983    151.31433    128041.11   -40085.409    2814.3369   -42899.746     100.5734    0.9754171 
   44000     222.9859    1.6738334    127959.58   -40111.625    2774.3685   -42885.993    100.50219   0.97603858 
   44100    223.92657   -163.18565    128152.46   -40127.808    2786.0722    -42913.88    100.57658   0.97456959 
   44200    225.27251   -102.75886    128051.74   -40165.106    2802.8184   -42967.925    100.77786   0.97533614 
   44300    224.76682   -17.762804    128154.39    -40174.35    2796.5265   -42970.877    101.27148   0.97455494 
   44400    226.46555    48.714552    128244.91   -40137.712     2817.662   -42955.374    101.57443   0.97386703 
   44500    220.31324   -173.55082    128251.79   -40164.781    2741.1156   -42905.897    101.76309   0.97381477 
   44600    218.64718   -11.287221    128345.31   -40232.253    2720.3867    -42952.64    101.92959   0.97310518 
   44700    222.30048    -109.6201    128449.29   -40208.022    2765.8405   -42973.862    102.43275    0.9723175 
   44800    226.00772    185.81408    128334.19   -40199.807    2811.9658   -43011.773    102.50009   0.97318951 
   44900    226.52676   -94.687958    128540.16   -40171.388    2818.4236   -42989.812    102.95596   0.97163009 
   45000    227.75295   -131.98878    128664.55   -40167.751    2833.6796   -43001.431    103.22363   0.97069081 
   45100    226.57081   -49.543572     128561.1    -40119.35    2818.9717   -42938.322    103.49073   0.97147184 
   45200    222.96124   -25.817153    128336.78   -40188.994    2774.0617   -42963.055    103.35196   0.97316986 
   45300    224.65896    68.907883    128404.16     -40198.2    2795.1846   -42993.384    103.69756   0.97265922 
   45400    227.77786   -97.404653    128708.88   -40170.026    2833.9896   -43004.015    103.97247   0.97035646 
   45500     225.8492   -145.02561    128635.94   -40193.789    2809.9934   -43003.782    104.25203   0.97090663 
   45600    227.00784   -36.293613    128700.01    -40209.83    2824.4091   -43034.239    104.54406   0.97042333 
   45700    226.56843    89.242855    128710.41    -40217.52     2818.942   -43036.462    104.40813    0.9703449 
   45800    227.29829    152.68498    128564.89   -40163.266    2828.0229   -42991.289    104.33625   0.97144326 
   45900    230.43969   -67.534218    128380.29   -40105.304    2867.1079   -42972.412    104.16367   0.97284008 
   46000    230.02767    78.803827    128426.35   -40086.576    2861.9816   -42948.558     104.5377   0.97249114 
   46100     231.4357    88.421882    128373.46   -40039.942    2879.5001   -42919.442    104.79865   0.97289182 
   46200    232.99922    33.659479    128274.53   -40027.684    2898.9532   -42926.637    105.01918   0.97364214 
   46300    229.20185   -110.02749    128505.56   -40054.057    2851.7068   -42905.764    105.49317   0.97189175 
   46400    228.23672    6.7360221    128498.41   -40086.626    2839.6987   -42926.325    106.12101   0.97194579 
   46500    228.50861     113.5723    128494.09   -40076.759    2843.0816    -42919.84    106.01623   0.97197846 
   46600    228.53978   -99.391186     128663.9   -40063.715    2843.4694   -42907.185    106.30867   0.97069568 
   46700    221.25372   -102.60601    128539.21   -40151.099     2752.817   -42903.916    106.41648   0.97163727 
   46800    223.67409    -79.19695    128336.23   -40199.364     2782.931   -42982.295    106.67287   0.97317404 
   46900     226.5106   -242.75752    128356.94   -40133.745    2818.2225   -42951.968    107.05459   0.97301705 
   47000    225.66335    133.51938    128178.68   -40124.591    2807.6811   -42932.272    107.12868   0.97437023 
   47100    227.97849   -133.70361    128271.15   -40079.956    2836.4858   -42916.442    107.77618    0.9736678 
   47200    226.43619    85.424295    128323.32   -40129.821    2817.2966   -42947.118     108.2744   0.97327198 
   47300    229.10841  -0.28714532    128421.96   -40170.501    2850.5442   -43021.045     108.4809   0.97252439 
   47400    227.65402   -129.24336    128353.87     -40137.7    2832.4488   -42970.149    108.46033   0.97304033 
   47500    226.61751     25.85679    128515.32   -40097.131    2819.5527   -42916.683     108.6338   0.97181791 
   47600     235.4067    18.747376    128753.47   -40070.721    2928.9069   -42999.628    109.03463   0.97002039 
   47700    227.43398   -215.58872    128789.67   -40134.203    2829.7111   -42963.914     109.1388   0.96974775 
   47800    225.14197   -54.232305     128788.6   -40143.174    2801.1942   -42944.368     109.2827   0.96975581 
   47900    224.02491    29.234563    128715.76   -40228.528    2787.2958   -43015.824    109.41246   0.97030459 
   48000    225.02121    88.217336    128728.87   -40233.899    2799.6916   -43033.591    109.70225   0.97020579 
   48100    226.96876    -3.281158    128657.32    -40190.85    2823.9229   -43014.773     109.9116   0.97074536 
   48200    222.86137    11.078147    128899.12   -40223.393    2772.8191   -42996.212    110.04084   0.96892434 
   48300    223.90946   -43.220745     128700.4   -40218.916    2785.8594   -43004.775    110.16216   0.97042037 
   48400    232.88518   -216.86358    128745.26   -40144.134    2897.5344   -43041.668    110.59986   0.97008225 
   48500    225.01788    187.45423    128786.82   -40237.386    2799.6503   -43037.036     111.0328   0.96976921 
   48600    226.97221    59.210515    128765.01   -40260.905    2823.9658   -43084.871    111.09324   0.96993345 
   48700    227.00038   -29.699338    128713.39   -40233.295    2824.3163   -43057.611    111.11596   0.97032248 
   48800     222.8288    50.234646    128402.96   -40249.472    2772.4139   -43021.886    111.17929   0.97266835 
   48900    222.30094    95.767658    128373.52   -40221.207    2765.8463   -42987.053    111.32684   0.97289139 
   49000    224.62539    148.50199     128452.1    -40258.77    2794.7669   -43053.537    111.42934   0.97229622 
   49100    223.75981     64.18615    128606.95   -40261.817    2783.9975   -43045.815    112.00633    0.9711255 
   49200    227.83557   -67.639461    128687.15   -40289.817    2834.7076   -43124.524    112.21283   0.97052033 
   49300    222.25801   -79.837236    128887.89   -40244.495    2765.3122   -43009.807    112.48922   0.96900873 
   49400    230.17036   -3.4873925    128780.22   -40223.927    2863.7569   -43087.684    112.24547   0.96981889 
   49500    229.81737    114.27196    128751.24   -40250.396     2859.365   -43109.762    112.38264   0.97003716 
   49600    226.49313   -170.28803     128640.1   -40257.658    2818.0051   -43075.663    112.63726   0.97087525 
   49700    224.03094   -33.624449    128719.64   -40266.639    2787.3708    -43054.01    112.82822   0.97027533 
   49800    227.74902    25.642403    128575.25   -40309.179    2833.6307   -43142.809    113.00459   0.97136496 
   49900    230.03247   -70.181577    128541.18   -40198.869    2862.0412   -43060.911     113.4146    0.9716224 
   50000    227.75503   -129.44228    128547.16   -40237.885    2833.7056   -43071.591    113.86671   0.97157725 
   50100    226.71498   -59.665522    128623.43   -40255.001    2820.7654   -43075.766    113.72707   0.97100109 
   50200    222.96733    97.590161     128709.4   -40304.778    2774.1374   -43078.915    113.93761   0.97035251 
   50300    226.64376    123.49831    128995.32   -40277.374    2819.8793   -43097.253    114.20397   0.96820176 
   50400    224.43066   -14.024327    129006.36   -40296.449     2792.344   -43088.793    114.66272    0.9681189 
   50500    221.69618    49.214339    128976.38    -40354.43    2758.3219   -43112.752    115.12486   0.96834388 
   50600    222.24237   -124.12465    129079.93   -40381.051    2765.1176   -43146.168    115.52019   0.96756708 
   50700    225.40619      111.554    129107.14   -40386.786    2804.4815   -43191.268    115.42777   0.96736316 
   50800    226.18987   -34.127706    129123.35    -40392.56     2814.232   -43206.792    115.79938   0.96724172 
   50900    225.98282   -252.72367    129064.18   -40286.819    2811.6559   -43098.475    115.65592   0.96768519 
   51000    226.06859    67.500363    128792.26   -40312.732     2812.723   -43125.455    115.55553   0.96972823 
   51100    219.34487    20.723781       128899   -40326.452    2729.0672   -43055.519    115.90046   0.96892521 
   51200    225.22673   -143.15335    128881.41   -40299.505    2802.2487   -43101.753    116.09346   0.96905749 
   51300    222.37197   -3.1805217    128779.57   -40379.906      2766.73   -43146.636    115.88727   0.96982383 
   51400    222.58089    58.653744    128707.66   -40382.361    2769.3294    -43151.69    115.98696   0.97036561 
   51500    219.52841    190.80741    128862.37    -40391.28    2731.3508   -43122.631    116.01236   0.96920062 
   51600    223.84451   -2.7039996    128819.73   -40343.503    2785.0513   -43128.555    116.09051   0.96952147 
   51700    227.56864   -28.262621    128875.36   -40329.607    2831.3865   -43160.994    116.14763   0.96910292 
   51800    223.99262   -105.78359    128708.68   -40375.023     2786.894   -43161.917     116.3709   0.97035792 
   51900    224.46476   -34.736136    128789.28   -40427.771    2792.7684    -43220.54    116.80369   0.96975068 
   52000    221.85515    32.308683    128835.16   -40446.056    2760.2998   -43206.356    116.72307   0.96940533 
   52100    221.40748   -87.891238    128868.99   -40381.106      2754.73   -43135.836    116.85693   0.96915084 
   52200    221.29827  -0.36051984    129047.45   -40412.613    2753.3712   -43165.984     117.2096   0.96781061 
   52300    218.41201   -64.208793     128959.7   -40377.804    2717.4606   -43095.264     117.4303   0.96846913 
   52400    224.57111    108.13538    128976.14   -40316.355    2794.0916   -43110.446    117.69745   0.96834571 
   52500    226.21811   -39.218276    128895.05   -40314.736    2814.5834   -43129.319    117.70826   0.96895491 
   52600    224.41706    16.407066     128836.6   -40359.596    2792.1748    -43151.77    117.73361   0.96939451 
   52700    224.02858    131.22597     128810.2    -40362.82    2787.3415   -43150.162    117.61172   0.96959315 
   52800    225.56908   -27.911842    128871.51    -40317.62    2806.5083   -43124.129    117.71451   0.96913191 
   52900    228.42006   -3.4862015    128815.55    -40325.46    2841.9798   -43167.439    118.10952   0.96955293 
   53000    224.26753   -100.26794    128804.33   -40309.168    2790.3145   -43099.482    118.35012   0.96963739 
   53100    220.09159    44.393869     128667.6   -40350.131    2738.3579   -43088.489    118.81328   0.97066778 
   53200    226.13334    16.339951    128693.97   -40319.633    2813.5286   -43133.161    119.00516   0.97046887 
   53300    222.60912   -9.1988031    128728.59   -40299.682    2769.6806   -43069.362    118.72826   0.97020789 
   53400    220.54782   -130.73149    128677.55   -40361.142    2744.0342   -43105.176     118.8216   0.97059272 
   53500    221.39761   -10.366102    128587.98   -40361.196    2754.6072   -43115.804    119.20444   0.97126875 
   53600    222.69237   -37.359997    128546.38   -40354.215    2770.7164   -43124.931    119.34828   0.97158313 
   53700    218.19216   -38.002564    128536.05   -40382.128    2714.7253   -43096.853    119.50142   0.97166118 
   53800    224.97542    54.522924    128465.09    -40261.23    2799.1219   -43060.352    119.71451   0.97219791 
   53900    223.41902    163.28767    128627.67     -40312.1    2779.7574   -43091.857    120.12071   0.97096907 
   54000    224.47455    18.134949    128787.71   -40282.768    2792.8901   -43075.658    120.38466   0.96976249 
   54100    222.64842   -103.61887    128840.27   -40298.603    2770.1696   -43068.773    120.65867   0.96936687 
   54200    224.77142   -100.87849    128868.18   -40265.609    2796.5838   -43062.193    121.02567   0.96915692 
   54300     222.4237    -111.2031    128893.23   -40239.359    2767.3737   -43006.733     121.2936   0.96896858 
   54400    223.52914    -60.53598    128840.76   -40268.865    2781.1274   -43049.992    121.43547   0.96936323 
   54500    226.09985   -174.17069    128832.66    -40255.67    2813.1119   -43068.782     121.4028   0.96942416 
   54600    227.04474   -206.49806    128862.95   -40161.414    2824.8682   -42986.282    120.96731   0.96919624 
   54700      227.492    60.149251    129081.61   -40180.405     2830.433   -43010.838    121.43028   0.96755452 
   54800    228.76018    -6.828633    129051.18   -40265.034    2846.2115   -43111.246    121.56872   0.96778266 
   54900    224.10388   -58.034013    129005.79   -40290.406    2788.2783   -43078.684    121.65283   0.96812315 
   55000    218.59571    -163.7705    129096.56    -40358.21    2719.7463   -43077.957    121.77408   0.96744242 
   55100    225.27696   -59.553135    128976.36   -40321.923    2802.8736   -43124.797    122.24918   0.96834404 
   55200    220.44538    146.28443    129068.18   -40323.534    2742.7596   -43066.294    122.74324    0.9676552 
   55300     223.2937    201.41263    129276.14   -40292.182    2778.1982    -43070.38    123.44903   0.96609859 
   55400    226.13643    39.604275    129559.53   -40279.334    2813.5671   -43092.901    123.66683   0.96398537 
   55500    230.84816   -109.58733    129509.64    -40226.22      2872.19    -43098.41    123.58368   0.96435672 
   55600    224.14909    -87.98205    129284.03   -40274.874    2788.8408   -43063.715    123.75237   0.96603959 
   55700    227.13686    10.808717    129074.75   -40290.846    2826.0144    -43116.86    123.83113   0.96760589 
   55800    228.67267    11.459131    129112.08   -40304.003    2845.1227   -43149.126    124.18991   0.96732618 
   55900    224.30407   -58.289762    128986.67   -40275.158    2790.7691   -43065.927    124.35996   0.96826664 
   56000    227.46139    113.98851    128901.66   -40274.805    2830.0521   -43104.857    124.36785   0.96890525 
   56100    223.71885   -48.978208    128803.17   -40231.442    2783.4878    -43014.93    124.26007   0.96964609 
   56200    231.08017   -22.861538    128882.07   -40231.262    2875.0766   -43106.339    124.22953   0.96905246 
   56300    225.47366    -43.29192    129027.97   -40262.112    2805.3209   -43067.433    124.09378   0.96795673 
   56400    222.60136   -146.86114    128845.98   -40241.784    2769.5841   -43011.368    124.69551   0.96932389 
   56500    224.13942   -57.068731    128736.76   -40311.334    2788.7205   -43100.055    124.86085    0.9701463 
   56600    221.72093    9.0287558     128710.2    -40305.94    2758.6299    -43064.57    124.86793   0.97034648 
   56700    219.63077   -17.737891    128525.51    -40333.85    2732.6243   -43066.474    124.87732    0.9717409 
   56800    224.51664    94.294806     128704.5   -40259.805    2793.4139   -43053.219    125.11922    0.9703895 
   56900    222.80747   -199.03251    128722.63   -40238.771    2772.1486    -43010.92    125.31604   0.97025282 
   57000    221.64607   -93.309601    128519.59    -40176.52    2757.6985   -42934.218    125.77396   0.97178565 
   57100    225.27796   -95.016959    128307.31   -40247.317    2802.8861   -43050.203    125.69018   0.97339346 
   57200    223.85558    154.47783    128496.66   -40288.679     2785.189   -43073.868    126.03066   0.97195904 
   57300     220.2694    1.0804481    128149.78   -40320.774    2740.5701   -43061.344    125.88198      0.97459 
   57400    220.25078    153.98637    128248.45   -40317.978    2740.3384   -43058.316    126.27249   0.97384013 
   57500    215.63727   -4.0366536    128249.86   -40356.949    2682.9376   -43039.887    126.33827   0.97382947 
   57600    219.57349    20.837315    128283.01   -40293.684    2731.9117   -43025.595    126.71762   0.97357783 
   57700    220.99701    102.95918    128305.19   -40324.906    2749.6229   -43074.529     126.8422   0.97340951 
   57800     224.4019    19.233925    128356.73   -40350.798    2791.9863   -43142.784    127.04422   0.97301864 
   57900    222.37164   -90.674907     128632.7   -40332.652    2766.7259   -43099.378     127.1965   0.97093111 
   58000    220.65491   -122.23984    128270.96   -40337.903    2745.3665   -43083.269    126.94725   0.97366927 
   58100     223.8496    112.31491    128181.23    -40260.29    2785.1146   -43045.405    127.02432   0.97435085 
   58200    224.85818   -86.549321    128274.33    -40213.28    2797.6633   -43010.943    127.75169    0.9736437 
   58300    228.17971   -117.84124    128186.02   -40148.586    2838.9894   -42987.576    127.93444   0.97431444 
   58400    227.67779   -25.919172    128388.36   -40146.867    2832.7446   -42979.612    128.46021   0.97277894 
   58500    228.06623    69.199444    128388.14   -40134.586    2837.5775   -42972.163    128.56821   0.97278061 
   58600     227.4131    138.55123    128407.68   -40111.039    2829.4513   -42940.491    128.82752   0.97263255 
   58700    229.31435   -126.43844    128337.56   -40126.851    2853.1065   -42979.958    129.21424     0.973164 
   58800     223.0907   -164.00936    128107.53   -40168.134    2775.6724   -42943.806    129.49294   0.97491142 
   58900     221.7741    2.3177079    128264.43   -40197.771    2759.2915   -42957.063    129.36015   0.97371886 
   59000    223.68543   -125.12904    128250.56   -40164.426    2783.0719   -42947.498    129.24008   0.97382415 
   59100    226.90918   -106.16321    128418.31   -40177.248    2823.1815    -43000.43    129.61856   0.97255208 
   59200    223.66803   -30.930937    128421.85   -40180.291    2782.8555   -42963.146    130.18654   0.97252522 
   59300    227.09767    219.31099     128403.2   -40178.195    2825.5267   -43003.722     130.4097   0.97266653 
   59400    221.00628     29.40291    128304.39   -40236.679    2749.7383   -42986.417    130.43388   0.97341556 
   59500    223.95785   -242.42458    128285.42   -40201.073    2786.4614   -42987.534    130.63331   0.97355955 
   59600    222.19626     24.91005    128230.52   -40191.319    2764.5439   -42955.863    131.01244    0.9739763 
   59700    225.13803    84.747928    128382.85   -40226.623    2801.1452   -43027.768    131.48528   0.97282069 
   59800    223.32808   -80.251795    128320.14   -40228.242    2778.6259   -43006.868    131.69608   0.97329607 
   59900    224.31354    85.810608    128121.77   -40194.782    2790.8869   -42985.669    131.55248   0.97480303 
   60000    221.08801   -53.902238    127928.37   -40247.677    2750.7551   -42998.432    131.76691   0.97627673 
   60100    225.09893      181.817    128025.05   -40205.395    2800.6587   -43006.054    132.00631   0.97553946 
   60200    229.55026   -8.4523291    128101.05   -40187.086    2856.0417   -43043.127    132.35567   0.97496068 
   60300    228.51228   -55.953851    128149.91   -40131.542    2843.1273   -42974.669    132.41365   0.97458896 
   60400    228.25587    132.33627    128406.89   -40071.206     2839.937   -42911.143    133.03291   0.97263855 
   60500    227.60579   0.29872612    128431.93   -40095.504    2831.8487   -42927.353    132.81282   0.97244892 
   60600    226.80756   -29.371098    128278.86   -40149.957    2821.9173   -42971.874     132.6844   0.97360933 
   60700    224.42429    48.939818    128309.59   -40157.355    2792.2648    -42949.62    133.21613    0.9733761 
   60800    225.28541   -38.343382    128228.59   -40103.413    2802.9788   -42906.391    133.16033   0.97399102 
   60900    223.73994    60.067867    128073.43   -40095.333    2783.7503   -42879.083    133.32701   0.97517097 
   61000    225.79548    33.637868    128067.29   -40138.216     2809.325   -42947.541     133.3784   0.97521773 
   61100    222.72012   -252.50559    128097.13   -40183.547    2771.0618   -42954.609    133.86782   0.97499054 
   61200    222.68427   -56.148414    128035.11   -40180.374    2770.6157    -42950.99    134.24798   0.97546285 
   61300    223.42952   -11.939902    128079.76   -40183.637     2779.888   -42963.525     134.9164   0.97512275 
   61400    224.86977    64.630154    128250.47   -40207.948    2797.8074   -43005.755     134.8602   0.97382483 
   61500    227.95689    49.692143     128177.2   -40214.196    2836.2171   -43050.413    135.03607   0.97438148 
   61600    223.99707    92.312099    128319.43   -40165.255    2786.9494   -42952.204    135.52227    0.9733015 
   61700    220.81292    174.06812    128324.12   -40233.863    2747.3325   -42981.195    135.77691   0.97326593 
   61800    221.90044    19.234935    128687.75   -40287.884    2760.8633   -43048.747    136.53933   0.97051577 
   61900    221.91087    -143.7994    128686.86   -40232.712    2760.9931   -42993.705    136.56082    0.9705225 
   62000    220.21719    10.215829    128613.23   -40180.647    2739.9205   -42920.568    136.70231   0.97107811 
   62100    223.25831    65.111522    128576.04   -40190.971    2777.7578   -42968.729    137.01106     0.971359 
   62200    227.93854    15.953373    128468.93   -40128.442    2835.9888    -42964.43    137.05937   0.97216887 
   62300    220.95486   -131.21506    128468.46   -40166.565    2749.0985   -42915.664    137.25587    0.9721724 
   62400    228.65863   -128.80552    128440.39   -40106.432    2844.9481    -42951.38    137.94498   0.97238483 
   62500    226.41208   -128.78807    128322.35   -40116.587    2816.9967   -42933.584    138.30384   0.97327934 
   62600    225.29056    30.125266     128191.8   -40132.028    2803.0429   -42935.071    138.26689   0.97427054 
   62700    224.51369    75.737986    128323.63   -40172.437    2793.3771   -42965.814    138.23566   0.97326961 
   62800    222.32337    115.77092    128206.74   -40164.186    2766.1254   -42930.311    138.67324   0.97415699 
   62900    225.77454    29.178218    128413.47    -40108.23    2809.0645   -42917.294    139.06133   0.97258871 
   63000    228.99507    -60.37139    128499.32       -40074    2849.1341   -42923.134    139.45019   0.97193892 
   63100     223.7194    86.605888    128306.77   -40063.692    2783.4946   -42847.186    139.16156   0.97339753 
   63200    228.53165   -39.849342    128406.15   -40087.067    2843.3683   -42930.436    139.37984   0.97264416 
   63300    227.20546    61.823229    128323.23   -40125.053    2826.8679   -42951.921    139.47177   0.97327268 
   63400    230.51005    92.296146    128398.98   -40047.059    2867.9833   -42915.043    139.78754   0.97269844 
   63500    221.55493   -65.905425    128305.01   -40130.084    2756.5645   -42886.648    139.51001   0.97341085 
   63600    224.89753   -23.201533     128202.6   -40122.713    2798.1529   -42920.866    140.13056   0.97418844 
   63700    226.37189   -112.14392    128339.33   -40131.966    2816.4967   -42948.463    140.49456   0.97315059 
   63800    222.53567    127.49219    128288.34   -40235.672    2768.7669   -43004.439     140.5101   0.97353736 
   63900    222.17904   -163.78912    128295.83   -40223.218    2764.3297   -42987.548    140.49566    0.9734805 
   64000    220.59715   -27.508267    128285.98   -40196.672     2744.648    -42941.32    140.88409   0.97355529 
   64100    228.60465    13.032888    128394.25   -40104.418    2844.2764   -42948.695    141.47335   0.97273428 
   64200    224.35298    75.333105    128569.85   -40087.274    2791.3775   -42878.651    141.99075   0.97140578 
   64300    231.92659    55.008001    128587.23   -40004.681    2885.6077   -42890.289    141.78728   0.97127449 
   64400    229.07569   -143.45939    128404.48    -40046.64    2850.1371   -42896.777     142.1032   0.97265682 
   64500    226.65119     32.50263    128347.54   -40025.449    2819.9717   -42845.421    142.29671   0.97308829 
   64600    224.03013    114.49083     128447.8    -40088.28    2787.3608   -42875.641    142.68797   0.97232875 
   64700    226.04807    214.61271    128454.95     -40116.1    2812.4677   -42928.567    143.02789   0.97227461 
   64800    228.82672      128.085     128462.1   -40150.256    2847.0394   -42997.295    143.00823   0.97222055 
   64900    224.57732    46.214028    128584.96   -40139.392    2794.1689   -42933.561    143.10216   0.97129158 
   65000    224.54227    170.59662    128531.82    -40111.87    2793.7327   -42905.603    142.98461   0.97169319 
   65100    226.44512    65.435639    128604.66   -40129.836    2817.4078   -42947.244    143.31444   0.97114282 
   65200    226.24036   -18.430389    128346.05   -40126.496    2814.8603   -42941.357    143.61679    0.9730996 
   65300    228.08138   -26.342351    128309.76   -40133.955     2837.766   -42971.721     144.0957   0.97337481 
   65400    227.87094    85.747321    128300.06   -40060.746    2835.1478   -42895.894     144.4256   0.97344839 
   65500    222.98927    42.773114    128252.08   -40118.755    2774.4105   -42893.165    144.50297   0.97381257 
   65600    224.06984   -164.69345    128201.79   -40145.756    2787.8547   -42933.611    144.81872    0.9741946 
   65700    222.63958    35.657501    128179.29   -40175.445    2770.0596   -42945.504    145.12454   0.97436558 
   65800    222.65915   -150.29715    128049.44   -40173.615    2770.3032   -42943.918    145.09358   0.97535364 
   65900    227.04865    38.595577     128075.9   -40140.118    2824.9169   -42965.035    145.17097   0.97515213 
   66000    228.31729   -137.03643    128054.69   -40034.772    2840.7011   -42875.473    145.39094   0.97531366 
   66100     225.4982    80.364413    127919.02   -39983.763    2805.6263    -42789.39    145.46783   0.97634808 
   66200    227.13419    129.53107    127798.97   -39944.207    2825.9811   -42770.188    145.82629   0.97726521 
   66300    224.74742     76.60103    128025.44   -39971.297    2796.2852   -42767.583    146.15044   0.97553651 
   66400    226.57306   -166.94884    128063.23   -40004.909    2818.9996   -42823.909     146.5392   0.97524867 
   66500    223.14284   -57.072089    127999.41   -40022.305    2776.3212   -42798.626    147.30003   0.97573486 
   66600    222.15458    52.969489    127888.16    -40041.76    2764.0253   -42805.786    147.12792   0.97658372 
   66700    221.82687   -102.90277    127991.18   -40072.676     2759.948   -42832.624    147.49019   0.97579763 
   66800    226.35949    191.76802    128334.41   -40014.946    2816.3424   -42831.289    148.09146   0.97318784 
[...]
   84600    223.50252   -72.800718    128165.29   -40218.902    2780.7963   -42999.698    188.10609   0.97447207 
   84700    219.99779    47.236117    128016.86    -40233.24    2737.1908   -42970.431    188.10436   0.97560193 
   84800    223.71081    160.08156    128031.71   -40205.568    2783.3878   -42988.955    188.27293   0.97548872 
   84900     222.3948   -56.695072    127970.03   -40194.739    2767.0141   -42961.753    188.52923   0.97595892 
   85000    225.73569    106.38539     127897.5   -40150.488    2808.5811   -42959.069    189.08667   0.97651237 
   85100    224.67274    135.96043    127938.87   -40147.754    2795.3561    -42943.11    188.97104   0.97619664 
   85200    225.87348   -243.49683     127901.7   -40155.889    2810.2955   -42966.184    189.56429   0.97648032 
   85300    224.78041    221.36943    127934.09   -40192.112    2796.6956   -42988.808    190.22783    0.9762331 
   85400    222.75783   -42.730251    127916.66   -40195.227    2771.5309   -42966.758    190.52748   0.97636609 
   85500    220.70019    91.490461    127828.27   -40151.481    2745.9299   -42897.411    190.24001   0.97704121 
   85600    226.36091    1.1703697    127854.12   -40126.943    2816.3601   -42943.303    190.46267    0.9768437 
   85700    223.49855  -0.24070156    127749.01   -40167.941    2780.7468   -42948.688    190.47399   0.97764742 
   85800     222.4713    60.786783    127584.11    -40161.83     2767.966   -42929.796    190.31532   0.97891099 
   85900    229.78076    5.8667513     127726.9   -40075.561    2858.9095   -42934.471    190.40416   0.97781667 
   86000    226.04421   -92.324279    127594.81   -40132.726    2812.4198   -42945.146     190.3553   0.97882896 
   86100    230.80898   -16.986557    127715.24   -40139.278    2871.7025   -43010.981    191.07017   0.97790596 
   86200     228.9943    -133.0901    127723.28   -40103.848    2849.1244   -42952.973    190.95388   0.97784437 
   86300    227.23401    197.87033    127836.94   -40151.311    2827.2231   -42978.534    191.54919   0.97697497 
   86400    227.39678   -148.04535    128107.21   -40174.791    2829.2482   -43004.039    192.12901   0.97491384 
   86500    225.52303    70.153722    128043.55   -40164.192    2805.9352   -42970.127    192.53514   0.97539853 
   86600    226.10917      50.8352    128289.75   -40103.205     2813.228   -42916.433    192.50006   0.97352663 
   86700    231.11828    142.94364    128327.11    -40087.61    2875.5508   -42963.161    192.18741   0.97324321 
   86800    226.74907    65.291501    128286.31   -40179.765    2821.1896   -43000.955    192.30308   0.97355279 
   86900    228.80107   -144.19586    128092.31   -40145.368    2846.7203   -42992.089    191.96923    0.9750272 
   87000     225.3497     36.97186    127953.31   -40133.627    2803.7787   -42937.405    192.16561   0.97608646 
   87100    224.49365   -47.023253    127931.35   -40169.442    2793.1278    -42962.57    192.46271   0.97625396 
   87200     227.7059    286.54531    128035.18   -40166.653    2833.0943   -42999.747    192.73207   0.97546233 
   87300    229.74762    30.935162    128143.15   -40184.548    2858.4972   -43043.045    193.13352   0.97464037 
   87400    226.12663     106.5711    128208.42    -40220.24    2813.4452   -43033.686    193.07474   0.97414421 
   87500    225.42549   -156.44971    128229.12   -40254.109    2804.7217   -43058.831    193.24609   0.97398698 
   87600    223.63764    105.66299       128265   -40258.762    2782.4774    -43041.24    193.19113   0.97371454 
   87700    224.32873   -58.400499    128278.19   -40259.249    2791.0759   -43050.325    193.57642   0.97361436 
   87800    226.47878    138.20199    128233.81   -40237.202    2817.8266   -43055.029    193.57329   0.97395135 
   87900    223.40361   -34.490709    128211.53   -40244.775    2779.5656   -43024.341    193.62828    0.9741206 
   88000    222.31286    50.824374    128221.55   -40263.524    2765.9947   -43029.519    194.14054    0.9740445 
   88100    222.18584   -91.396735    128426.74    -40182.99    2764.4142   -42947.404    194.80031   0.97248822 
   88200    228.29594   -11.184021    128514.94   -40160.171    2840.4356   -43000.606    195.39231   0.97182083 
   88300    225.89074    120.93157     128693.8   -40176.866    2810.5103   -42987.376    195.82124   0.97047012 
   88400    223.28939    74.652238    129001.65   -40281.023    2778.1445   -43059.167    196.47723   0.96815422 
   88500     227.5414     73.61373     128676.5   -40192.768    2831.0477   -43023.816    196.85397   0.97060063 
   88600    227.23513    240.35133    128835.69   -40148.728     2827.237   -42975.965    197.22269   0.96940135 
   88700    224.74558    174.83007    128824.01   -40107.626    2796.2623   -42903.889    197.06794   0.96948927 
   88800    233.29561   -57.587309    128856.07   -40046.198    2902.6409   -42948.839    197.17255   0.96924805 
   88900    226.84404   -61.488406    128740.06   -40084.088    2822.3711   -42906.459     196.8569   0.97012141 
   89000    226.41172    75.494037    128807.44   -40066.042    2816.9923   -42883.035    196.86001   0.96961394 
   89100    224.11405   -115.68655    128720.28    -40155.21    2788.4048   -42943.615    197.12186    0.9702705 
   89200     222.5779   -153.41043    128564.62   -40171.265    2769.2923   -42940.557    196.87361   0.97144524 
   89300     219.9817   -110.58113    128293.69   -40185.305    2736.9905   -42922.296    196.71145   0.97349679 
   89400    219.49377   -77.831458     128175.5   -40211.688    2730.9197   -42942.608    196.78287   0.97439439 
   89500    220.42106    38.999154    128047.44   -40245.519     2742.457   -42987.976    196.72839    0.9753689 
   89600    223.30944    31.834135    128192.84   -40307.057    2778.3939   -43085.451    197.48673   0.97426264 
   89700    218.35492   -154.75376    128165.14   -40278.576    2716.7504   -42995.327    197.22318   0.97447316 
   89800    223.51782    115.70046     128149.3   -40237.828    2780.9866   -43018.815    197.27266   0.97459363 
   89900      223.744   -50.905566    128147.07    -40298.12    2783.8007   -43081.921     197.8387   0.97461062 
   90000    224.26024    138.08695     128343.9   -40214.871    2790.2238   -43005.095    198.08542   0.97311593 
   90100    222.90496   -59.580222    128235.12   -40227.816    2773.3615   -43001.178    197.96526   0.97394141 
   90200    223.37309   -150.05839    128309.29   -40254.901    2779.1859   -43034.087    197.91584   0.97337842 
   90300    221.71611   -66.450515    128114.58   -40248.694      2758.57   -43007.264    198.17838   0.97485774 
   90400    220.02155   -180.10137    128369.05   -40225.462    2737.4863   -42962.949    198.57347   0.97292529 
   90500    223.09673    86.855991    128184.32   -40184.816    2775.7474   -42960.564    198.53281   0.97432737 
   90600     228.5003   -33.355413    128154.18   -40087.967    2842.9782   -42930.946    198.96703   0.97455655 
   90700    226.64709    18.897727    127962.09   -40095.069    2819.9207    -42914.99    199.21667   0.97601946 
   90800    224.07888    166.10993    127919.87   -40128.392    2787.9673    -42916.36    198.81155    0.9763416 
   90900    220.16942     -6.55298    127926.41   -40211.324    2739.3262    -42950.65    199.19248    0.9762917 
   91000    218.08507    228.97052    128153.83   -40234.521    2713.3929   -42947.914    199.69882   0.97455919 
   91100    220.64887    213.77447    128137.57   -40220.538    2745.2915   -42965.829    199.89158   0.97468282 
   91200     222.2756   -112.27165    128304.58   -40165.057     2765.531   -42930.588    200.40377   0.97341413 
   91300    227.67914    51.267243    128333.28    -40092.28    2832.7614   -42925.041    201.19194   0.97319647 
   91400    233.30424    151.34253    128592.99   -40085.349    2902.7483   -42988.097    201.97194   0.97123095 
   91500    227.71994     199.2974    128766.44   -40090.246     2833.269   -42923.515    202.36457   0.96992272 
   91600    226.57178   -126.67323    128907.36   -40145.625    2818.9837   -42964.609    202.82949   0.96886241 
   91700    221.86436   -35.682963    128953.86    -40228.49    2760.4144   -42988.905    203.45289   0.96851302 
   91800    226.91975     13.86638    128954.34   -40211.696    2823.3131   -43035.009    203.36521   0.96850943 
   91900     227.0466    96.467427    129058.12   -40228.928    2824.8914    -43053.82    203.45594   0.96773062 
   92000    225.54194   -47.786541    129234.99    -40254.32    2806.1705    -43060.49    203.81179   0.96640617 
   92100    218.78549    126.43341    129397.15   -40313.512    2722.1075    -43035.62     203.9949    0.9651951 
   92200      227.719   -199.33047    129336.08   -40267.812    2833.2573    -43101.07    204.03733   0.96565083 
   92300    229.59155   -76.157659    129256.44   -40202.099    2856.5554   -43058.655    204.31669   0.96624583 
   92400    230.03648    131.95785     129264.7   -40213.413    2862.0911   -43075.504    204.47736   0.96618406 
   92500    224.47034   -117.16347    129200.86   -40271.711    2792.8378   -43064.549    204.45498   0.96666148 
   92600     222.7678   -128.39637    129165.34   -40245.717    2771.6549   -43017.372    204.94601   0.96692731 
   92700    226.28794    117.26933    129258.76   -40223.834    2815.4521   -43039.286    205.04786   0.96622843 
   92800    222.90498    11.753727    129125.79   -40274.083    2773.3617   -43047.445    205.01842   0.96722345 
   92900    227.82062   -123.24682    128939.96   -40244.465    2834.5216   -43078.987    204.90293    0.9686174 
   93000    225.67426    21.535342     129024.2   -40264.845    2807.8168   -43072.662    205.23583   0.96798501 
   93100    225.95259    18.706315     129116.2    -40188.67    2811.2798    -42999.95    205.85737   0.96729526 
   93200    227.34746    73.006628    129071.84   -40199.987    2828.6346   -43028.621    205.68852    0.9676277 
   93300    222.87023   -8.6805477    128932.38   -40236.268    2772.9294   -43009.197    205.92984   0.96867433 
   93400    225.12932   -206.78431    128852.39   -40264.171    2801.0367   -43065.207    205.89833   0.96927572 
   93500    221.77623   -163.30042    128916.55   -40314.473    2759.3179   -43073.791    206.11045   0.96879332 
   93600    222.82582   -91.718025    128887.65   -40398.908    2772.3768   -43171.285    205.98302   0.96901053 
   93700     220.9918    4.1521321    128857.29   -40349.571    2749.5582   -43099.129    206.18641   0.96923888 
   93800    221.35783    -87.56338     128973.9   -40324.949    2754.1123   -43079.062    206.59502   0.96836252 
   93900    221.58578    94.652709    128807.61   -40305.648    2756.9483   -43062.596    206.63631   0.96961268 
   94000    225.47422   -2.8402464    128841.54   -40297.938    2805.3279   -43103.265    206.86878   0.96935732 
   94100    228.43846    60.758755    128877.54   -40296.287    2842.2087   -43138.496    207.05628   0.96908652 
   94200    225.04211    80.540546    128715.52   -40280.242    2799.9516   -43080.193     206.9181   0.97030642 
   94300    226.50818    210.74388    128886.34   -40218.828    2818.1924    -43037.02    207.48527   0.96902041 
   94400     225.5706    31.735183    128807.27   -40214.576    2806.5271   -43021.103    207.26053   0.96961522 
   94500    225.55529   -62.276625    128790.66   -40144.693    2806.3366   -42951.029    207.32559   0.96974029 
   94600    228.06544    87.027042    128945.68   -40182.286    2837.5677   -43019.854    207.79287   0.96857447 
   94700    225.37372   -16.161939    128858.66   -40204.845    2804.0776   -43008.922    207.99142   0.96922852 
   94800     223.0833    -160.7206    128686.04   -40186.613    2775.5804   -42962.193    207.79434   0.97052865 
   94900    222.77988    89.053763    128509.93   -40150.601    2771.8052   -42922.406    207.68392    0.9718587 
   95000    227.34664    43.523438    128596.19   -40146.246    2828.6245   -42974.871    207.88558   0.97120675 
   95100    228.03672    73.693399    128541.14   -40145.802    2837.2103   -42983.012     208.2745    0.9716227 
   95200    225.92199   -6.5095232    128329.03   -40168.105     2810.899   -42979.004    208.23361   0.97322868 
   95300    229.10682    99.990061    128413.43   -40058.256    2850.5244    -42908.78    208.82089   0.97258898 
   95400    228.68261     76.45468    128463.07   -40108.783    2845.2464    -42954.03    208.84002    0.9722132 
   95500    228.90843    174.40442    128473.23   -40125.285    2848.0561   -42973.341    209.13313   0.97213629 
   95600    228.42444    39.367235    128415.99   -40121.538    2842.0343   -42963.572    209.52321   0.97256963 
   95700     228.9776    68.343337    128298.29   -40189.507    2848.9167   -43038.423    209.17185   0.97346189 
   95800    224.97938    34.108994    128331.23   -40246.776    2799.1712   -43045.947    209.85424     0.973212 
   95900    225.58331    211.17415    128540.07   -40193.188    2806.6853   -42999.873    210.22417    0.9716308 
   96000    221.18778    143.90106    128588.71   -40264.287    2751.9965   -43016.283    210.41474    0.9712633 
   96100    226.03139   -21.875032     128594.2   -40221.656    2812.2602   -43033.916    210.77447   0.97122177 
   96200    225.23912    -35.63079    128592.71   -40270.623    2802.4029   -43073.026     211.1553   0.97123307 
   96300    224.11935    184.02209    128474.02   -40223.381    2788.4707   -43011.851    211.23634   0.97213033 
   96400    226.81437    103.78983    128292.56   -40210.416     2822.002   -43032.418    211.20737   0.97350534 
   96500    220.63516    114.46908     128447.6    -40248.77    2745.1208   -42993.891    211.70827    0.9723303 
   96600    222.51406   -200.83914    128435.74    -40252.57    2768.4979   -43021.068    211.44852    0.9724201 
   96700    222.87595    22.920478    128459.05   -40335.983    2773.0005   -43108.984     211.6904   0.97224362 
   96800    221.76022    1.6802981    128273.93   -40397.348    2759.1187   -43156.466    211.66479   0.97364671 
   96900    224.45886    116.17217    128469.65   -40333.772    2792.6949   -43126.467    212.15617   0.97216338 
   97000     226.3042    2.6102418    128587.44   -40352.131    2815.6545   -43167.786    212.38369   0.97127284 
   97100    219.04277   -114.24387    128640.88   -40358.362    2725.3085    -43083.67    213.01469    0.9708694 
   97200    222.51502   -32.209488    128632.64   -40366.707    2768.5099   -43135.217    212.84755   0.97093154 
   97300    222.35158   -30.692304    128590.82     -40365.8    2766.4764   -43132.277    213.09344   0.97124734 
   97400    225.33948   -133.08898    128812.02   -40364.034    2803.6516   -43167.685    213.49019   0.96957948 
   97500    225.38659   -70.474284    128783.05   -40264.422    2804.2376   -43068.659    213.71511   0.96979762 
   97600    220.82959   -82.226478    128855.84   -40319.306    2747.5399   -43066.846    213.73738   0.96924979 
   97700    225.11972    3.1552981    128927.33    -40244.19    2800.9173   -43045.107    214.19257   0.96871227 
   97800    223.00342     23.58984    128871.55   -40234.908    2774.5865   -43009.494    214.18223   0.96913159 
   97900     228.7441    91.695561    128898.83   -40203.038    2846.0115    -43049.05    214.57479   0.96892653 
   98000     226.3116   -63.632098    128872.76   -40227.675    2815.7466   -43043.422    214.46815   0.96912248 
   98100    225.24398   -48.332638    128661.33   -40314.385    2802.4633   -43116.848    214.54705   0.97071507 
   98200    226.13478   -67.395421    128675.07   -40281.798    2813.5466   -43095.344    214.44851   0.97061143 
   98300    221.47064    147.10037    128860.31   -40296.127    2755.5158   -43051.643    214.75757   0.96921614 
   98400    218.65426    63.542737    128820.13   -40296.215    2720.4747    -43016.69    215.28046   0.96951844 
   98500    220.34841   -17.421807    128934.43   -40286.796    2741.5531   -43028.349    215.36923   0.96865896 
   98600    225.91927     120.2104    128928.37   -40311.433    2810.8652   -43122.298    215.81969   0.96870448 
   98700    219.37209   -84.897048    128795.97    -40365.53    2729.4059   -43094.935    216.21713   0.96970034 
   98800    218.92354     102.7976    128817.79   -40332.444    2723.8251   -43056.269    216.25723   0.96953604 
   98900    223.71049   -89.102448    128754.33   -40341.596    2783.3838    -43124.98     215.9825   0.97001392 
   99000    215.34918   -128.32154    128829.51   -40378.486    2679.3532   -43057.839    216.74131   0.96944786 
   99100    223.64325   -174.26068    128679.88   -40300.465    2782.5473   -43083.012    216.91597   0.97057511 
   99200    227.20699    1.7505321    128610.48   -40293.291    2826.8869   -43120.178      216.978    0.9710989 
   99300    226.73497   -119.28143    128751.28   -40267.179    2821.0141   -43088.193    217.50205   0.97003688 
   99400     225.8326    182.21306    128750.21   -40225.905    2809.7869   -43035.692    218.16608   0.97004492 
   99500    232.29578    150.12173    128783.54   -40119.605    2890.2012   -43009.806    218.64479   0.96979392 
   99600    228.75207    -42.10192    128730.28   -40141.546    2846.1106   -42987.657    218.56877   0.97019513 
   99700     227.8642    90.740345    128701.31   -40151.388    2835.0639   -42986.452    218.29522   0.97041354 
   99800      227.253   -21.049626    129011.55   -40172.523    2827.4593   -42999.982    218.74311   0.96807992 
   99900    228.24911    22.253561    128724.12   -40249.246    2839.8529   -43089.098    218.44051   0.97024152 
  100000    225.79472    58.431691    128679.16    -40260.63    2809.3156   -43069.946    218.56334   0.97058056 
  100100    229.71869   -82.300596    128657.07    -40183.65    2858.1372   -43041.787    218.72577   0.97074719 
  100200    227.31411    14.192741    128594.86   -40182.746    2828.2196   -43010.966    218.84175   0.97121683 
  100300    223.96668    37.407671    128579.33   -40157.261    2786.5712   -42943.832     218.5995   0.97133416 
  100400    225.02674    91.229142    128678.98   -40187.532    2799.7604   -42987.293    219.13122   0.97058194 
  100500    229.40074   -59.067171    128580.93   -40109.561    2854.1814   -42963.743    219.57329   0.97132203 
  100600    224.67408    40.659563    128623.89   -40193.386    2795.3727   -42988.759    220.37533   0.97099763 
  100630    226.03243    88.685374    128667.26    -40170.79    2812.2732   -42983.063    220.49778   0.97067033 
Loop time of 90.5304 on 6 procs for 100000 steps with 4175 atoms

Performance: 477.188 ns/day, 0.050 hours/ns, 1104.601 timesteps/s
98.6% CPU use with 6 MPI tasks x no OpenMP threads

MPI task timing breakdown:
Section |  min time  |  avg time  |  max time  |%varavg| %total
---------------------------------------------------------------
Pair    | 73.48      | 74.908     | 76.122     |   9.1 | 82.74
Neigh   | 5.2225     | 5.2576     | 5.2888     |   0.8 |  5.81
Comm    | 6.5182     | 7.7655     | 9.2525     |  29.3 |  8.58
Output  | 0.16006    | 0.16091    | 0.16432    |   0.4 |  0.18
Modify  | 1.7568     | 1.7843     | 1.8138     |   1.7 |  1.97
Other   |            | 0.6543     |            |       |  0.72

Nlocal:        695.833 ave         701 max         680 min
Histogram: 1 0 0 0 0 0 0 1 0 4
Nghost:        1483.33 ave        1490 max        1470 min
Histogram: 1 0 0 0 0 0 1 2 0 2
Neighs:        0.00000 ave           0 max           0 min
Histogram: 6 0 0 0 0 0 0 0 0 0
FullNghs:      19635.3 ave       19820 max       19016 min
Histogram: 1 0 0 0 0 0 0 1 0 4

Total # of neighbors = 117812
Ave neighs/atom = 28.218443
Neighbor list builds = 5678
Dangerous builds = 0

undump              1
unfix               2
unfix               3
unfix               4


################################################
#######         Run Simulation         #########
################################################

reset_timestep      0
log                 log.run_${NAME}
log                 log.run_liquid_density_MLmW
