LAMMPS data file via write_data, version 29 Oct 2020, timestep = 800000

4175 atoms
1 atom types

-0.6784395062959874 50.67843950630023 xlo xhi
-0.6784395062959874 50.67843950630023 ylo yhi
-0.6784395062959874 50.67843950630023 zlo zhi

Masses

1 18.015

Atoms # atomic

3390 1 18.110792588990776 -0.4118032566957201 14.893291243831458 0 1 0
2097 1 11.11050145580162 22.975057616133466 -0.422421875540307 0 0 1
3590 1 2.694151531670616 1.3351668513497552 2.504766018126839 0 1 1
2560 1 5.6057506379005995 0.6279350769453897 2.0318013044265624 1 1 0
3794 1 10.183191640412186 0.9755420866733473 -0.15017561265288015 0 1 1
2779 1 14.28407304395526 1.0828990855721512 0.8164968827146439 0 1 0
2465 1 16.887502248070497 2.668842410554869 1.6443201447959415 0 1 0
3 1 1.8645847341742892 2.348976809553687 -0.009609566051450247 0 0 0
354 1 23.25685310052925 1.8136337914838974 0.6815998614117769 0 0 0
106 1 27.633821264834612 0.04528255374826551 0.8373649285125382 0 0 0
258 1 33.01765150195389 3.3712168997409524 1.7816780758092516 0 0 0
2814 1 37.40468288587773 1.2661954350263331 2.2953715044795624 0 1 0
2899 1 30.927827897286246 -0.589527412567581 13.407363484266085 0 1 0
3451 1 40.01578405778349 1.8312813675990647 2.073320801649654 0 1 0
1799 1 44.85306462801498 0.17746131307810586 2.29262891903537 -1 0 1
552 1 48.950014998533256 1.2605957954193217 1.9904713771985905 0 0 0
2616 1 24.70030863296702 0.005180673294089555 4.708889314666331 0 1 0
2771 1 7.837722702911606 4.974008802935061 1.987623074460413 0 1 0
497 1 11.92081081466436 2.6410915328645848 1.2955085249361311 0 0 0
976 1 16.585669316065772 5.124229343448923 2.5100353800829973 0 0 0
476 1 20.035124085934033 2.565929865811376 3.5497412464033946 0 0 0
997 1 48.77707992896045 -0.6718227786189563 11.982111887636307 0 0 0
2752 1 25.18887786988668 3.5954014133583083 0.11308644907893439 0 1 0
197 1 27.149042484722873 2.6095879942454436 1.6978747929672462 0 0 0
560 1 28.365370203053338 24.909880394792555 7.962849268167764 0 0 0
306 1 29.294990932126435 4.082606542839159 1.2053309126946126 0 0 0
4107 1 47.96011545759936 0.6661831700786982 4.544847877433522 -1 1 1
1461 1 35.55221388961289 3.3323181885979327 2.8120988030954157 0 0 1
594 1 35.88913222520164 5.894140426361708 3.115790025011846 0 0 0
144 1 37.965820448918016 5.465224976959431 1.083234761906413 0 0 0
1835 1 32.503516428937814 20.33964321768347 -0.3214159030616003 0 0 1
76 1 44.60953193822026 4.90256676857895 1.4470929587173331 0 0 0
2335 1 44.358186961684986 24.078904263441103 16.288134437394206 0 0 0
2359 1 45.99098026438224 2.545611890382579 1.6086330964537492 0 1 0
379 1 -0.34165859127423437 6.106633740771654 1.7017511036240442 0 0 0
616 1 3.684796538005319 8.185629151447495 1.7125716844156713 0 0 0
340 1 6.874443274316346 24.575627290117964 4.417154079985325 0 0 0
1195 1 6.170804750897178 6.853152666949808 3.386277532958081 1 0 0
2286 1 10.27074128032154 6.206788047355095 2.6752192960621133 0 1 0
370 1 8.737381556414881 8.448556817271214 3.1618668181732796 0 0 0
493 1 14.204281175685415 8.107350430537402 1.7776014870173542 0 0 0
1628 1 15.045289151096116 6.034722349516357 0.21034206852159965 0 0 1
479 1 18.42351755772304 7.060170113787325 2.7113031546310076 0 0 0
2803 1 24.22333638218657 5.842257871163058 1.1651570225811039 0 1 0
576 1 26.14717244748788 7.537814455053756 2.6999421366708676 0 0 0
2024 1 28.17115634914069 6.741260901536163 0.8473011079624384 0 0 1
96 1 30.34217636449304 8.62674111827821 1.0104148912333681 0 0 0
1768 1 34.4404948206481 7.917696078572092 1.7770713147355721 0 0 1
1997 1 38.610057577686064 8.436638829856347 1.180349478813807 0 0 1
2564 1 44.46806499358301 -0.5658508687953006 11.336198600486165 -1 1 0
8 1 47.1070384135448 8.802404958171593 -0.08553875852609238 0 0 0
1677 1 46.11736941823719 7.335409836514788 2.0661926164081823 0 0 1
164 1 49.87998236455654 8.369043270658294 0.5411148981485869 0 0 0
191 1 2.021108682012651 10.521554216822658 1.8510546987034577 0 0 0
55 1 6.226912678687381 9.223988395588457 1.5015113706767496 0 0 0
494 1 6.344018565490686 11.673616819895239 2.67825414274759 0 0 0
1577 1 10.09802859352639 10.180856493904223 1.100907871834536 0 0 1
203 1 12.288559585905213 8.922591896777698 -0.057993266306408 0 0 0
686 1 18.119377843413837 9.856566856715208 1.9905803043619548 0 0 0
113 1 15.30749891291191 10.499269543520928 2.4094777898961435 0 0 0
321 1 18.874561475224034 10.539557959766984 -0.4178611386864639 0 0 0
184 1 21.33316622701562 9.202156281661104 0.09852034510112218 0 0 0
1238 1 22.149215179403758 9.844710754903293 2.6640740171134243 0 0 0
160 1 24.985011112102974 10.142315130252975 2.6009687893365343 0 0 0
1775 1 26.6373160791289 11.345662353438758 0.4547385996732465 0 0 1
625 1 29.00878299223968 10.93334683986285 1.6789736169120957 0 0 0
1863 1 36.4773117138025 9.861428841179052 1.7948169260650597 0 0 1
123 1 4.267067746374027 -0.578942770460506 11.873967385100181 1 0 0
105 1 41.18361710781159 11.651787893138627 0.3491623001561024 0 0 0
332 1 43.999472979201435 9.115463955602884 2.3388308704715364 0 0 0
1728 1 45.339827147724286 11.55369704720837 2.041226175824871 0 0 1
1695 1 19.389744274392942 3.1155757678854683 0.7427056109963053 0 0 1
18 1 -0.6177550129146616 10.124462266208266 2.382588151772278 0 0 0
519 1 1.16190434362643 15.147211890013239 0.35991060020843557 1 0 0
388 1 2.6321578590559067 12.746179646676476 0.1856171929483259 1 0 0
1432 1 5.111248759688735 13.439420252392487 1.1964261964137133 0 0 1
4 1 11.021968311365576 12.006531726120992 2.9710152709071744 0 0 0
554 1 12.271441466580042 13.858370801571496 1.4252054147941933 0 0 0
495 1 14.610753634243192 12.572775343286114 0.9289267776651615 0 0 0
708 1 16.455995674801226 15.029958369726842 1.2695907315416544 0 0 0
691 1 30.106016729243297 24.736329207868174 4.336104295439439 0 0 0
143 1 21.601175713472145 12.57905707316916 2.7774226768239494 0 0 0
2027 1 22.327825764585373 13.401713090075955 0.03662793404866149 0 0 1
296 1 25.262420280552185 13.801299304116593 0.9747657379769461 0 0 0
549 1 14.821482889344225 24.84832085283795 3.2648580707288755 0 0 0
1501 1 31.11288060812063 12.662696218262928 0.9682948728875658 0 0 1
646 1 35.94144440133291 14.528122624736556 0.12157487443542969 0 0 0
538 1 36.53494380416518 15.054273399882428 2.8544692310935664 0 0 0
463 1 43.380150858538265 12.999988250741945 -0.020187778802222223 0 0 0
255 1 43.075105810426855 15.358224613109524 1.6041786358504413 0 0 0
187 1 50.439379369379004 14.868774676376319 2.431784446943208 0 0 0
525 1 49.484526617517645 12.49142871050356 1.6502880625781224 0 0 0
631 1 2.8457668019899387 17.183918285303648 1.5603081666923049 1 0 0
80 1 3.3319058647324127 6.8805644771152705 -0.5294370022643446 0 0 0
473 1 7.298505016551262 16.777044300044064 2.290243964520321 0 0 0
1773 1 15.414627665942895 17.57819405141869 1.3974466812433293 0 0 1
1905 1 19.855724354310908 18.31993459423528 2.43601176199138 0 0 1
1469 1 22.926484610628414 16.296824607978674 0.7114350007403913 0 0 1
588 1 23.855916285285698 17.792100344317802 2.861322609607588 0 0 0
266 1 27.53596041234117 18.536567378055736 0.015070964032941725 0 0 0
653 1 29.396744113183047 17.186513645531765 1.5243637085954527 0 0 0
1739 1 31.6447496670457 18.699483778438694 1.9110414770657713 0 0 1
1019 1 28.176558924770504 24.960175778487894 12.775879706669976 0 0 0
342 1 35.52657497796691 11.849498649899296 -0.3427307210128522 0 0 0
120 1 38.19674107246304 16.954382126885264 2.3687521230393704 0 0 0
392 1 40.834515894283555 17.242711149209548 1.1130216990680322 -1 0 0
108 1 45.212541872607986 16.91836986815788 0.6453669336341064 0 0 0
174 1 49.179428175522276 17.21231042187727 2.057311461296335 0 0 0
286 1 7.933484986311823 20.405738216878085 0.12352827080998374 0 0 0
1629 1 10.545169833561898 20.431584306652468 0.44282932373111294 0 0 1
186 1 11.920208999826492 19.67498914147128 2.9621778764401094 0 0 0
1589 1 17.32935407807787 19.457910543063438 2.287925429931305 0 0 1
1816 1 17.647022752355507 21.07050203967127 0.1764340160501252 0 0 1
1430 1 23.018939878862408 21.730491355557938 0.6557475258073664 0 0 1
709 1 22.017009227335766 19.750405186398893 3.051115660856207 0 0 0
1602 1 25.929904055422927 19.470999370499495 2.228781327419501 0 0 1
1012 1 11.438191924654532 -0.5244698711079732 13.78296695144294 1 0 0
419 1 36.75059459001543 19.306367271466247 1.8504227910035556 0 0 0
2790 1 37.99655477150382 21.832685367515033 2.146400680886556 0 0 0
50 1 40.100891833500874 21.514229710731055 0.2865607860827897 0 0 0
1888 1 42.126013184262575 19.881784319384693 1.1470068006630247 0 0 1
4071 1 49.69444926742908 21.35231411793554 0.671903444323158 -1 0 1
1553 1 50.578460143641244 19.545970627204383 2.489933178187126 0 0 1
218 1 0.7809576954976498 23.008096289927444 0.4606627180523797 1 0 0
1822 1 3.2880857691104737 21.958206505253724 0.7126496981525581 0 0 1
344 1 5.107023288227457 24.09809944576347 0.40833535037167334 0 0 0
1446 1 21.079605069089386 1.1982386696111333 -0.5188235747444696 0 0 1
617 1 13.788835177280054 23.331692196559654 0.8984177061745906 0 0 0
307 1 0.17955916368364577 -0.06406282130028618 12.79943559061512 1 0 0
3510 1 19.15104856923295 23.28006001781612 0.7286725048208602 0 0 1
512 1 22.037423218584415 24.01460339241383 1.2819593749542606 0 0 0
3881 1 25.3843807855427 22.36025847007112 2.256871054565868 0 0 1
1692 1 27.382038217622306 24.0300303048034 1.4086326636186257 0 0 1
1445 1 29.41494777145355 22.318845949389065 0.6099286745099866 0 0 1
2224 1 31.57112695783959 23.885262961691815 -0.3734421419737079 0 0 0
2162 1 20.596404523352675 0.9116999808205541 14.462875935129468 0 1 0
2231 1 36.330014169490646 23.523462444593243 1.003115879367052 0 0 0
1865 1 41.84246994829485 23.90363906322815 0.26997446454433216 0 0 1
2636 1 43.50423242601166 24.005710333298648 2.455460390318155 0 0 0
675 1 47.36496848951536 22.623908876230136 0.19542405064064328 0 0 0
3959 1 46.346041292385934 23.343675335581278 2.8588318272059783 -1 0 1
3928 1 50.284561394971035 24.19712653908797 2.4714727906461498 -1 0 1
539 1 0.8776577587164627 2.710041735453295 4.27353566252685 1 0 0
2300 1 8.962937125000002 1.395597493090921 4.464078399218544 0 1 0
449 1 14.476703596056229 0.5053749052507326 4.556879418568312 0 0 0
155 1 17.073736399181165 0.8443496074817753 3.791191286447866 0 0 0
251 1 21.679927809949234 0.6006890591200134 5.616914788153745 0 0 0
2182 1 23.032224556824897 2.3065912296308495 3.467242095419583 0 1 0
3793 1 42.673423597604 8.61765867501778 -0.08052852734188543 0 1 1
2773 1 29.776459989337894 2.1593591150942695 4.965605405440968 0 1 0
2577 1 31.514232960023442 0.7811960865163412 2.849979763509303 0 1 0
3600 1 34.43772672938759 0.07621150113418118 4.749569182792758 0 1 1
434 1 34.91145425360096 2.7297564600017123 5.691213204775676 0 0 0
95 1 37.27228478742328 -0.5171392103991852 4.582891094203761 0 0 0
141 1 0.6445204628578034 -0.5403313797071922 15.630302261796842 1 0 0
2354 1 42.909592264296286 0.6396341731353856 4.3268777284725966 0 1 0
2313 1 21.923351962723906 6.688533051693516 -0.2164030016429334 0 1 0
1915 1 2.761751554806828 4.504537873773226 4.866053855858663 0 0 1
222 1 5.41322277392616 4.088833166483452 5.089970281245184 1 0 0
2716 1 6.933505733337648 2.7186590417344703 3.3635863687659917 0 1 0
2816 1 10.937545934314722 3.4450081332629443 3.859711675753564 0 1 0
701 1 13.28141038480486 2.9819591149836375 4.974175210455399 0 0 0
1972 1 15.08209034918197 5.195600984628398 4.810277183121358 0 0 1
693 1 18.4141017200886 2.019950426185345 5.825749864459387 0 0 0
2578 1 23.211134936111407 4.935232980518614 3.6206844657266632 0 1 0
470 1 24.20737247936488 5.236717240202804 6.15380725893152 0 0 0
2599 1 27.131322968943017 3.054611397572197 4.526857935875685 0 1 0
1898 1 31.205141095507994 4.692687964407812 3.2756308028894083 0 0 1
1729 1 33.847974209984535 5.470149543542087 5.195562368240799 0 0 1
511 1 38.960788518961905 4.351537558229725 5.868252176125905 0 0 0
2082 1 39.83586900646962 4.308550989508953 3.1218877159466127 0 0 1
1487 1 42.55067631383485 5.101279584625417 3.366155807854403 0 0 1
193 1 43.829450261140295 3.434730049614746 5.263213382542682 -1 0 0
723 1 46.59701425803926 3.087702359685466 4.502943989959487 0 0 0
639 1 50.1878199757203 3.4785511758094723 2.769361232443001 -1 0 0
477 1 1.1182495853272953 8.799607701134342 5.262884916552738 0 0 0
1851 1 1.6945266615919707 6.8049611722075944 3.317525915162758 1 0 1
2665 1 6.070640144236827 7.61287685937236 6.148047594106904 0 1 0
198 1 9.860219225909981 8.754448316470258 5.626005595917315 0 0 0
416 1 13.06428485819654 6.932031050882098 3.945024551232417 0 0 0
2352 1 20.541349114807808 5.770675023440419 4.219428672129626 0 1 0
423 1 21.320080362796826 8.33069152508165 4.6130660123831095 0 0 0
600 1 26.59794471583767 5.963540690988051 5.046325231074836 0 0 0
1932 1 31.965679487702232 7.644881147883625 3.162325529509499 0 0 1
1653 1 32.558943153265304 8.915456608932548 5.421183994533408 0 0 1
327 1 37.270349807951625 6.5351487589263595 5.429172519449347 0 0 0
27 1 38.37783275047996 9.356916540380725 5.456841953362431 0 0 0
1874 1 40.280168651504816 9.076563468652395 3.229567509678359 0 0 1
353 1 42.64000495909406 7.693349312662239 4.235645787632576 0 0 0
496 1 47.35623910483913 7.481306087004235 4.712049066449792 -1 0 0
553 1 48.84769426646945 4.9451152265546945 4.709412288061551 0 0 0
356 1 1.988501311976393 11.552360714953313 4.703998732287379 0 0 0
1505 1 4.685758605751443 11.938211399769846 4.888778032014942 0 0 1
254 1 6.173401316906057 10.437058568368727 6.678708910422388 0 0 0
19 1 8.954707006129222 11.055600665516383 6.40256127740253 0 0 0
1877 1 12.508988730762969 8.755051896643907 5.7317281524995405 0 0 1
136 1 13.276996351416628 11.112057233883524 4.366127981944738 0 0 0
522 1 16.630870616449567 10.527852341912581 5.356712351786318 0 0 0
532 1 18.97043334998238 11.949251386413554 3.446421102577725 0 0 0
438 1 19.5933385430344 10.16352663629714 5.66241440725424 0 0 0
382 1 25.984365018227685 11.74064167888497 4.621870485804223 0 0 0
1 1 28.810189608167352 11.156331790255127 4.407729213366502 0 0 0
29 1 30.065228321893287 9.530154277060856 6.631967158775984 0 0 0
313 1 34.03634633471206 11.325028219346072 4.7628526119690795 0 0 0
359 1 36.73347467266485 11.295879337857011 4.181225407309962 0 0 0
581 1 40.902901650272675 11.958920405336501 2.9759724227319286 0 0 0
1960 1 43.42331371184076 12.07235213382878 4.056981481066625 -1 0 1
1638 1 49.517746092591594 9.453804827673945 4.900120570061381 -1 0 1
17 1 48.38480839408612 11.793789808209597 5.953189436437395 -1 0 0
1767 1 0.8681495089010325 14.134079139310485 4.457996923070341 0 0 1
1582 1 4.525397157980265 14.555178153836946 5.244481417420872 0 0 1
5 1 8.566378636989159 12.58503374515222 4.100880567176521 0 0 0
170 1 8.117595479771275 15.237957405896081 4.36290893221203 0 0 0
2541 1 13.623435824047974 13.487837600197548 5.785656364288436 0 0 0
426 1 16.048660541898336 14.392097808018574 5.862552975464696 0 0 0
649 1 17.73888160786056 14.48913998092709 3.6678565358605244 0 0 0
11 1 21.94967187529511 14.690551515229316 4.471917035973799 0 0 0
90 1 25.94467438258454 14.204062677252516 3.848384641309739 0 0 0
1945 1 32.50217027985024 13.21520057003113 3.1036472297013113 0 0 1
545 1 30.13017012655342 13.597549001714405 4.582511300201883 0 0 0
140 1 34.02734330345291 15.298786307804793 4.08180125965049 0 0 0
42 1 33.89499719365186 13.938663063177835 6.553650723922451 0 0 0
583 1 38.38916363810164 13.321680790707095 4.2395554375067634 0 0 0
498 1 43.59038901126682 14.820597513143312 4.099008307857928 0 0 0
381 1 47.44586482362824 12.619190141539487 3.430469510849079 0 0 0
53 1 46.423050982970764 14.84609712173486 4.289919792299846 -1 0 0
294 1 1.7389561940722307 18.16937884338754 6.315944228310128 1 0 0
2171 1 4.753483556277956 15.609621663950264 2.732826755703196 1 0 0
1869 1 10.314151703719652 16.593390599786236 5.472766698510165 0 0 1
706 1 12.494744504861409 15.214953035610044 3.8190144721560326 0 0 0
38 1 13.89194379911866 17.633204073900743 3.7101205548006186 0 0 0
303 1 19.64639621964643 16.258475871014546 4.099615935932959 0 0 0
153 1 24.399658958016605 16.005425358405667 4.888534849411303 0 0 0
417 1 28.415338578356867 15.548449530110258 3.5894301970394915 0 0 0
424 1 28.023200678151973 17.347424886685797 5.530859943491468 0 0 0
273 1 33.28452728101686 17.906857293568404 3.8830380451122073 0 0 0
2455 1 38.68246782163119 17.316733044037175 5.34054735077898 0 0 0
71 1 41.011637073651784 18.486223616260936 5.962910504131849 0 0 0
1473 1 46.62348264505743 17.37482877014999 3.2466193523091578 0 0 1
547 1 1.576492157373068 18.852867052500795 3.495743150617451 0 0 0
648 1 3.274185520920314 21.025317247201098 3.4853821328759835 0 0 0
1413 1 5.670922384986528 20.189789180513227 4.764154374609455 0 0 1
2342 1 7.7373237444383935 19.385540977204677 2.8871265691663512 0 0 0
2800 1 9.576780926068233 19.34643898745458 4.6868621041327545 0 0 0
2404 1 15.040711618368803 20.996314930722235 5.256654631465518 0 0 0
422 1 17.75152520617226 21.15727051308208 4.130192569266536 0 0 0
442 1 14.796287917866854 18.24544598047541 6.307915540761817 0 0 0
2411 1 19.380209427098453 19.893728500585055 6.132717623414128 0 0 0
501 1 22.111248413573197 20.407736244442773 5.719083855128131 0 0 0
669 1 26.38909488986616 21.406981261467546 6.435316841329299 0 0 0
177 1 27.687258591206344 19.810448116228333 4.376705354263302 0 0 0
339 1 29.88628244624813 20.78348175507998 3.106120310053558 0 0 0
1538 1 35.14058401554344 19.813099576128472 4.1329636111264385 0 0 1
1648 1 39.382336136897884 22.553592244100415 4.553295089138999 0 0 1
1583 1 42.640134063294184 19.6757746370372 4.133183652234405 0 0 1
505 1 45.046369520126255 18.98451494217353 4.857823898359146 0 0 0
2391 1 46.53156853018232 21.023803437626725 4.847918434485589 0 0 0
2652 1 49.44215300957773 20.69452987920897 4.784320209010128 0 0 0
637 1 2.0547023555267625 22.809342079625107 5.100715795558679 1 0 0
642 1 6.769833592602053 22.333587137755814 6.1133386799983676 0 0 0
1743 1 -0.4605866380819489 1.2932623460912034 -0.3321751613369617 1 0 1
7 1 11.147835367262502 23.116177810413184 4.899907330617108 1 0 0
1489 1 8.260217839924442 15.949127712307696 -0.27268813348206034 1 0 1
205 1 13.246462932560675 21.880341161508984 3.5266214450207967 0 0 0
1696 1 19.174103291915483 23.478066723469247 3.6172130984066255 0 0 1
28 1 21.27922252976914 23.03862660993359 5.356779732280936 0 0 0
2206 1 22.81760706395659 24.698070091036193 4.046022026838103 0 0 0
317 1 25.443820305548854 23.256681780963202 4.840399571970252 0 0 0
311 1 49.38461724180334 17.088120082192855 -0.6558893229119608 -1 0 0
2485 1 30.984728632233985 22.087371233284525 5.134997772553203 0 0 0
3796 1 34.525591992532846 24.419372363444676 2.9996498151312334 -1 0 1
4114 1 33.70446167200953 22.214095705049587 4.578023447386831 0 0 1
2150 1 13.50337077467589 3.2292222707940637 16.062018076178177 0 1 0
262 1 42.158278618582365 22.435224082549247 4.511420569304171 0 0 0
261 1 50.65413662812837 23.205564159555326 5.17804100824701 0 0 0
3599 1 0.8130971335834112 1.3649750572337118 7.096974576277206 0 1 1
1839 1 -0.6263703773182292 0.3250477809641379 9.485710483707251 1 0 1
2521 1 5.272749262875541 1.3198154180547275 6.28270496602666 0 1 0
670 1 8.00804859922599 1.614563306022026 7.132791223096073 0 0 0
399 1 48.005217821335606 24.55345786252344 13.38997100488812 0 0 0
946 1 8.367395702385041 -0.12316238175699135 9.440624364803066 0 0 0
257 1 13.086019683030552 1.4239431459337935 9.52922760062176 0 0 0
22 1 15.266764368952883 0.08158787463347372 9.1959945596346 0 0 0
1761 1 17.146940417925347 1.7912379577582933 9.538689520172863 0 0 1
2707 1 20.035100499773094 1.1903030912998354 9.942612345583548 0 1 0
421 1 21.38568100832583 2.4620166456670867 7.860543310289492 0 0 0
2144 1 35.95609231558959 -0.4667241930032242 0.7481715292420654 0 1 0
2766 1 26.425312985478406 0.535012783234815 6.7895001105166575 0 1 0
2583 1 23.804709449569454 2.6003246886617446 9.147320514671716 0 1 0
2233 1 29.049243914426732 -0.16095603159938265 6.1966872510549 0 1 0
674 1 29.845896558981796 0.0861969542810771 8.897119469094362 0 0 0
3152 1 32.55787237004406 0.3032654636115 9.070023658848262 0 1 0
2237 1 37.23767549000669 2.469834659656705 7.044839916944429 0 1 0
604 1 39.25690227769184 0.5009487404953827 6.97299798388805 0 0 0
654 1 41.79032102356943 1.1454048831141572 8.010216724856717 0 0 0
267 1 46.78402512549308 0.5782141574643851 7.443642094810436 0 0 0
2638 1 3.0810247156166715 2.1649854020370327 8.1766431911116 1 1 0
268 1 1.7316575783396662 4.779162041623198 7.69564370372208 1 0 0
403 1 5.249368091668301 5.978948013887441 9.891091061384392 1 0 0
2242 1 9.803964502108492 3.8409089263541 8.0699041282446 0 1 0
116 1 12.695487301610948 3.417345429737529 7.88229337635946 0 0 0
3345 1 17.964979813435107 4.254570882949314 7.993609882665291 0 1 0
2537 1 20.373962300362923 4.877459030053431 6.851009035935544 0 1 0
180 1 17.401060289587065 5.406538058013738 10.710098212153573 0 0 0
135 1 26.181247365910956 3.326269499309146 7.387639562893648 0 0 0
2057 1 27.84830836166762 4.2494336781757704 9.375253671258129 0 0 1
569 1 29.7324603955032 5.666083453297257 8.085686825590278 0 0 0
363 1 31.280642940715328 4.110938162035756 6.467380158269127 0 0 0
1334 1 33.02437110085291 2.647278461935044 7.839546649791856 0 0 0
1786 1 33.84975423430537 4.6986171177432645 9.466452441802893 0 0 1
293 1 36.41176369674646 3.152676781275744 9.615369232913855 0 0 0
281 1 40.27685487097153 5.242927029544146 8.267010978459217 0 0 0
2783 1 42.72755033472614 3.8854192018035683 7.767377338337253 0 1 0
1939 1 47.410012026217395 3.332543816163529 7.278719855977873 0 0 1
371 1 45.241354851424475 4.94496469579449 8.547330144785981 0 0 0
456 1 50.187440687646344 3.93067170216832 7.469343142384449 0 0 0
20 1 -0.49811619118602013 6.747145826579424 6.442101269783929 1 0 0
790 1 2.890677426897812 6.887808751489119 9.014215517361471 0 0 0
1184 1 3.4981276663454333 9.005752573482209 7.044766258884865 0 0 0
352 1 6.807209882563172 4.842745030185731 7.501257383852124 0 0 0
2474 1 8.842529008230066 6.885986675791689 7.68081333714024 0 1 0
1262 1 9.275896487990595 6.800081205441479 10.607203067110131 0 0 0
1555 1 13.333808846512513 8.526442442164432 8.212176740457016 0 0 1
526 1 13.958903814366394 5.9995850247115525 8.628350278924371 0 0 0
440 1 16.33163093895571 6.1182119136396 7.045022430762723 0 0 0
107 1 17.626471603730828 8.913552242849612 7.692366967313067 0 0 0
461 1 19.458118102718103 7.921074941242887 9.781302321442096 0 0 0
528 1 21.70350304250085 6.541919922341712 8.770917821478374 0 0 0
2128 1 23.18594348233038 7.561705636702925 6.933710810538033 0 1 0
9 1 26.522545690253377 8.056021234481605 9.246747613964196 0 0 0
436 1 27.94702102835295 7.526172655125718 6.897945386678384 0 0 0
253 1 31.019247265755936 7.262680042106114 9.772807280250321 0 0 0
645 1 33.21399682125663 8.458035118323643 8.299895383819708 0 0 0
241 1 35.03394221453245 6.652373153570248 7.314085297017536 0 0 0
663 1 41.158540854623396 7.959950065685712 8.48745030938384 0 0 0
411 1 39.005680755024244 9.250242939249933 8.088054614024966 0 0 0
472 1 43.32217057510839 8.527481081458252 6.717983592055418 0 0 0
614 1 45.82953821441912 7.210976418458848 7.073821286394478 0 0 0
360 1 47.26367965914525 8.427480444017263 8.897537191419 0 0 0
1644 1 50.091876525442984 7.9576776847074004 8.711666293965726 0 0 1
1595 1 1.8429079632812004 11.20087591442104 8.040540273514537 1 0 1
1147 1 5.5749665240159185 12.056790465684923 8.973763173109738 0 0 0
572 1 15.382345680261796 10.116671053596718 9.106931639787563 0 0 0
365 1 20.034503118886004 12.230949133748593 7.557832846333659 0 0 0
2363 1 20.970184478981462 11.024680665308312 10.054832190000747 0 1 0
660 1 24.352682036285035 9.510285688108818 8.29930597661091 0 0 0
224 1 25.055716998832388 12.07632853681091 7.287513564611892 0 0 0
274 1 29.788164560631028 11.708754663537132 8.368736743200719 0 0 0
239 1 34.147751944466954 10.829123482281323 9.618014629274214 0 0 0
231 1 35.921536123540726 11.592560207003581 7.3676200329078405 0 0 0
536 1 44.193088401752 11.457134089777728 6.791655004503497 0 0 0
335 1 46.74210780866606 10.7901502189911 7.831895621361175 -1 0 0
3119 1 -0.22167178841967305 10.266463699490702 9.614118961517397 0 0 0
651 1 7.176412387707118 14.3950626641405 8.96087496750936 0 0 0
626 1 9.26159855423922 12.7616929438557 8.705889750329588 0 0 0
31 1 11.49779760365373 14.674438465374484 8.282025177596568 0 0 0
563 1 15.992809069583835 12.971098434123277 9.933983732762403 0 0 0
1716 1 17.21762923183647 12.428970111163975 7.395973041731503 0 0 1
467 1 22.800428944142666 13.595586441006548 7.4039239851065854 0 0 0
58 1 27.345517811533853 13.26788224929148 8.647812392652341 0 0 0
876 1 31.860211261020382 12.559749288231714 9.991517141337154 0 0 0
577 1 31.205725878923783 14.181384953762858 7.1050330941326605 0 0 0
652 1 35.23454673704855 15.362004101211568 8.801822009566633 0 0 0
758 1 37.457058956048066 13.568967308071743 8.732820851169198 0 0 0
348 1 38.70658260053702 14.63055568732281 6.542182612418363 0 0 0
346 1 41.60491440236191 14.281270353817924 6.267576740502304 0 0 0
425 1 42.446360765009615 12.699065233942964 8.348633593324177 0 0 0
98 1 45.93884366194692 14.490880741245162 9.820842702955114 0 0 0
673 1 50.64294057591432 13.156746694886907 7.029118736402565 0 0 0
458 1 1.8904435861212132 15.422249021932409 6.580249997550457 0 0 0
697 1 2.5861310368551593 15.410685505349726 9.33766950472708 0 0 0
213 1 6.507376768900374 15.467758903728459 6.4715057327038545 0 0 0
316 1 6.200367329969997 18.109212659442726 6.5097584834917726 0 0 0
36 1 10.690271009804327 17.30243132501057 8.093894176443175 0 0 0
246 1 16.89171371296471 16.71155217237496 7.274305055838043 0 0 0
548 1 19.548813455700756 17.305744384423758 6.816804009407036 0 0 0
2325 1 20.70978639416917 15.941629830855074 8.92771742343671 0 0 0
561 1 23.528029127640778 15.582554472203814 9.233709210952567 0 0 0
611 1 25.432249535358 17.088210401118747 7.322460784128179 0 0 0
521 1 27.456525360461537 16.096598954742117 8.871181645432173 0 0 0
2328 1 30.984240930153458 17.97262264961211 5.755990584618655 0 0 0
338 1 30.204590269968723 16.64078775941083 7.943844394921294 0 0 0
698 1 36.286296205211045 17.972572758906075 8.864837029148035 0 0 0
40 1 42.26486887612276 16.61246178697343 7.460338891161859 0 0 0
1819 1 46.296482547364704 15.16080462813739 7.28736574211647 -1 0 1
559 1 45.20266535516467 17.547622805112745 7.071082806103495 0 0 0
590 1 49.05541521791218 15.487634932566184 7.024240759651485 -1 0 0
681 1 2.687030658698866 19.850214868981265 8.460870233386451 1 0 0
78 1 5.281013370229624 18.952208525311114 9.105146864634126 0 0 0
2490 1 8.376848196652817 19.04493429273904 7.908610738876048 0 0 0
331 1 12.73331722271779 18.91909239952628 7.9667556101979 0 0 0
15 1 12.97223389728069 21.544539469479282 9.152638967509864 0 0 0
2190 1 18.985202204213238 21.048392434926186 8.750875135080944 0 0 0
298 1 24.45039566597061 19.763479325743337 7.2977840443445645 0 0 0
2319 1 30.557112282447644 20.281824911326158 7.433515927968047 0 0 0
694 1 32.78888451989216 21.329199263543853 8.699711465434323 0 0 0
462 1 36.683750377237594 18.769389267393315 6.29720509522473 0 0 0
460 1 38.0202804920971 21.139220517066768 6.494845623167436 0 0 0
2699 1 39.97034525610704 19.897551629266207 8.185681132965891 0 0 0
362 1 45.182465595548614 19.76696005986756 9.129954425473574 0 0 0
432 1 45.59261566407409 21.775372770400555 7.431956110550212 0 0 0
618 1 50.24215653192317 18.096369281938472 6.13326143070492 -1 0 0
357 1 0.38180653081482063 23.864583870344163 9.172116935359446 1 0 0
601 1 2.531313442903532 22.708831830776685 7.866769751787601 0 0 0
732 1 5.139508800856555 23.148051208510267 8.395304200277595 0 0 0
656 1 9.269293593910328 21.470637838973822 6.561471973503443 0 0 0
2188 1 10.158366665284305 22.27336711085085 9.098976855008798 0 0 0
1815 1 14.773830134990034 22.474488213568694 7.42881701888607 0 0 1
622 1 13.351153296518955 24.531900419481435 5.931639494071766 0 0 0
2740 1 17.0739909957214 23.053086125358504 8.581955206471049 0 0 0
2355 1 21.751783253821092 23.93268102376735 8.137991250501631 0 0 0
2140 1 46.80763380968872 23.228469105952165 15.31311097481849 0 0 0
2324 1 28.599658951659535 22.095494049206064 7.785278283582658 0 0 0
2089 1 9.371457056645824 24.53858561336934 3.2195028264416994 0 0 1
3591 1 34.201601195494604 23.156250173560107 7.176570875990167 0 0 1
2438 1 36.71325794356921 23.169373582639487 7.869678357327489 0 0 0
595 1 12.700160853472829 4.710656539792786 -0.3867328226810487 0 0 0
2461 1 41.571779542036815 21.878602595938684 9.117727806480758 0 0 0
47 1 43.078487925877894 23.219285819096168 7.105289246773578 0 0 0
564 1 47.439365880038075 23.239330352246718 8.883880269582496 -1 0 0
485 1 49.66466846515731 24.21608141439177 7.715413850320875 0 0 0
1770 1 10.881592649567308 6.51539240711747 0.07502976216650215 0 0 1
290 1 0.640271496574407 2.448204739393851 11.736171920786116 1 0 0
2002 1 13.920905486243495 19.144273034426877 -0.3824991793750298 0 0 1
1310 1 3.308635581198738 2.0660994228772007 10.927092440662141 0 0 0
305 1 21.826642321793322 0.31857299865446664 12.197704974002665 0 0 0
225 1 23.9967360434765 1.9073402163873991 11.960034938819117 0 0 0
445 1 26.08904371024281 0.5341880612227321 11.623311066979076 0 0 0
245 1 28.38870213108604 1.8061339745959635 10.371152255073742 0 0 0
232 1 31.975144512038895 2.620817520794365 12.638899568324224 0 0 0
249 1 33.54260724460007 0.16382707935963214 11.6393366553078 0 0 0
2312 1 36.210917435568724 0.8779757086494016 11.214950316804204 0 1 0
455 1 41.93634824520336 0.6131048792731661 10.770578314531074 0 0 0
83 1 46.736261270323475 0.6876210509117324 10.328280912018307 0 0 0
173 1 8.193206241632634 1.8241883778032664 11.526692373465472 0 0 0
2463 1 5.855217279266296 3.43935687409354 11.270360479339127 0 1 0
1219 1 9.91219446198962 3.9754552556768434 10.85237696261147 0 0 0
640 1 12.501878321531358 2.880884864660188 11.850256595590883 0 0 0