LAMMPS data file via write_data, version 29 Oct 2020, timestep = 800000

4175 atoms
1 atom types

-0.8070980124799974 50.80709801247366 xlo xhi
-0.8070980124799974 50.80709801247366 ylo yhi
-0.8070980124799974 50.80709801247366 zlo zhi

Masses

1 18.015

Atoms # atomic

3683 1 0.3989048661116943 1.8551986924666903 0.34500499457128786 0 0 0
4129 1 1.5010875928563987 -0.5226802650527844 0.4913078543159719 0 0 0
3689 1 6.885026083064082 1.7992570689394891 1.879184319861853 0 0 0
3445 1 5.800116444371924 -0.6876958615953531 2.568026609786499 0 0 1
1257 1 9.387308086024145 1.5228556586535902 0.5407752452290202 0 1 0
3380 1 13.804799717229502 0.5330374430741569 1.6958379305990654 0 1 0
3325 1 14.976980948324154 1.3290211807715764 -0.5520997027725975 0 0 1
3437 1 17.76589098631909 1.599339018436508 -0.2638526603071025 0 0 1
1487 1 18.65836381871953 -0.4225184948113864 1.818689821554683 0 0 1
3520 1 26.08523859216342 0.3246058743822655 2.6136377527355203 0 0 0
995 1 28.198076654125764 -0.44183674666091305 0.9839601618442417 0 0 0
3434 1 37.155999754976996 0.7871281968242525 1.0802487062016952 0 0 0
3430 1 41.020339159952925 -0.24750505751358343 2.235945382862648 0 0 0
3232 1 41.836456621102876 2.0111505336761795 1.485978837248104 0 0 0
105 1 44.18167566199261 1.778424594649222 -0.016373897757606892 0 0 0
2510 1 49.04273163972698 1.2757613170729911 0.5731498499162246 0 0 1
1510 1 2.8918363765718134 3.6135775614952994 0.2922187949188544 0 0 0
3774 1 5.7203793656043285 3.195928233715814 -0.05639671633290022 1 0 1
1081 1 13.603516190913233 3.7474973582034323 -0.41662154058326123 0 0 0
2331 1 18.022312952918874 4.271100882744139 0.5937630971037593 0 0 0
2394 1 20.458072414713186 5.280693806558969 -0.7275607881910986 0 0 0
3149 1 22.299383231502148 3.0562694578758314 -0.3230131470064435 0 0 0
2488 1 24.94272284032778 3.6700971183631292 -0.5744834743049659 0 0 0
552 1 26.392631006842638 3.148815905188731 1.8940040086613394 0 0 0
2183 1 28.829890109119823 3.511132234128442 0.5387192768253002 0 0 1
2527 1 31.09648715508099 3.5940059979776544 2.297670478965879 0 0 0
424 1 35.23837364615076 2.3954168181657107 2.204465617018047 0 0 0
2295 1 33.28494780787207 3.0603078737794878 0.31035897083061936 0 0 0
3025 1 39.44103797865768 2.683405180507656 0.14456724540149013 0 0 1
1615 1 46.91450416952452 3.116832031234583 0.6160103337089997 0 0 1
421 1 3.155132235820755 5.440435083025264 2.297314361599844 1 0 0
212 1 4.319249055041159 7.558192115979155 0.9367387326476762 0 0 0
2551 1 6.301486699719699 5.815011911150007 0.43317764732893327 1 0 0
769 1 9.033177455815736 6.154237468618068 1.5665393789944635 0 0 0
3160 1 10.6834730632798 5.748171368671609 50.577343098344755 0 0 -1
620 1 13.66464204546014 5.321327542927705 1.9107442956356149 0 0 0
2450 1 14.795038410931962 7.8097676677760415 1.2243977183287864 0 0 1
3111 1 16.60348522985522 6.470429459008014 -0.49261381211546007 0 0 0
2934 1 21.388279846178683 7.556266658480936 0.34527955178447445 0 0 0
59 1 33.81844158315048 7.673946723740432 1.2192433232279902 0 0 0
1754 1 38.93229567222499 5.213477291708295 -0.6980080480338184 0 0 1
1640 1 38.327895988464505 6.336680431958797 2.0786487460195042 0 0 0
3750 1 43.79703385562773 6.2342850714265925 -0.2971964411252601 0 0 1
3898 1 42.63747221163616 5.8750170268831825 2.4297408397774927 0 0 0
2218 1 48.02429243214163 6.034855280086907 0.8130256773716753 -1 0 0
446 1 50.48030930331502 6.303479117038953 -0.25314974357139075 0 0 0
1999 1 -0.20073340055972622 8.847969196759891 -0.07439417119974301 1 0 0
2018 1 8.918124515650664 10.394816318944086 -0.04944277501743499 0 0 0
305 1 13.436014339945961 9.466388910375697 -0.5904254453691351 0 0 0
2753 1 19.589556240926974 9.744337674657046 -0.565810565150886 0 0 0
2838 1 24.027397020716258 8.503440909763121 0.2525079160232091 0 0 0
616 1 28.898925304186925 9.301227118709305 0.3305844897688355 0 0 1
9 1 31.912520825595074 9.385163602473835 -0.017286892123170583 0 0 0
3916 1 36.36749697553198 8.339632373470039 1.7759265795982668 0 0 0
2392 1 36.77487777288744 10.032854001549342 -0.5181849584617607 0 0 0
164 1 39.53088733223363 10.805990966812182 0.39132770095179437 0 0 0
3151 1 40.77979165345287 10.185714154444875 2.7596421157748745 0 0 0
508 1 44.418906645214406 9.0050419728776 -0.04682292712903324 0 0 1
2720 1 47.968249177166484 9.044573311843171 2.5307549998976238 0 0 0
427 1 0.10610599264624065 13.484058657078327 1.3674298537994773 1 0 1
453 1 3.441829245299325 14.146448184677617 -0.05265492071282318 0 0 0
3869 1 7.280695159415817 12.61800770237696 0.7271602024152768 0 0 0
3870 1 11.235292737736481 11.67393788680395 -0.5165393877008526 0 0 1
2131 1 11.677053224369706 13.89589841339266 1.092777560294911 0 0 1
2176 1 16.542957843282732 11.955148047203457 2.6015894835899633 0 0 0
658 1 16.319252118629098 13.10246509541817 -0.07989988020999894 0 0 0
2156 1 19.03626269495496 10.958892529344723 2.151100909086463 0 0 0
1345 1 20.582715955948263 14.506749687724122 -0.4197684798155117 0 0 1
3214 1 20.455216758452455 13.506805047722063 2.3671949927807723 0 0 0
1033 1 26.1863253770034 11.501419047835384 1.961565196264213 0 0 0
3052 1 24.62815957746836 13.470951149082161 0.3255139791493251 0 0 0
3940 1 32.4327781467193 12.285302523637412 -0.07292911413326442 0 0 1
4007 1 32.00216806231092 12.455936753460195 2.766342045892692 0 0 0
188 1 35.26199050094184 12.466368880986478 0.14941727862416587 0 0 0
2453 1 44.65600967488537 13.846478955713835 0.4771239887018406 0 0 1
348 1 47.2631451983741 13.716039988236298 -0.40939904660087284 0 0 0
3375 1 48.95180193665555 13.850912173784582 1.8177170597630647 0 0 0
714 1 0.9331808484296193 16.186691053419537 1.3539917250807818 0 0 0
1212 1 3.1482731639278008 16.939097534785677 -0.2742709976725314 0 0 0
1298 1 5.830306093712352 17.152140699982223 0.33476916702394544 0 0 0
2209 1 7.669356757367396 15.274070590123593 1.4929495650198525 0 0 0
3935 1 9.676117631838467 15.280525255467317 -0.2080512660552225 0 0 1
2920 1 14.09120183283403 14.943208615280456 -0.006675843433189943 0 0 0
2428 1 14.693797471697517 16.61539496248864 1.8401967224802305 0 0 1
1791 1 19.388299841547454 17.466350206020582 2.266668153824737 0 0 1
3021 1 21.35316666607384 17.180815186995524 -0.0688067207424119 0 0 1
2384 1 25.026275604855083 16.133106910855947 0.8324757371037774 0 0 1
3858 1 27.96088844517003 15.795864062697053 1.576610335892497 0 0 0
2459 1 32.30678082546584 15.48740483111023 -0.2928247632698877 0 0 0
2669 1 33.17805760558211 16.593802162118376 2.081977789867937 0 0 1
1556 1 37.60291700574145 16.726792525702127 0.1595194866884958 0 0 0
3284 1 39.74852296731448 15.405967884506612 1.2316945010680338 0 0 0
2767 1 44.45694694137966 16.504891976977653 1.1014608679591482 0 0 0
3550 1 8.594979131524315 19.875955942029822 -0.05387477243774985 0 0 1
3185 1 10.452283435977076 17.867667212603134 0.09221156258823515 0 0 0
2709 1 12.330611296460475 18.350864290407642 2.0692312789098484 0 0 1
2308 1 16.742976766413367 18.099333383767778 1.20623512509995 0 0 1
2651 1 23.880742592854833 17.961769383406974 50.80091899082544 0 0 0
3951 1 28.848362554807856 18.210117883108584 2.213507469399375 0 0 1
1874 1 35.73835523709766 18.062460887466578 1.7450675822274562 0 0 1
2683 1 41.631637699380256 17.46348570874885 1.5599007381104157 0 0 1
3368 1 41.16926695329839 18.97548163796577 50.77570663590713 0 0 0
3885 1 46.94925381339866 19.899875562687154 50.53897448889553 0 0 0
2021 1 50.10225195053951 18.059861151876255 1.2875937326782378 -1 0 0
3302 1 0.6069114452469953 21.863712515183426 0.7893030605620228 0 0 1
3035 1 4.863979833007512 22.58163238879037 0.09540676595962383 0 0 0
1214 1 7.182331549006637 22.924298612080506 2.116394547674373 0 0 0
1135 1 7.345176879075849 20.198151103619814 2.5235568129054644 0 0 0
1723 1 13.645699797764118 20.73706482209061 1.9218429656994558 0 0 1
3863 1 16.48140701487846 20.939415361256227 1.668330380138571 0 0 0
1606 1 17.605645561397317 21.692885107238805 -0.7567231850587746 0 0 1
3811 1 21.573015350142285 21.04773182651327 1.4347459586954083 0 0 1
2286 1 24.07771474979372 20.307298071816895 0.903777153068027 0 0 0
28 1 28.289166271302424 22.171194767715356 2.3750203273708217 0 0 0
2082 1 29.861046592507897 20.530632564482694 0.8975196842959554 0 0 0
2214 1 32.169175095800085 21.537616428988528 1.9923422749592836 0 0 0
1112 1 34.70214838413616 20.344894711249548 0.42923648496841005 0 0 0
3154 1 36.03550858583734 22.69724572835895 0.8807456630599839 0 0 1
2257 1 38.941784297705354 22.484725562777765 1.3619516519433628 0 0 0
295 1 41.55450356520042 21.453278770186728 -0.04504085087313814 0 0 0
3906 1 43.83913458791014 22.56778888589575 0.7970532100040513 0 0 0
3721 1 46.08305605491154 21.29448263352228 0.9924579859468374 -1 0 0
3824 1 -0.6471828441359895 25.581282641626707 1.6296537454600344 0 0 0
748 1 7.413573227951128 23.892061098836653 -0.6731254050575723 0 0 1
2588 1 9.59441754924523 25.751134074594255 -0.430562969625371 0 0 1
3492 1 11.947899517827512 24.368100912017503 0.13028119921247305 0 0 0
2678 1 14.27408269230426 26.275770749559822 0.21029902349890572 0 0 1
3947 1 16.806808210803908 25.826510627012407 1.0462017636666883 0 0 0
2784 1 20.202625429378653 25.64374829665867 0.41923096733221343 0 0 0
888 1 25.41253830097336 24.63558730033289 -0.057298598487863894 0 0 1
3509 1 23.98292235049454 25.814639257536644 2.3843565111384906 0 0 0
4099 1 27.888755373310982 24.48498573335768 0.6705866566714052 0 0 0
1474 1 32.28371572513952 25.133008740626128 -0.11254853978107882 0 0 1
4089 1 32.861861547544216 24.33708434172262 2.229659623672654 0 0 0
841 1 44.15368447447585 24.5719231861222 50.55456545758472 0 0 -1
3672 1 49.884794737226294 23.41481872414175 0.38263263586184215 -1 0 0
385 1 2.004050736138104 26.324822318071018 0.7280719253559131 0 0 0
2672 1 3.1211880519752038 29.041120393647017 0.40574098318150287 0 0 1
2389 1 6.858255436689038 29.193928822313094 0.7934946357550532 0 0 0
1535 1 8.611366692298898 27.265056818682947 1.7161502285563817 0 0 1
51 1 18.707152719229263 27.6234660535832 2.248128913106836 0 0 0
1923 1 21.689135734286523 27.431754912580192 2.142957755732617 0 0 0
3892 1 28.25220003790487 27.098247432284246 1.5210239706867905 0 0 0
983 1 27.965819005433566 28.259863162836428 50.525743184380374 0 0 0
1516 1 32.9990589970433 28.005296904629933 0.02184930057555079 0 0 0
3605 1 35.7108693101471 28.663612244992926 -0.4707211454305395 0 0 1
3890 1 40.34732466675309 27.49490041807095 1.3805572740083174 0 0 1
2545 1 42.8495088452707 28.48540131199371 1.428372122180773 0 0 0
865 1 45.02968889796959 27.008978037077426 0.2691853653806875 0 0 0
1669 1 46.27465775095312 29.20099456548914 50.77834121042936 0 0 -1
3079 1 49.05466348877372 27.645576077535917 0.8906753922889368 -1 0 0
704 1 0.748834387028332 30.14754131466909 -0.4791198744340262 1 0 1
819 1 8.473926852066278 31.41566581295394 -0.11615850331412492 0 0 1
828 1 10.699329252238565 31.37573716489046 1.429298721514229 0 0 0
462 1 13.421968316822115 31.798081568798864 0.7285632013214702 0 0 0
2629 1 17.411298566311668 29.23356785961656 0.44152055640733145 0 0 0
1010 1 19.736941652751664 30.43942641563398 50.753433936580706 0 0 0
2074 1 22.14324119185028 29.362531735126975 0.020118449785432646 0 0 0
2376 1 24.502231386395383 30.480176193064374 1.2763609450033262 0 0 1
2492 1 26.64181194857082 30.65917162182844 -0.587831082224368 0 0 0
1799 1 30.976312051613384 32.12182314231526 -0.4012471052770792 0 0 0
8 1 32.349061326227854 32.315284692472474 1.865350079747019 0 0 0
3187 1 36.241568382346564 31.552119886833893 50.74859644431706 0 0 -1
2755 1 38.75403133140354 31.78183140280052 0.3137780115190565 0 0 0
396 1 40.899652413735026 31.599413362534 50.49478351519596 0 0 0
2695 1 43.0930922311923 30.696055607605064 0.12962053075410607 0 0 0
3379 1 47.20563835984408 31.731638077328725 0.4771929802710455 0 0 0
770 1 50.783918496891445 29.93353321359023 1.4777328295398107 -1 0 0
254 1 49.679128793655586 32.1601582224472 0.45645224204087365 0 0 0
3190 1 1.4180241675689271 32.6256287501632 50.476524223537254 0 0 -1
2855 1 1.7458266897037293 33.75791129174576 1.3886255122599813 0 0 1
3472 1 7.137933690875989 33.63397895556119 1.1176020241709 0 0 0
349 1 5.598064017421034 34.97125289912086 -0.7611366235255593 0 0 1
1789 1 13.8473132002627 34.48165647889278 1.06471666560424 0 0 0
1694 1 19.66284475692265 33.06178181158958 0.12897060302108454 0 0 0
2575 1 22.051953225483597 34.48204383854976 -0.18269386446973845 0 0 0
3431 1 23.218712828943 32.967723023873106 1.9127128936325555 0 0 0
1424 1 28.32966155235135 32.50453199583001 0.09504183620574214 0 0 0
1948 1 34.55780310310873 33.51082527943178 0.4999868651854724 0 0 0
1690 1 36.245689751881564 34.92622137739552 2.155127573128597 0 0 0
429 1 38.55598001519277 34.49763735899804 1.3684285215222154 0 0 0
2994 1 43.75986533736521 34.757299786732915 -0.00644203476335703 0 0 1
2965 1 46.08020016713871 33.84474377790727 50.72947001508716 0 0 -1
1822 1 50.59493837333787 34.21161075332613 2.141872880087825 -1 0 0
1363 1 3.4335611033571656 36.152049057377475 0.2996617242723465 0 0 1
918 1 8.267231058339148 38.010109420189984 -0.11770385077492895 0 0 0
3862 1 10.281887230281455 36.64685971055303 1.1714023682187267 0 0 0
2252 1 11.874110941631697 35.665101316817555 -0.8017187221851998 0 0 1
3691 1 16.259950724473775 35.40640647577277 1.3028753633391172 0 0 0
3644 1 17.665307995240457 35.110362386227365 50.54607218789278 0 0 0
503 1 18.924114112189034 37.88599231556214 -0.6705056947569403 0 0 1
189 1 21.716119356771394 37.160527814465716 0.09419100445089834 0 0 1
3338 1 24.486568720170443 36.879055815400825 1.035233357686164 0 0 0
90 1 28.72739957657234 37.03144269993022 0.5496077920219311 0 0 0
3800 1 30.925684573536145 36.085760195612934 1.9204771609628484 0 0 1
3823 1 31.44272280072 34.98821708706675 -0.4236939911899294 0 0 1
87 1 35.48787946477428 37.610325180741654 1.6154073590014595 0 0 0
3880 1 39.77860034577871 38.42547979161963 -0.6654614078703158 0 0 1
4016 1 39.44197404322467 35.786877706710406 50.65428768118119 0 0 0
3654 1 44.31685245425172 37.563430377762856 -0.6618202043450602 0 0 1
2658 1 49.47100422215086 36.49876654149612 1.3706577032904979 0 0 0
1624 1 -0.35963455607400563 38.51360268423619 0.5467895096646425 0 0 0
74 1 1.6391763414586622 39.41740721917463 2.326943695709844 0 0 0
3749 1 4.688244629511279 41.15281956587655 0.08035017300172786 0 0 1
2938 1 6.16090295716494 39.124064414740054 1.4170814517868457 0 0 0
3510 1 15.018707886580055 37.84809809767454 2.043734857038845 0 0 1
4034 1 22.49678184765237 41.85613490158476 -0.6099751056222971 0 0 0
1662 1 29.588869658107 41.08871792204759 2.1296850254834028 0 0 0
3771 1 32.239720454107726 40.46834444372294 1.7466541107197848 0 0 0
3918 1 32.464028309562345 39.88522557729305 50.55681891304637 0 0 -1
1161 1 39.80910154355364 39.15828764496302 1.9715998846865155 0 0 0
2809 1 43.058096203686134 41.20932433736376 0.3548294274392738 0 0 0
3447 1 45.60300131888594 41.01865280980967 1.2194918739085518 -1 0 1
3113 1 0.8649062821436988 43.894269800614104 0.250542505360813 0 0 0
3474 1 2.456334514173789 41.845516264669236 1.3599401327748728 1 0 1
2794 1 6.60008087333629 43.07577299905359 0.3057240646530093 0 0 1
662 1 9.313508991589314 42.501641152003444 -0.1302909840283396 0 0 1
2194 1 11.558906080435095 42.31105834715604 1.6020511663943044 0 0 0
2282 1 13.73391147167074 42.06858453285625 -0.18948373414406772 0 0 0
2254 1 15.699073625470447 44.03934972347112 -0.026473467805026574 0 0 0
3049 1 20.052393778030993 42.27813637968001 0.45598722267255143 0 0 1
3722 1 24.691508246919224 41.58130270359613 1.06682462819705 0 0 0
1986 1 26.686895562668276 42.661570119917094 -0.7203813180710719 0 0 1
204 1 29.153483454627466 43.317892306475656 0.46660060848323126 0 0 0
3809 1 31.206448045432133 44.89304713693365 50.76857390768894 0 0 -1
1636 1 33.758833849111234 44.746506852758614 0.5583181912494874 0 0 0
3564 1 37.844282325498355 42.45659170101403 -0.0550545000397501 0 0 1
1796 1 40.09466252943368 43.581290093255696 0.6507624033823842 0 0 0
3514 1 49.93407535683044 42.70262499233508 0.27652929245547786 -1 0 0
290 1 47.687806492858165 43.99985414868868 -0.59537156923348 -1 -1 0
339 1 0.6878186441023488 46.2264197264038 1.5109243472148521 0 0 0
1196 1 5.210690188018238 46.86174698623394 1.1837924116764669 0 0 0
951 1 11.177626115975883 46.06730031261844 0.6084067580364687 0 -1 0
844 1 20.428681308476634 44.72396665295805 1.5396753058906945 0 0 0
1613 1 22.053664872916972 46.286078834848595 -0.37713296355995257 0 0 0
1551 1 26.08004712864144 46.980466389979014 -2.9529444718012776e-05 0 -1 1
1998 1 30.57867923714455 47.648136861164474 50.689126274330675 0 0 0
3700 1 34.26059055462139 47.062679764043935 1.973657330902729 0 0 0
1056 1 39.139678000543924 47.332290385571035 1.4276747539005759 0 0 0
1326 1 44.16495121341285 45.565201933952586 -0.1892540409640192 0 0 0
1172 1 46.22830908955041 45.1154722947345 1.4250110150292312 0 -1 1
3108 1 0.6520941863803937 48.29935031848885 -0.20344137589977118 0 0 0
4025 1 5.707868013334123 49.42648525183111 0.07969805186150214 0 -1 0
2417 1 9.072552402332517 47.694110203969515 1.5590787701777264 0 -1 0
3912 1 13.217331817012893 47.768129230686945 -0.1943990168016948 0 0 0
3546 1 14.442089535152967 49.24569999608378 1.629043699313411 0 0 0
495 1 17.308044071532503 48.758274082318636 1.181115885235476 0 0 0
1280 1 23.642753710666778 48.445379351359655 0.10548336994552443 0 0 0
1277 1 28.25828829912831 48.83621203608391 -0.42853488401646206 0 0 1
257 1 32.183319494318596 48.76949049545227 1.0904198573754589 0 0 0
3752 1 30.483897579924307 50.49785667419797 2.573429525967946 0 -1 0
134 1 35.974579411405664 50.11644144846248 0.15993854182321943 0 -1 0
752 1 36.49957439343594 48.432269714758576 2.160195131229879 0 0 0
1210 1 41.01790165818262 49.00624801932453 0.4752729549938912 0 0 0
3132 1 43.735939672608275 48.19468102753844 0.47020403675806954 0 -1 0
2137 1 45.382581935628316 50.56680690933617 0.35580555900143973 -1 0 0
1829 1 48.112668735026446 50.177968532590164 0.8095331208506 0 0 1
2822 1 49.58268294415857 48.303765430009186 -0.7973846646063418 -1 0 0
3100 1 1.8108409736571809 1.4103012217958701 4.59307457391417 1 1 0
3628 1 2.9675153362355875 -0.45359220522074545 2.962731402394416 1 1 0
4143 1 11.075635567778484 0.6248245849474683 2.4821873337022184 0 0 0
364 1 15.301279197762216 1.679954453361531 3.7310576255123182 0 0 0
3681 1 17.422069698288098 0.0013088367819847901 4.382155490009532 0 0 0
3009 1 21.32679450546806 0.025521912240765054 2.5123868059538967 0 1 0
422 1 27.103024097812487 50.769471863666354 5.097106974613977 0 -1 0
1015 1 31.10544321316219 1.3231573037094115 4.100435573011634 0 0 0
827 1 33.83081256706771 1.11585057009058 4.399074802802694 0 0 0
2682 1 38.56259963537593 0.18693451094707147 3.359012891910414 0 0 0
3399 1 49.098019374984695 1.8482724153412575 3.7351780176272698 0 1 0
3513 1 -0.09981082478255743 2.850732215498119 2.800291609172435 1 0 0
2217 1 4.732320446672412 4.887733389061495 4.38090092201491 0 0 0
1456 1 7.307719703425622 4.267117519088873 3.376705649095766 0 1 0
1901 1 11.116110274678142 2.5531323907975363 4.322859244824625 0 0 0
2774 1 11.125420962454815 5.0181498578383765 3.3903168311379392 0 0 0
2017 1 16.066641272319576 4.309346381296333 2.9353823217126402 0 1 0
1555 1 19.665207328646115 4.393018847570878 2.750847626707422 0 0 0
2317 1 21.91862136447763 2.810266718202251 2.1946143938084455 0 0 0
1427 1 23.265197175374187 4.245924363523215 4.389890525835811 0 0 0
2251 1 25.871805181642532 5.02584000497151 4.15893579665405 0 0 1
1696 1 38.18372853709553 2.436284610590344 4.708981749267611 0 0 0
4125 1 36.890292594321075 4.5738496196582155 3.483140519507703 0 0 0
2191 1 40.625262710890226 3.869564594266439 5.540774249828076 0 0 0
3964 1 42.618947647433586 3.627046665016489 3.6452817118856062 0 0 0
939 1 44.81129840429576 2.723006714031605 4.966060745478813 0 0 0
2312 1 46.9286835407886 3.59914982217429 3.3823880683563194 0 0 0
4049 1 0.33913820538718076 5.333343389179984 2.246851893235071 0 0 0
2751 1 0.17606758078929596 7.40799066064929 4.199519262417953 0 0 0
68 1 5.090519552216354 7.301861065148806 5.480175094309408 0 0 0
3381 1 16.685985466325594 5.821931586504409 5.02153748912718 0 0 0
668 1 20.36452782313027 7.175060233372466 2.826571939377715 0 0 0
3240 1 22.742242824742323 6.911161259129896 4.20125921602903 0 0 0
4145 1 26.636942645179523 7.886944070421791 3.90323426957462 0 0 0
3522 1 30.771866119229358 5.78088915700124 4.032108668482168 0 0 0
3028 1 34.89226335869777 5.522910435724928 5.13590445081802 0 0 0
387 1 33.04550527014061 7.123449405081462 3.820086253653491 0 0 0
3477 1 40.561146147160564 7.467527635469512 3.256629175571235 0 0 0
2500 1 44.50992412698813 7.370068548754006 3.849364854231908 0 0 0
1808 1 47.41859594024069 6.464021044588929 3.662762874641049 0 0 0
1558 1 49.254160177638674 7.209036355636137 5.6202229616261725 0 0 0
3805 1 50.7883877943602 9.347905500844412 2.6195535595795554 0 0 1
2777 1 5.797281370886981 8.712508463791668 2.8286864809206453 0 0 0
52 1 8.589853759954053 8.861791279331062 2.2944692981065664 0 0 1
2293 1 10.194343928412023 9.205487178518515 4.581942023552335 0 0 1
2921 1 15.360589716532278 9.728143894562875 3.2857181182381705 0 0 0
632 1 16.944981694019447 8.576239027833228 5.147107137148616 0 0 0
2615 1 19.332799250087575 9.470621482137807 4.180484455752158 0 0 0
761 1 21.024344092589885 10.532915708367922 6.119058344098041 0 0 0
1982 1 24.558540843789643 9.211192352701627 3.024740581765024 0 0 0
2817 1 29.282532292446106 8.202079209224342 3.1181215986926265 0 0 0
3237 1 31.271896917430468 10.182749304368828 4.052879972114389 0 0 0
3859 1 33.762009153500195 9.437683675629637 5.21865223866014 0 0 0
1580 1 35.939598544324284 10.351466980031075 3.8402245602096556 0 0 0
1496 1 43.67599121454602 9.806209077664606 2.486265144353669 0 0 0
2294 1 0.764097105405684 11.53183986247706 3.462907731754629 1 0 0
343 1 3.286055902857991 13.206391473376073 2.7347187949669065 0 0 0
2599 1 5.699049703711079 11.601074841830112 2.9221475972272204 0 0 1
2813 1 12.704591450879136 10.771497940852711 4.447703062347366 0 0 0
2603 1 12.560144679023987 13.60516860305611 3.7643568809983083 0 0 0
1936 1 16.70764715479056 14.057817581547164 4.397281696606447 0 0 0
2145 1 23.01266358787666 12.678453252070126 2.423108609512539 0 0 0
3030 1 27.160381296922488 12.75349039546224 4.217022363856101 0 0 0
3915 1 33.97869895067777 14.61251904211481 3.7338710543260225 0 0 0
270 1 35.99464518854367 12.960481092792174 2.746571654392333 0 0 0
3172 1 38.49963590194455 14.264989335044765 3.1749004712211204 0 0 0
3144 1 39.915368212922296 12.037896721712702 4.507261005976724 0 0 0
629 1 44.69329813234919 12.351087167040404 2.6969566508506877 0 0 0
234 1 44.022215336759785 13.672509990159853 5.136030152566983 0 0 0
3076 1 47.319383559147965 11.871680548252405 2.853802732190915 0 0 0
2723 1 1.140782362853168 16.81763942357531 4.129635239641178 0 0 0
1805 1 3.0115351655260456 15.012363931407547 5.039653416097961 0 0 0
2978 1 5.443260482829762 16.294370907275166 4.6181301594310415 0 0 0
1130 1 7.6770784853938405 14.852040719331969 4.287415148319633 0 0 1
4173 1 10.315884242010675 15.26845974130801 4.7451748754287655 0 0 0
4052 1 14.587281903884975 15.54117811355134 4.556967597938756 0 0 0
2765 1 19.11743517213565 15.2967520030831 4.204589358186592 0 0 1
527 1 24.728965802298667 16.613773713466678 3.856686257781133 0 0 0
2491 1 25.737190761853483 14.87894183155456 5.644184384107967 0 0 0
3387 1 29.341456986781953 14.19592026170483 3.6331961448658108 0 0 0
1348 1 30.789763480625044 16.316673276059518 5.712513757369537 0 0 1
62 1 37.86796879404186 16.033149704456598 5.098687034923197 0 0 0
3585 1 46.174988855741475 17.06623866624317 3.2128617589775903 0 0 0
1054 1 48.7131678853132 16.413814073412397 3.055659950266188 -1 0 0
376 1 50.34664893188899 16.020033291961642 5.205551173716661 -1 0 0
1111 1 1.273604627235549 19.523005226664026 4.918767174783791 0 0 1
810 1 -0.45735166689434603 20.31241477796035 2.648516266540012 0 0 0
1710 1 5.353187507966333 18.36624668014642 2.83952330187394 0 0 0
793 1 10.865466732985265 17.95766020246204 4.469223952225945 0 0 0
2079 1 16.072839103688366 20.1251359094796 4.452726566299972 0 0 0
4168 1 20.688463839522136 19.509443224656245 3.4998926475913583 0 0 1
2712 1 22.440300466719986 18.254004241489106 5.152733686669109 0 0 0
594 1 26.75648054309423 18.649647319292768 4.161686298470616 0 0 0
1709 1 31.303265185392753 17.805125153032467 3.3688378586384973 0 0 0
325 1 32.52237510647055 19.993983266241163 4.324544695629376 0 0 0
3473 1 35.12180162821673 19.804075019289012 5.241666252784429 0 0 0
1466 1 37.19251636016947 18.530995334378364 3.904676492085099 0 0 0
3979 1 41.60026739839349 19.00899718945973 3.741591477120908 0 0 0
378 1 39.27982916278176 20.57212294399175 3.1382993657584017 0 0 0
975 1 45.94199440400642 19.942052625467955 3.5833302489052477 0 0 0
3723 1 3.0220812761477736 22.169252671831277 2.136337778722578 0 0 0
4064 1 3.8407284712958303 20.330185819503185 4.123416209829991 0 0 1
862 1 9.044155775850639 20.219270918710855 4.5544006304727445 0 0 0
2184 1 9.880687600638103 22.983797530401837 4.193981812897977 0 0 0
2042 1 12.070084677670987 23.108763654327852 2.493212591276255 0 0 0
757 1 16.240256907490732 23.70907565334207 2.7416508847597214 0 0 0
2647 1 18.833992147621164 20.684502015675736 4.912318507845135 0 0 0
2741 1 18.73697429341565 23.33169153230765 3.891764346948417 0 0 0
163 1 25.837721187631608 20.9328931628677 2.99016506822602 0 0 1
3065 1 24.7548007876171 22.42669071708604 5.066662710480256 0 0 0
2049 1 43.51441369652263 21.073397072475267 4.662259580669412 0 0 0
1726 1 43.731034965950414 23.500327752107513 3.481890252204612 0 0 0
1199 1 48.03532082582674 22.89463320259691 2.249530403094025 -1 0 0
1661 1 49.73511013948049 21.908731328254895 4.20410581917104 -1 0 0
71 1 0.6400868255132921 25.36005328035528 4.862747914797718 0 0 0
36 1 2.712679076804801 24.865982299097357 3.065025972915219 1 0 1
1275 1 5.518645519044268 24.285751735280083 4.2512676770750675 0 0 0
4127 1 8.214375761630775 25.446879513214625 4.171324849266319 0 0 1
167 1 13.849704805867626 24.45418577757818 4.1799866318759715 0 0 0
2848 1 20.950856562770795 23.60517729869708 2.354590727470968 0 0 0
1544 1 22.67637784350153 24.314598630901145 4.427510602075581 0 0 0
591 1 29.57776573538198 23.1381594637314 5.0288473721886335 0 0 0
3624 1 31.31831483242911 25.36509228264268 4.228065905370809 0 0 0
2758 1 35.42393540403895 24.003003217231427 3.1741642381497512 0 0 0
72 1 37.024134160590194 25.96904060956433 3.3128265161103876 0 0 0
3961 1 39.506389282484555 25.141568682516745 2.628170234023641 0 0 0
1532 1 41.258973203415245 24.703691858144932 4.665753044269235 0 0 0
3790 1 46.188204959365684 24.710283568173836 3.8012975172519914 0 0 0
1701 1 4.807138981041602 29.56132363793645 4.981787277320757 0 0 0
165 1 11.056792426265131 28.879883307434834 2.475738833052535 0 0 0
2918 1 10.615506317645577 29.01164124485583 5.174819793491159 0 0 0
3833 1 13.67024056916956 28.352064501240907 1.7969626944573047 0 0 1
1767 1 14.575374572850796 27.1905385680835 4.039125452939152 0 0 0
3506 1 17.33655406882829 27.64153687426568 4.764480626699559 0 0 0
1461 1 22.415626147203028 29.566128398332413 4.008383930381721 0 0 0
3802 1 26.19983399865316 27.038357558304764 3.2742337997636444 0 0 0
739 1 30.398130088636606 27.796213508210574 3.203846662875245 0 0 0
2002 1 36.415592718596386 28.529288416081577 2.330893870874794 0 0 0
2022 1 43.31872850786514 28.735889997798473 4.149354483059303 0 0 0
2680 1 46.76356835841903 27.043900279170565 2.562264764873724 0 0 0
2348 1 46.18036988097924 29.16134491969847 3.9998335350332654 0 0 0
69 1 -0.26721452290068604 30.146236987863116 4.269502045646357 0 0 0
4 1 4.657979773886547 30.26874038626794 2.512049202161117 0 0 0
2782 1 15.39134135875575 30.284743299767023 2.006910898715746 0 0 0
962 1 15.035025055558641 30.870585263227454 4.672703188181638 0 0 0
1415 1 18.75013122954294 32.3846143124855 2.9764833819219887 0 0 0
268 1 17.778679926433664 30.535305501263224 5.081698435458977 0 0 0
2373 1 21.435681946959146 32.298972688064744 3.966148204351869 0 0 0
3169 1 25.34868379259919 29.626011945038933 3.7123442852152637 0 0 0
1506 1 27.327227101702654 31.55051530414334 4.431128630683333 0 0 0
2803 1 32.362596722717896 29.338623113232053 2.3894196938043906 0 0 0
1652 1 34.30961366782821 29.613104903197065 4.389683386568692 0 0 0
981 1 38.81353202288665 29.792039049386112 2.16868379364638 0 0 0
1893 1 47.100924740607816 31.627965769234585 3.3571880708921444 0 0 0
1007 1 3.762985420690778 34.3498095413385 3.693279590715952 0 0 0
3012 1 5.89744783746658 32.66637196684443 3.472585301092069 0 0 0
2358 1 8.684368559908618 35.06029417032312 2.788043857616459 0 0 0
1013 1 10.500504554649721 33.20082281278466 3.4043841338153777 0 0 0
2684 1 13.066142035035949 34.884653877929345 3.8671290747804896 0 0 0
2685 1 15.266975725592427 33.56749512596055 4.936690340218733 0 0 0
3603 1 17.313841716050376 34.537486249528165 3.7687687042558293 0 0 0
3634 1 24.854172990058142 34.97229003003769 2.6553082228910307 0 0 0
916 1 27.595769619260203 33.74022575816405 2.552178692563945 0 0 0
2929 1 29.842418895343265 34.54214537275114 4.249564499439337 0 0 0
4027 1 31.799087973342637 32.76660180400149 4.499174678478744 0 0 0
1630 1 35.855197105327896 33.951082255650746 4.654460936362506 0 0 0
397 1 40.728916746363836 34.354222213756756 3.019885533240403 0 0 0
332 1 42.85809002153993 33.3288006649328 1.9142021794852346 0 0 0
2557 1 44.63817403802239 33.04773591633108 3.8096444454065903 0 0 0
3941 1 49.768868100611854 34.00000705966791 4.608445102615148 0 0 0
2626 1 3.8845454391698055 37.776600626014044 2.305157939621971 0 0 1
1127 1 3.733583126653616 36.77280962884877 4.927049631091225 0 0 0
2008 1 12.35056305067895 37.48817630258888 2.954771306169712 0 0 0
3055 1 18.233424886774287 36.993851927698884 4.309590557926309 0 0 0
1085 1 20.204248025859556 38.06121243930221 2.602727532659154 0 0 0