LAMMPS data file via write_data, version 29 Oct 2020, timestep = 800000

4175 atoms
1 atom types

-0.14555525322061058 50.1455552532205 xlo xhi
-0.14555525322061058 50.1455552532205 ylo yhi
-0.14555525322061058 50.1455552532205 zlo zhi

Masses

1 18.015

Atoms # atomic

1786 1 1.989140545748036 1.7296556077331158 2.286527185613294 1 -1 1
2038 1 4.671329025685685 0.9434357928856079 3.137562337208118 1 0 0
2721 1 13.601378572159174 1.818948982523703 1.822899460244761 0 1 1
2388 1 15.393264311503318 6.660110766840555 2.646441779046674 0 0 -1
2909 1 10.691961609437858 0.2634879997987343 10.98748129535698 0 1 0
1127 1 18.825872691063335 2.7743260572394335 2.4824234944586605 -1 0 0
2347 1 45.69771612681886 4.08860500757116 0.38419346089879425 -1 0 0
2777 1 24.32602069520537 1.196940691819899 3.072779382412613 0 1 0
3783 1 26.392064202093806 0.973329313441736 1.1604134289220043 0 0 1
303 1 39.59398230565334 24.6418487057947 13.211775851472238 0 0 0
262 1 0.03305659879537165 22.578634077570754 13.333568570792764 1 -1 0
3410 1 32.425630287501875 0.5998432318333139 1.3383956450844194 0 2 0
2407 1 14.935670907146394 22.99431830056427 0.32866878523461457 -1 0 0
908 1 18.18792615140255 24.53794359819869 0.4934994552454318 1 -1 1
537 1 8.084591616952716 13.963564079495386 0.36343041165659007 1 0 0
1818 1 43.68006163773795 1.5155667190220579 3.2869287968361514 -1 0 1
2278 1 47.67906426692784 2.3708096056481414 1.3664836941989085 -1 1 0
1355 1 0.5992481669502628 5.355126904490824 1.8602272393772874 1 0 1
2148 1 25.211937344338807 24.740266493640604 12.37251948613252 1 1 1
1736 1 8.132642407552458 9.15406639790264 0.39089779100782307 0 0 1
3606 1 7.8678787847666545 4.345329967380673 1.3947661635371627 1 1 0
1250 1 0.36187550924456324 13.705853015327541 0.7928449348197582 0 -1 0
687 1 15.738716552160007 2.9586667870445478 3.3048566285408336 0 1 0
1397 1 41.129756586738694 21.238492971188002 0.33229061217214395 1 -1 0
871 1 21.17637997393557 6.878933076505999 0.6969898093441738 1 1 0
1132 1 11.910456280459217 -0.041802999011836886 5.287639388683896 -1 0 0
1286 1 5.087233405166434 0.003313291392636114 15.641896876391742 0 1 0
1448 1 29.601530078999115 1.2578450214069472 4.268576127274273 -1 0 1
2691 1 24.67783151601838 24.94714134376204 16.55908346845689 0 0 0
4071 1 15.098617570908438 4.8055078355423255 0.5885608195280997 1 1 2
2538 1 36.88872862440108 4.478803405552422 4.430404714764025 -1 1 -1
1628 1 38.88136980205351 5.107956440738342 2.53892482418207 0 0 1
2109 1 44.957726443243374 6.15148181301663 1.9577844381668124 -1 0 1
326 1 24.77599977687527 8.094122767050534 0.857707401553264 0 0 1
883 1 49.36969799911954 3.7318786522164307 3.3157328526476246 0 1 1
3348 1 2.5552992394754077 6.21131721656227 3.924180003755219 1 1 0
3659 1 4.898882183248136 6.790895997091182 2.6632552635125704 0 1 1
2091 1 10.471602584939804 5.449261259725467 0.8336699119453969 1 0 1
1776 1 29.73957990589586 20.531821895713197 0.25008167210374954 0 0 1
3809 1 8.09819325990635 24.09750211217628 2.6628658271513475 1 0 1
4139 1 17.48624223399081 9.853385734924895 3.739723139728576 0 1 0
864 1 2.348818163263946 0.03549305633188232 12.442703012747243 0 0 0
213 1 38.99474337641561 24.653407618144666 15.952353639691996 -1 0 0
46 1 37.63925077337471 23.67748569723888 1.9012184948849633 0 0 0
2540 1 30.719806258200624 10.226067856363713 2.1698012409884933 -2 0 0
2693 1 31.26711864762223 7.386466682943874 1.3908600209124427 -2 0 0
905 1 33.926955322793006 7.354507293180731 2.7766278121741084 -1 0 1
1279 1 40.498368707519546 9.336130433881626 3.350897187786382 0 1 0
1429 1 37.49932540588405 9.06272811630428 3.4889688982122316 -1 -1 2
483 1 41.33125032895087 6.361005747673525 1.8817612478657422 0 0 0
1936 1 49.41171178502904 7.7554114534797245 1.7855729494173251 0 0 1
859 1 8.446239441697 21.41672435825224 0.6623860954155878 1 0 1
553 1 3.150435582653157 9.958003482105301 0.7872569911401245 0 0 0
2863 1 43.83887743893767 14.485553894298961 0.08401954263484182 0 1 0
418 1 31.099493334075174 24.82589632122984 1.6092994495247657 0 0 0
1660 1 46.445417751473215 0.19908608178266435 2.66251517731119 -1 0 1
3912 1 15.137899016648632 9.319086402141341 1.4415545395418372 0 0 1
1911 1 14.497838642942991 10.691134626564063 4.769602491477014 0 0 1
904 1 25.063446163624324 4.711079277985866 2.1269442726277354 1 0 0
469 1 24.227808613822308 10.792118976872375 0.18149858918730438 0 0 0
290 1 28.731508539911186 10.535181349082903 0.44508729971971184 0 1 0
624 1 33.01171381936072 11.784174378764623 3.024500530375514 0 0 0
3252 1 35.69256794315446 9.103380549462688 1.2870192297494434 0 1 0
264 1 34.78965232326081 11.63785225978679 1.1493316729289675 0 0 0
3481 1 40.41306009878436 12.127915735270474 4.2003186527659615 0 0 -1
3784 1 19.453040488466083 13.661379661560677 0.08947026804225766 0 0 0
3812 1 44.60707906008763 9.437883661081342 4.38823223536991 -1 1 2
1530 1 45.023335973474786 10.03868669234948 1.301479408810623 0 0 0
2730 1 47.95672646187583 10.317325391821793 1.4583406225284015 -1 1 1
1004 1 4.264097058599507 15.432139263758787 1.9672393701707804 1 -1 0
1354 1 6.225967528783416 13.469141579014508 2.607963746742353 1 0 0
2995 1 19.615215499372923 0.5731952655928801 13.1364355790584 0 0 -1
463 1 11.372113239645575 7.050527166351533 2.849438627105949 1 0 0
3628 1 9.544823388235129 14.729358346761183 2.6185012693057925 2 0 1
542 1 29.315563653670036 24.02541772814289 13.21343241626307 0 1 -1
3315 1 15.07008097937447 14.617608014678865 3.4649992752265715 1 1 0
1252 1 16.456357678092385 12.098941748803814 2.3813284727561848 0 -1 0
3594 1 22.04806574812754 13.017844908587278 2.069336527250622 0 1 1
459 1 24.25780017320078 14.641275228440676 1.3356885534990397 0 -1 0
2315 1 29.417478084508208 13.119569436145929 0.41283484311219687 0 1 0
4129 1 31.185746660330217 14.07307967452613 2.5674527164718746 0 1 1
370 1 40.530803205613694 12.955700135963784 1.1828503412059874 0 0 0
1254 1 17.611886071475148 0.7505896563296084 15.259375239175974 0 0 0
4143 1 5.831510111505303 17.717054963018633 0.48656327112803954 1 0 1
311 1 44.99927923033246 12.792120590224938 2.007320058515686 -2 1 0
1227 1 47.47028436273163 15.903584376952761 1.3766803808077952 0 0 0
3663 1 1.5323512936608183 15.575561837317736 2.548573694180488 0 0 0
2427 1 5.212524802733552 8.03725927900031 0.2657062246122131 1 0 -1
2561 1 4.752898547867299 15.91301583961312 4.658604941040908 0 0 0
1057 1 29.660050972052616 7.53826291795474 14.221566310245786 -1 1 0
440 1 10.334308228916512 17.464337485300124 1.6425247239804057 0 0 -1
1145 1 13.024133924921777 17.58330789053368 0.6191987339891906 1 -1 0
1533 1 15.51892436734198 17.455438650268697 2.380800108433776 0 0 0
964 1 18.244663722995632 16.280257764442332 1.8204412711995304 0 -1 0
110 1 20.159121211076112 17.98222314370491 3.2300762336264914 0 0 -1
296 1 23.527587444778295 17.414752981321858 2.2170468024358576 0 -1 0
588 1 25.842206660299883 18.057923377370102 3.51958192427649 -1 0 0
1842 1 27.122678892321847 15.068613314257211 1.089129901456273 0 -1 0
520 1 17.927455802612904 0.39959015071780934 6.489150169699712 0 0 -1
3227 1 32.010739303124666 16.491572005251204 1.0842352251120528 -1 1 -1
1708 1 46.04261332434285 24.26922737434168 14.917162194117104 0 0 1
2757 1 34.61279838024578 17.861442423354134 1.9894257736265883 -1 1 0
4083 1 37.20891795966108 19.154895623596953 1.6797917952992458 -1 0 0
1190 1 42.5268822753072 14.761473522968982 2.6176274496459904 0 0 2
2056 1 42.100795110150315 17.65598693271157 2.0082274530647517 0 0 1
3752 1 45.888683570229674 18.6763954980492 3.7544312196353022 -1 0 0
2963 1 49.98140564612089 15.435903905513939 4.593584329979205 0 0 1
1119 1 1.2456446395053173 18.10865787180685 1.0626924724240117 1 0 0
2805 1 6.147422681498922 18.67736571140351 3.334580932286209 0 0 0
1953 1 8.111977198046157 20.839365558815597 3.4460518356988223 0 0 1
2675 1 39.495404403752104 0.38200955963442207 7.153540451616491 -1 1 0
2350 1 13.45359868238265 20.533890444106095 1.3810878062052119 1 1 0
3217 1 16.201038707411257 20.044565305524184 1.6342160347836836 0 0 1
3363 1 21.458590885321353 19.917035727679664 1.8200693863114945 0 1 0
839 1 20.55117885775858 0.05011462220183449 4.7655357412565005 0 1 1
2139 1 27.816277092887386 17.678237805186395 1.476000233217148 0 1 0
869 1 20.13966534168262 12.340532190955582 15.239425034662155 1 0 0
3975 1 7.538839385227152 23.794191852288513 15.57029177764257 1 1 1
3795 1 33.77440502870897 19.798765315508746 3.6996115409330663 0 1 1
2097 1 35.36560821595634 21.65950688975081 1.9338833836779736 -1 0 1
3704 1 16.1914307821048 24.81011753362811 2.442036011494938 1 0 1
1073 1 44.379543021309175 18.504543172040684 1.391196418977794 -1 0 0
2824 1 48.854050893853255 20.35339329165204 1.8382620377244134 0 0 1
1566 1 0.7888752023220207 22.48270275931569 1.9279409905157094 0 -1 1
3776 1 3.2254602172733664 22.990434523422167 1.072822161265829 0 0 0
669 1 15.152752478276243 0.44877091421536297 11.114506739772203 0 1 0
3077 1 6.419931176037585 21.08743995788836 16.161525924558216 0 0 1
644 1 10.993255596501118 22.64806677421252 0.6786097276430232 0 0 0
2784 1 38.213894026127434 14.069944796736598 -0.05076491824691587 -1 1 0
2305 1 18.059889776961462 20.939716757632866 3.7715617566404473 0 0 1
2776 1 42.152180431553845 11.267068169964356 -0.0725869399429954 0 1 1
679 1 39.74475509096477 18.401104526746842 0.5626256486093715 0 0 0
2780 1 20.66226168295051 21.984850288447483 3.1258597969445785 1 -1 0
1287 1 24.121625495408455 23.08684208085476 2.1206128862704867 0 -1 0
3796 1 26.689889328323208 21.55436686718623 1.7259338967370468 0 0 0
282 1 42.49517074633036 24.530816812448712 7.953322257177808 -1 -1 0
2138 1 20.424714716830408 24.504428416410338 2.1193375414172415 0 0 1
1717 1 39.69637608845392 24.033922621239295 7.670127810080286 -1 -2 1
3819 1 34.85045761801736 4.275934280745048 0.0120875483338303 0 0 0
2586 1 25.291277857326858 16.544942674378166 16.392062141462493 0 1 0
2291 1 43.90671744311585 21.300188549394743 0.6432975033773489 -1 0 1
3480 1 47.813810725815884 13.07011207957056 0.37836191965533295 -1 0 1
1210 1 43.54269001209077 22.660450922994286 3.0989205376584428 0 -1 1
2700 1 30.078041620623175 9.300134600443124 16.03642244867147 -1 0 0
3354 1 0.9162945678092094 2.3697841450413546 4.756469686599483 1 1 0
2132 1 40.5872153671813 23.262274331826823 2.3854308822750765 -1 -1 0
1674 1 11.467000040586914 2.2008317150920553 3.7757295043208874 0 0 1
3677 1 15.289979736665678 0.8352626440431931 4.9122110773423255 1 1 1
1675 1 16.292026048417878 4.7622156346926285 5.364519228917186 0 0 0
2879 1 19.89524589613849 0.02112923802570485 2.1580664566010355 1 0 1
433 1 22.51212386159515 2.1598716919548515 4.902889033767667 0 0 0
3896 1 29.93479332855679 1.5005647010626528 7.768523484827662 -1 1 0
3654 1 32.156020609607836 2.201673058625197 5.382166672383537 1 1 1
2322 1 33.832827300539904 1.975830445965368 3.155358103998913 -1 0 0
2897 1 36.299525446734805 1.2787599881702336 3.8339531673323726 0 1 0
568 1 38.05970436768679 2.1395842341073457 1.6717906716357338 0 0 0
115 1 40.63178985829636 2.13300998987149 2.546489312051954 0 0 0
2597 1 9.649859669847 1.7695380333033062 15.351223873291556 -1 2 0
3611 1 40.788460380832205 8.876601650337896 0.2392883803768837 0 1 1
561 1 2.909968902045871 4.063968052542262 5.56366108089446 0 1 0
1456 1 5.421083258049943 3.0243172810868475 4.888280284547845 -1 0 0
114 1 6.502739973911109 4.9747185265244385 3.5732899716326805 1 -1 1
2797 1 13.550394330659184 6.29079076272742 4.369401116146564 0 1 -1
3458 1 17.5196779119397 7.2647963467941645 4.859408807851564 -1 0 1
1790 1 20.027399641022544 6.483347157177883 4.502810941698462 1 1 1
2127 1 20.02927119855392 3.6599373626189875 4.579894376343763 0 1 0
2834 1 25.834629077619493 3.3884205048246896 4.53846076582356 -1 1 0
2709 1 28.71113960183845 3.990157494332463 4.8442486025920335 0 0 0
1620 1 31.928464127405302 6.4059120692859635 6.216521341308137 0 -1 1
2966 1 31.624718144363225 4.858804884805076 3.865364530236744 0 0 0
1224 1 35.77965580308721 3.2247870328145853 6.809964622868852 0 0 0
727 1 36.94867212986219 7.165904062440701 5.440500818171116 -1 0 0
4 1 39.461729010846014 5.555102225319171 6.613823240909355 -1 0 0
585 1 41.05243105930374 4.215594090995718 4.63765395937964 0 1 1
3634 1 43.97809607118431 4.266943655650209 3.900320832934238 -1 0 0
1637 1 45.7779090321951 4.309601332364474 6.193550181397942 -1 0 1
3657 1 47.876115058025036 5.371405248546008 5.036290247913562 0 1 1
2853 1 1.760467654382389 8.321746110815312 5.2826783811163125 0 1 0
1231 1 7.52349930380718 6.670876821287024 5.939049915991709 0 0 1
1843 1 10.1890115752383 7.003432586123237 5.389573296303809 0 0 1
876 1 11.311813216694132 9.197972773308555 6.238368181623724 0 0 1
428 1 16.76393629757577 8.856019059589649 7.140689650114806 0 1 0
1150 1 21.979910597731518 9.084969066465062 4.789168875646147 1 -1 1
234 1 23.070065882644087 7.126473255615943 3.0265350386048198 1 0 0
3018 1 25.31481195617346 9.132236673340211 4.130505999044613 0 1 0
2927 1 29.03108557348185 10.521297821808934 4.154200393736001 -1 1 0
1652 1 28.88101514029247 6.331780063351162 2.9357432659425546 0 0 1
324 1 33.102978909926236 10.42838470499345 5.490045334728096 0 0 0
3820 1 34.11794490848892 7.841852685212143 5.096281002561683 0 2 0
2501 1 40.3057757885865 8.69660753181858 6.351802158761588 0 0 0
3103 1 47.13428121556662 7.371998937113368 3.5595265391402524 0 1 1
2051 1 47.6284784000659 11.6987023398699 4.0073010179886355 0 0 1
1131 1 0.9468421513322087 9.755888715675653 2.5555498716340197 1 0 0
3874 1 4.332471284338889 9.428692087130905 6.407709239066171 0 0 1
1519 1 6.083527004715293 8.941328402708214 4.468488437739008 1 0 1
3971 1 11.670270017404315 10.842780116942844 3.8614168724213993 0 0 1
1138 1 8.61072349335211 10.052594552512671 5.195118530554449 0 0 0
540 1 15.993867878598461 11.526984294592914 6.819968174674666 -1 0 -1
80 1 20.03706361382768 10.590743221717997 3.305822571604834 0 1 -1
3333 1 26.552674638162905 11.031188112940159 2.181626293218945 -1 0 0
3881 1 26.357812560364426 6.922651567213856 7.915772213961015 -1 1 0
3646 1 23.633241911874887 11.316535444346476 3.721096911047184 0 0 0
3873 1 26.399556914924492 12.660015401781187 6.675034231620037 0 0 0
3946 1 29.812923951496412 15.003304828145595 4.573236617909472 -1 0 0
2147 1 35.69529820354927 12.951366513980929 6.282730908181228 1 0 0
1977 1 37.458106179539115 11.516055141666545 4.627022519012374 0 0 1
3586 1 36.72212488445392 13.277217800142507 2.1635455894361852 0 0 1
2991 1 42.86037134551012 10.14551397351041 6.881166322359388 -1 0 0
1739 1 42.606736834633736 7.647484787504628 4.12311214607212 0 0 0
2967 1 2.887392971962758 11.60667254237913 4.930588787228133 0 1 1
1681 1 0.22816587517059445 12.496301278708572 3.3704040012557472 -1 0 0
2355 1 4.812299131603839 10.808739223189198 2.8976501757938897 1 1 0
1489 1 7.714144289006109 14.608351275789358 4.710482108950949 1 1 1
1125 1 7.233883956428631 12.400838052056137 6.45282592387452 1 0 1
2358 1 11.185950079930603 9.618418030324 1.377700306645497 1 0 -1
2569 1 11.414686116769 13.67524832735017 4.22915327366444 -1 1 0
2103 1 12.794572570577769 14.950957076510422 1.7394165459099924 0 0 1
3527 1 15.515966590037493 15.97004383493401 7.169097632960723 0 1 0
702 1 17.370553285795243 13.816524048965462 5.901385220926708 1 -1 0
1467 1 19.905974824305986 12.273542285811013 5.743147930306419 0 0 0
3973 1 18.866301114750797 13.900522079530191 3.032050709452218 0 1 1
1265 1 22.774216356372282 15.61607490158079 5.735037964638862 0 0 1
333 1 27.271912223447703 13.405710370476584 3.590931438296666 0 0 0
2351 1 30.424192189829995 17.551282502279008 5.457034901362103 0 0 0
3758 1 33.48014287827081 14.156311486245187 4.886881654201179 1 1 1
3581 1 35.35874230302491 15.567065863562508 3.593633396428655 -1 0 1
2841 1 43.30553739106118 12.211976414983905 4.5517792330903735 0 0 0
1706 1 46.20267520676069 14.628392008886967 7.1255219941094206 0 -1 0
1980 1 47.227922057613995 14.639480603927515 4.526953164321694 0 -1 1
1758 1 0.35992630207165854 14.647046218536122 7.338956628586994 0 0 0
2590 1 2.165383468992092 17.559801259239585 4.958344771097317 0 0 0
2745 1 8.95809030193557 17.258666183333226 5.938366080928472 1 0 0
3551 1 10.51775537643387 14.956596839425881 6.514553212582909 -1 1 1
3266 1 15.693025145029367 17.885916844247756 5.4286141738339895 -1 1 1
3008 1 18.52885606941042 18.63383507263452 5.530860895151598 1 0 1
2085 1 21.511289515852773 15.710826079775224 3.527933283391509 0 1 2
855 1 25.737421770160626 15.560183648443436 4.8505150763098746 0 0 -1
723 1 28.420082295304866 18.630667187209134 7.340845062495281 1 0 0
2181 1 30.446808863863836 18.59670390490729 1.8889014605438441 0 1 0
100 1 31.307255385232075 19.79808901774646 8.387299941003016 0 0 -1
1353 1 32.831139256839194 16.64690990991412 6.810084920630966 0 0 0
56 1 34.62496192053496 18.900286378606594 6.260492726597192 1 0 0
11 1 38.48638483495232 18.658563778131775 4.16719920387471 0 0 0
2304 1 44.49025284177833 15.981385571896897 4.125894257607044 0 1 0
374 1 44.05212996102536 19.011888576600313 7.58344883417516 0 0 0
2118 1 48.34085197440204 17.940512263050387 3.060373097682152 0 0 0
287 1 49.45265872609069 18.246775081204838 5.632978654919371 0 0 0
2397 1 -0.04431147455272352 21.215989054615488 5.647774536289402 -1 0 0
579 1 1.396193330468652 20.031376065803865 3.4680725711526694 2 0 1
2939 1 4.240562520113148 20.69493232915534 3.5054375471756116 -1 1 1
956 1 10.015181719304907 19.16060321317502 4.056069751408706 0 0 1
745 1 12.320786935971848 20.505780406717566 3.904877217136285 1 0 0
2718 1 13.85502759390371 19.953219230538142 6.269211621967915 0 0 -1
548 1 24.476434684408435 19.819372920731603 5.357685158824821 1 0 0
3818 1 27.0162653395228 20.470410473711524 6.196744512915525 1 0 1
2534 1 31.27833163013549 19.79725133803702 4.269765733893571 1 0 0
2500 1 35.58304133315116 22.778536547684105 4.554247131764125 -1 1 0
2294 1 37.31524897432 20.573585547890097 5.76672919153842 0 0 0
3031 1 41.06448796613924 19.1572216191081 4.279772813554022 -1 1 1
1971 1 46.56360758507827 19.219196352910483 6.311464822033156 -2 -1 1
1366 1 46.272432841225054 21.707244788962527 3.8346765969509407 0 -1 0
3602 1 47.88508617565523 21.309924600458807 7.242698913479935 -1 1 2
1463 1 2.8211164342223545 24.01279774282644 5.050752361049249 0 0 1
1087 1 0.29968497183585513 24.22927688178448 3.9667937749091244 1 0 0
696 1 5.449525476052408 23.15353693981834 3.4353327357658023 0 -1 0
710 1 6.294747846122053 23.054144835254576 6.114841402630382 2 0 0
681 1 10.656349846647826 22.964198194837778 3.2514730158244487 1 0 -1
2594 1 8.974345605429287 21.98178413362093 5.992466702670064 -1 0 0
2387 1 20.866848307076673 24.61882631602655 13.27483351190073 0 0 0
2641 1 34.59031460867027 4.8508846061698545 2.837556486250198 0 1 1
3153 1 17.05938412605708 23.120586303179028 5.235378968872899 1 1 0
1873 1 23.102368430643793 22.17084265228517 4.524445301976867 0 -1 1
3167 1 7.424452222939186 3.245031503428017 16.256037960388767 0 1 0
3055 1 28.05114473941682 22.205096009757433 4.098016937060508 0 0 1
3371 1 27.227734185408185 24.69665071689367 1.749352731917161 1 0 2
59 1 30.338829822191844 22.118217631969532 2.521235464801965 0 0 1
3215 1 0.3214563783013145 0.4226343634221381 10.507782402024608 -1 1 1
1855 1 33.1189849730836 22.86994284480079 5.7434748013944485 0 -1 2
3240 1 39.05145365665747 22.95416138358962 5.208900586174868 -1 0 1
3719 1 41.79841341550335 21.71210865124391 5.075339091399121 0 0 1
2511 1 48.01446837291522 23.239137722278787 5.478662335008372 0 -1 0
3536 1 15.929816183141043 0.290036152340902 -0.0938397190734369 1 0 1
155 1 5.920129896921621 2.3260391775032234 7.4705853564105755 1 0 -1
2265 1 14.036104892219072 3.8841337812845467 7.052209309793685 0 1 0
523 1 10.570321836399698 0.4601351710157897 8.135381801769936 1 0 0
2130 1 33.08821435302673 3.9537543486298174 15.82484998247065 1 1 0
2310 1 33.696242362475374 23.639977813523522 15.087260483227636 -1 0 0
861 1 20.865640415986505 0.7176173033946733 7.827138728005218 0 -1 0
3026 1 8.40108604298761 17.13230737754933 15.359665934623601 0 1 0
3350 1 26.657222591032497 4.2413218629545035 8.398476670566088 0 0 0
2266 1 9.539219257716995 1.6167431891202009 1.993444001082045 0 1 0
3689 1 28.84821239038908 1.4065596820628372 10.266931350036138 0 1 0
3407 1 33.48959283234167 0.7106159456432765 10.933691936852707 1 0 1
1668 1 36.90562081627769 0.4491223157499141 6.794666011655982 0 0 1
1186 1 35.89876515843079 0.934286915610363 9.575615110549807 1 0 0
1523 1 33.51658376685903 22.97722536120368 0.15529672472917277 0 0 0
3244 1 46.75398095991821 1.8077443970221967 7.4570354116651565 -2 0 1
3844 1 43.908872342067255 1.5886559435249785 8.117160113529696 -1 0 0
1236 1 48.688020326647006 2.260018705349969 9.389213522119391 0 0 0
2536 1 11.085714636751623 19.6161390284033 15.165263823244231 0 0 -1
1009 1 49.78565983892727 4.78897997112284 9.265245523947272 0 0 0
2463 1 3.5067655018078474 3.8686646277857477 8.227852051838205 0 1 0
1118 1 8.401873590767929 2.2582597640332724 8.913974699648593 1 0 0
1166 1 11.29897985308682 4.4179740961254295 5.661382949574205 0 -1 0
1438 1 9.334320941663089 4.8198300827427385 7.888278721517507 0 0 0
1425 1 13.447893391079758 6.321905913913718 8.523217695623181 0 1 1
1608 1 18.207720630951993 3.11943485037371 6.735832157801075 0 0 1
884 1 21.411582005407993 3.642878769630218 7.931897565523787 0 0 1
1549 1 23.883161972897046 4.081385534481512 6.419235621412876 -1 0 0
1363 1 29.203508460550594 4.4004599292295925 7.451760672641459 0 0 0
1416 1 29.226122695875013 7.150068587286607 7.163831652509208 0 0 0
2516 1 33.05505094167317 3.837823111734547 7.626529086388032 1 1 -1
1882 1 35.33096803619581 7.66285753213169 7.9803615444941425 -1 0 0
930 1 40.157531478136335 2.1999159539401254 9.165097896214913 -1 -1 0
3437 1 38.96200075440028 4.735218842275146 9.275416791806984 1 0 1
382 1 42.351348860993426 6.5418733500881885 6.915593826432163 0 0 -1
1152 1 1.0842205177367752 5.911038345532291 7.306283757683037 1 0 0
2799 1 4.238628936229698 6.05263977168495 9.53199462352878 0 0 0
2867 1 2.4044731753950956 8.142930655264822 8.85399292989873 1 1 0
2653 1 6.02660858884601 7.550459820580176 8.145027725974538 1 2 1
1738 1 10.584107011078387 7.0959899039997945 8.869698316067117 0 0 0
1974 1 11.829212986551878 10.189443941770824 8.763066699543828 0 0 0
1502 1 13.950765814832161 8.322662196232189 6.169549322016101 0 1 1
2026 1 15.658364848392239 8.046061636215857 9.533308647700792 0 0 0
419 1 18.68256822236979 9.672621737640046 9.429215437407066 1 1 0
3883 1 22.184927865987596 7.894202412258245 8.047088432745243 0 1 0
3082 1 23.353477491859216 8.584219118788496 10.620485738710872 0 1 0
1097 1 28.260282764184357 7.885315626938027 4.818714672912958 0 0 0
1343 1 32.63754397409795 8.487156576744827 8.322631735972633 0 0 0
1014 1 36.04334207736929 5.211455107691151 8.728548875047942 1 0 0
3908 1 36.26700927718329 9.903427535128392 8.954918070723986 0 0 0
1238 1 45.07323897674996 5.918682614117288 8.299650963844353 -1 0 1
1909 1 49.23206902145945 8.059718352253508 5.852227724474526 0 -1 1
2348 1 48.03164658950857 6.549846979931716 8.13740213044142 0 0 0
1648 1 2.0501932142659594 10.863223598923588 9.029336872738071 1 0 0
1304 1 0.5209512254437291 11.90945136018394 6.805330289012125 0 1 1
3961 1 4.498791704558705 13.382663902404088 6.0616164999418265 0 0 1
1946 1 7.821693602887955 10.650371106633584 10.523481687380558 1 0 1
3671 1 8.765003632349652 9.00571554609179 8.14404781488839 1 1 2
1240 1 11.12084774229985 12.60078411119652 9.743836860887262 1 0 0
2524 1 14.517710162747598 12.565541838268029 8.886334347843095 1 1 0
1785 1 20.71332146595862 10.228732421506452 7.424869809601527 1 0 1
3097 1 24.15587451171479 6.942939108795951 6.245695910030312 -1 0 0
250 1 26.557794161553772 10.395545506018228 8.199679707391965 0 0 0
1601 1 23.56558766669898 13.104690062743773 6.176625910171481 -1 0 0
3326 1 30.471355311467256 11.148025913078444 6.4562782393441625 0 1 1
2286 1 30.459697188009226 12.998251144454505 10.8249089160173 -1 1 0
2395 1 34.21760159269884 11.134203326327414 8.203631341147751 0 1 0
1723 1 38.42372337261847 10.550375323678228 7.356546775526646 0 1 2
4074 1 38.915148609016086 13.088703763807406 8.346250476572493 0 1 1
2510 1 43.629760436152324 12.067459322440993 8.804135722335706 0 1 0
3895 1 45.19848309234993 8.670960199904318 7.272833668238275 -1 0 0
1483 1 46.95543097909986 10.287706439731421 8.419982182421945 -1 0 0
3907 1 48.69990188596692 10.58147100777796 6.277502443059491 -2 2 0
2944 1 2.162663277045101 13.65198439924328 10.61297222019578 2 0 0
2163 1 3.2110738629936906 15.244217031530416 7.5530113963013 0 0 0
1720 1 6.188427622995667 12.990136735157341 10.542014602529978 1 0 1
1692 1 8.933067289464384 13.558828697616248 8.307366145882673 1 0 0
360 1 13.903920594090083 13.69692338956381 5.921645910838448 0 1 1
845 1 12.53303654343955 14.864801847935697 8.621677758052552 0 0 1
4136 1 15.074463856754493 17.435351191117753 9.408863250010508 0 -1 1
2114 1 17.947842622133063 13.876535108120239 9.128507929497495 -1 0 0
1665 1 21.604994493540183 14.507772502291427 9.600882040159377 0 0 0
3440 1 22.368082341453103 12.159406473767973 8.342742047982169 -1 0 1
3300 1 28.52430397443933 13.895901265886808 8.199832792606935 0 1 0
201 1 30.892463213009545 14.016740640328766 6.837253219474895 -1 0 0
1546 1 37.446083337827886 16.359283825283043 5.551705174919692 1 0 1
2539 1 35.68999470429473 15.375281737761947 7.602919206580369 0 1 0
2774 1 39.172234017408 14.306669292543411 5.857412054373471 0 0 0
2899 1 41.57757123164423 14.083729112830454 9.07178998738942 0 1 0
3071 1 43.51601362788888 14.104830765194366 6.638581942892749 0 1 0
3037 1 40.99619769242253 16.09879044886341 6.7418773438237345 -1 0 1
2616 1 46.71019435174024 12.870188481564492 9.433203466631406 -1 1 -1
1993 1 49.515756767654025 13.366526533348724 9.742827701224225 1 0 0
2626 1 0.9977068856940732 19.613990394937467 8.582848260722516 0 1 1
1415 1 6.03292822576435 18.121812547042904 6.086186636824975 0 -1 1
3798 1 3.2655264247716547 17.913546063590516 7.664614724406965 0 1 1
4102 1 7.195046250214942 15.40512889555907 9.49427463553259 1 1 1
4000 1 12.272910698540448 17.554298388890114 9.670986311243057 0 1 1
2734 1 19.531060477281358 18.067609751418324 10.14206709737266 1 0 0
1885 1 16.988356472984947 19.24779177822546 10.469219530494463 0 -1 0
177 1 20.411577205704575 14.974553620522718 7.225637658321523 0 1 0
3414 1 18.311616381010758 16.730904371923696 7.698902984773561 1 0 0
1256 1 26.974191503623917 16.232471801685474 7.249411777499374 0 0 1
237 1 24.953875814974634 16.424761395348916 9.078221970246638 0 0 -1
3825 1 29.300245522809732 15.811933956834531 10.319876398355257 0 0 1
2904 1 37.236974946802704 18.70026742662407 7.882870516608447 -1 1 0
2507 1 42.79732062932072 17.57310999105156 5.592433480042078 0 1 -1
2203 1 46.80866924743704 17.011742293138205 8.05520887403096 -1 1 0
3176 1 44.82526833489274 18.0333123260391 9.985861198985736 -1 0 0
3214 1 49.53040643784627 17.1680464674417 8.437572764167038 0 1 0
3210 1 4.709837523958647 20.631509944032768 6.8617030295025625 0 0 0
2603 1 7.606694728835333 18.296885548761598 8.822980083888197 0 0 0
4118 1 9.704711522939313 19.610559682548427 7.631723923458818 0 1 0
852 1 11.973565240325847 20.08569297317971 8.892267294233962 0 -1 1
1266 1 19.484794881172537 20.53456561574672 7.270917228954828 0 0 1
2513 1 17.39135878822878 20.9818266489097 8.669364627363974 0 0 1
528 1 21.38719578104251 19.29781454173566 8.685806660310154 1 0 0
2217 1 24.885930628373323 20.028842251165322 8.721607657036794 0 0 0
1992 1 23.2315004120337 17.92652909354713 7.38475704777894 -1 -1 1
1290 1 26.674232885342004 22.534484068696454 8.453056470244235 1 0 0
2678 1 27.414417196650177 18.05790119120019 10.19682863921865 0 1 0
2982 1 28.981807674181518 20.846703841509672 9.881984554926735 0 0 0
4053 1 34.475715214807835 21.38846081122786 11.412195226771379 -1 0 1
656 1 33.808412702279796 21.044606637511404 7.535832279135465 0 -1 1
533 1 40.92241060280084 20.29206625267585 8.872244204443904 -1 0 0
3434 1 38.47886427778465 21.56344603889908 8.425166234902143 0 0 1
3034 1 39.83862873258282 17.286806950609346 9.055921142729996 0 1 0
820 1 45.88857966131556 20.643796599983492 10.76807418037926 -1 0 1
2499 1 48.93222700597265 20.572066515797882 9.670435841855824 -1 0 0
69 1 2.228472190169097 22.201427211523868 7.250474783276391 1 0 0
2618 1 1.9768083636872555 23.91096589914383 9.32449341054497 1 1 0
1567 1 10.545321450110201 23.908466299179683 7.466527770139759 0 0 1
376 1 15.428053244394132 21.82931975923854 7.150521777576462 0 1 0
1215 1 13.036718612492106 22.798924704522427 8.598819685121027 0 0 0
1539 1 21.009898266566793 22.5494222021193 6.513407994869245 0 0 0
1935 1 4.307146632674288 23.72193767753039 13.291324772327188 1 0 0
629 1 22.593974178826425 23.577737573699928 8.927485674105789 -1 0 1
1251 1 24.977615052753496 24.623458554499052 7.811723806598704 0 0 1
3289 1 28.568331067148968 23.87003358556552 6.84815920358686 1 1 1
1501 1 30.43400458580513 21.74416819791872 6.019238653860052 1 0 0
1320 1 15.196101261924747 13.105363994785158 15.997709607905481 1 0 0
605 1 16.673058226250916 3.5047524044248117 15.425824564981568 0 -1 0
2829 1 42.990598179639036 21.494380844535492 7.58147455793051 -1 0 0
1143 1 38.85041778840616 20.354536322560563 14.959316779127361 -1 0 1
3484 1 45.68818902973996 22.502621443025564 8.472616957003869 0 0 0
2609 1 43.65480369951014 -0.0017670024337659018 5.827614385648541 0 1 0
1030 1 5.844917947797383 0.49514177685599425 12.86256561735836 1 0 1
4104 1 19.320988750125778 24.6309147146508 6.422449422733354 -1 0 1
2043 1 13.543745846057263 0.9885480153315285 7.2800901796219595 0 0 1
1733 1 26.301859176028604 0.053461511786433935 9.294466013596942 0 1 0
390 1 19.638833899493 1.7676815460278006 10.248725621889594 0 1 1
275 1 23.946911485746167 1.1691331468929118 10.37349286053109 0 0 0
2634 1 24.049310381938003 3.970994784930941 9.629954816781746 0 1 0