LAMMPS data file via write_data, version 29 Oct 2020, timestep = 800000

4175 atoms
1 atom types

-0.6120038780982213 50.612003878095294 xlo xhi
-0.6120038780982213 50.612003878095294 ylo yhi
-0.6120038780982213 50.612003878095294 zlo zhi

Masses

1 18.015

Atoms # atomic

2367 1 30.88886876960697 -0.5829859208549876 12.143833734860415 0 1 0
3907 1 3.087810102011508 2.6612474339815315 0.3557048725646552 0 1 1
2441 1 7.1099464089019255 0.7225456581737679 0.7031819933978325 0 1 0
468 1 13.30032607612794 -0.03202809562941 1.6136324657243661 0 0 0
2270 1 15.892790376830348 0.892763499651031 0.9937298568629542 0 1 0
2597 1 18.297471751512607 0.2589191788469464 2.0941685246532193 0 1 0
1597 1 22.573664163100474 2.6135279510621383 0.5937822370216888 0 0 1
2688 1 24.25068369644132 1.3187172912156462 2.5681475180207065 0 1 0
1786 1 30.907740649103143 -0.4989682532642236 1.1464601413137459 0 0 1
385 1 30.90446524683931 2.007879030828113 -0.48901915760636516 0 0 0
4040 1 35.24760687035514 0.7902428301218525 0.4490114148371389 0 1 1
876 1 38.44462933617293 1.5612148907151653 1.2093292155621558 0 0 0
528 1 15.15852931036746 24.952599583542526 3.878511253556283 0 0 0
1473 1 45.19432653811084 1.7056460391235317 1.3091894729803815 0 0 1
2306 1 42.60544324824204 2.1223771661954345 2.4505958835990898 0 1 0
2063 1 50.311524408730065 1.3547034688125785 1.1615879581979842 0 0 1
214 1 49.296514780279566 22.76343972602107 13.301796307023514 -1 0 0
2053 1 8.688128208293168 2.6916995337559992 0.715383788758525 0 0 1
1855 1 7.286846019072592 4.977760514630023 0.3847464407601964 0 0 1
22 1 13.98653229423904 5.077434207436873 2.483024211164816 0 0 0
1956 1 0.7325602041144088 14.26307220459461 -0.13335068935838346 0 0 1
2160 1 10.857077304164012 24.81864022984044 3.285593246108997 0 0 0
305 1 19.728470571712506 2.473741045271179 1.3455229958906108 0 0 0
625 1 29.155781074941753 3.770373239101893 0.9096327620762346 0 0 0
1766 1 33.546690265200105 5.197315275170794 1.5404192723041188 0 0 1
606 1 19.026041718826352 7.261856922611111 -0.14682507921755694 0 0 0
574 1 38.19383408673903 4.0289348370073705 2.0002680504817976 0 0 0
474 1 36.1905734317315 5.405863307566886 0.48783345941800227 0 0 0
420 1 40.840171280692466 4.336160775665168 1.717126430062331 0 0 0
3898 1 34.81701506292028 0.6305045237572233 3.522464195750345 0 1 1
241 1 44.23678497226871 5.624394034220634 -0.32949416631307343 0 0 0
281 1 46.202628582770735 4.106799331903426 1.353450758179521 0 0 0
312 1 48.52387430491816 2.999206217167542 0.03594359583926998 0 0 0
323 1 0.2910629228886469 6.591945709269266 1.3835752872319789 0 0 0
437 1 5.979514155686938 7.448877714035435 1.3759986513940565 0 0 0
136 1 2.329790297621401 10.605058753640764 1.8106841780348155 0 0 0
2383 1 30.2798738702951 24.404378227512005 11.278723131237216 0 0 0
737 1 1.1213324615324285 12.499003883437874 15.567967588225159 0 0 0
1526 1 24.582077688449967 6.56386871203812 0.7874842128259802 0 0 1
269 1 29.674511638313312 6.573547948868376 1.682206707799395 0 0 0
1348 1 27.233290386049607 7.843744751029128 1.3060725218584488 0 0 1
1768 1 31.8378217026723 6.872953984598109 0.043757115013505654 0 0 1
1802 1 36.11795823905206 8.185456859623656 0.4700368868067639 0 0 1
253 1 38.28264425515895 9.127726283293368 1.6465497441612515 0 0 0
1567 1 44.328215422922554 7.756734142031977 1.4172687081114272 0 0 1
54 1 47.110016271078166 8.111137511969732 1.3858088866258602 0 0 0
475 1 50.351376981650944 9.426410669831721 0.9863706643774823 0 0 0
59 1 4.635344998333771 11.696585217658168 2.952454162648598 0 0 0
1850 1 6.725447586120268 10.350318845913225 1.755391316759232 0 0 1
2283 1 41.024408758882444 0.10119308173381103 1.7874120766677812 0 1 0
616 1 8.948131854755268 11.58474179276237 0.7056269871459959 0 0 0
622 1 10.712316963650043 9.588214831364002 1.7385439336910706 0 0 0
134 1 12.981270543367662 10.48284592754673 -0.16306595983757982 0 0 0
860 1 18.631123284386362 13.305015074867924 15.476841464527691 0 0 0
1758 1 15.826049321764465 9.970353016825399 0.22776413208464152 0 0 1
1532 1 20.09553153145633 11.5345640135564 0.8427555679901488 0 0 1
1057 1 1.3903476040526055 19.29251991698483 16.156472360471877 0 0 0
482 1 23.282116668186028 8.988985426449073 1.1283048267085662 0 0 0
2155 1 15.447862033774271 24.764560037510886 6.894990518430136 0 0 0
534 1 28.245016159766475 9.947375273138142 -0.3978923905797186 0 0 0
2566 1 28.595967712947456 24.464430493335936 1.7641939495578742 0 0 0
90 1 32.18749348741306 11.070189737054559 1.372922448065332 0 0 0
2903 1 5.239938887610187 0.14943239582358303 14.38487078625605 0 1 0
577 1 38.30739601771962 11.793278262228098 1.9453313413122593 0 0 0
519 1 42.75547130845424 9.917798608107887 0.3830862827793051 0 0 0
131 1 47.97507757372906 10.770652510589716 0.6873993731320258 0 0 0
1847 1 1.539024550679331 13.383439981695187 2.639124713220385 0 0 1
68 1 0.40668415191611307 0.2519695434540783 14.480653861911419 1 0 0
62 1 2.942232915033148 15.619244926749317 4.021627922615155 0 0 0
642 1 4.593728118867511 14.142783632906424 1.6157689948645295 0 0 0
1180 1 46.97854087807239 8.629017474804376 16.241732071074388 0 0 0
561 1 9.310367755035744 14.193467830833974 1.4171472746398925 0 0 0
633 1 13.299749758398542 13.136976309414099 0.4985473218093073 0 0 0
626 1 15.883352022850094 13.797379615798896 0.5562571855399392 0 0 0
115 1 21.84915556857845 13.67790302905277 0.7051259999660735 0 0 0
351 1 24.50213171512857 13.181170763898297 1.0971405875007458 0 0 0
2061 1 29.527709220766823 11.811450061600045 1.3786977233732258 0 0 1
570 1 29.836540020472246 14.089724937042893 -0.24001471175553463 0 0 0
1863 1 34.255551037716245 12.55027799182865 -0.014197016220254488 0 0 1
1791 1 32.46662454973405 14.912124120557715 0.5838605453177652 0 0 1
411 1 35.861047245457435 13.468593139787485 1.8886615613344122 0 0 0
339 1 36.89776163883604 15.762660678794308 1.4743767149473719 0 0 0
27 1 39.99646151733744 12.629393241729552 0.006379531448699072 0 0 0
536 1 42.97679471072319 12.6981237746278 1.1750100035601614 0 0 0
50 1 43.68639126351352 15.160231628392117 0.21773953150053382 0 0 0
652 1 47.7100981355074 15.13391917541073 1.7497278641372618 0 0 0
2498 1 -0.4863567567526649 18.34067256063971 2.360587574618491 0 0 0
2066 1 3.2484737060349906 18.098874735900207 0.07023900376414594 0 0 1
1916 1 12.38688860849702 17.81133469809416 0.8568776899684356 0 0 1
1656 1 20.307837264884245 18.419472282918544 2.1614825222446736 0 0 1
11 1 18.232654981447496 17.666367426498415 0.5580215622031297 0 0 0
317 1 21.161327752373488 15.585772248458177 2.6690497862454836 0 0 0
2039 1 25.540408005583984 15.59576306186754 1.5028264812099819 0 0 1
390 1 28.64217863871625 16.266797848455482 0.9054110315654784 0 0 0
181 1 30.23061543837324 18.800818411833454 1.575434306961919 0 0 0
1417 1 32.88104403753466 18.184704867543356 1.1152523570939905 0 0 1
299 1 34.86799064235156 17.473372804494137 3.217488624962662 0 0 0
201 1 39.172932019908586 15.173933893073784 -0.2921399489191836 0 0 0
383 1 40.804172192301316 17.35188245001385 0.5272475340094931 0 0 0
463 1 42.83890279611177 16.918743954237225 2.6878049456168336 0 0 0
120 1 45.816289613861755 17.049127449239748 2.185175270079142 0 0 0
395 1 49.94900618558934 16.161662751057655 0.7101454477292066 0 0 0
1815 1 6.073510550015016 18.23100622158729 0.5710952280822419 0 0 1
458 1 8.777415700311089 21.20170837649297 0.2724981795397081 0 0 0
597 1 6.199842418745163 21.08762199268912 -0.32230415929715617 1 0 0
1431 1 9.541985458532674 18.616931177670146 0.8970835626112599 0 0 1
2228 1 13.902338561857066 20.05031225268175 0.812454532121426 0 0 0
2404 1 13.893215145510847 21.088220750595106 3.4348395732030665 0 0 0
78 1 16.787404422040893 19.925003238702956 0.57113680071739 0 0 0
1889 1 22.066989374493804 20.129397003255086 1.152003272173668 0 0 1
382 1 33.384767602926566 2.8903005966109445 0.08986863419616564 0 0 0
363 1 34.990362003963874 21.350474461355635 0.5063946092898981 0 0 0
555 1 33.68959106004855 22.142427812809903 2.8485190035959516 0 0 0
283 1 36.41876338017011 18.771441982542896 0.6303511443498002 0 0 0
252 1 38.767491446209604 19.17391655262458 1.5548805940128667 0 0 0
675 1 42.31151055232628 19.779806426084598 2.7279281646941373 0 0 0
947 1 3.9785519971574557 8.48100950115136 16.143976317127198 0 0 0
498 1 44.37928166400093 20.82621933724363 1.0812613895602183 0 0 0
2052 1 45.80469237946739 18.822406778680133 -0.06308725141119675 -1 0 1
1935 1 50.20750241626355 20.831778575681223 0.9674311646917193 -1 0 1
2538 1 3.1359947162996016 23.49660528904495 1.0523294519936544 0 0 0
2675 1 9.422317247255629 22.233060563131364 2.7346291928939435 0 0 0
2114 1 13.200742478199881 23.84860779955121 2.6365152002721848 0 0 0
535 1 47.62235509459248 0.06282142505428878 6.79558132034598 0 0 0
2197 1 17.389134622130076 23.344224136472988 2.7232596377816325 0 0 0
2569 1 16.726889293731023 23.846574066671405 0.1866623771435718 0 0 0
2485 1 21.73952528472223 22.885823493654634 1.2347154857143474 0 0 0
230 1 24.324914387064165 24.32221856799034 0.8792242612406216 0 0 0
1632 1 26.48350072095811 22.694841962209264 1.244213496601444 0 0 1
1832 1 48.76288933441796 -0.5651485100088394 2.1945925552238883 0 0 1
452 1 30.77051373572705 23.412244680504063 0.5541866458141695 0 0 0
2082 1 1.4880521291630648 0.49015374765368414 -0.5960645636320804 1 0 1
3977 1 44.21542443524081 23.751558876936837 0.4363975893401306 0 0 1
284 1 48.38788524679686 22.11812920944696 3.0463277246638967 -1 0 0
45 1 2.357837337268518 1.0033131324429125 4.260523674026213 0 0 0
280 1 4.392661724382303 2.146870221715756 2.911989831625867 0 0 0
73 1 6.014939276117669 0.019723719966177278 2.9691783359434702 1 0 0
1543 1 11.326838903813192 0.8110938758672954 3.405512917873967 0 0 1
4097 1 13.389282890893462 1.4757921008831003 5.095422853245425 0 1 1
2687 1 18.834741084580884 0.0872155290779717 4.880804330845605 0 1 0
3960 1 26.96841502711851 0.690010577265493 3.274679939462356 0 1 1
2161 1 2.7965480623126053 -0.4502548787633742 13.471028328437965 0 1 0
4109 1 31.89441631475178 -0.051439303110956014 3.6328048933221524 0 1 1
2016 1 14.69770033668203 5.538900800920398 -0.04673052388142884 0 0 1
1939 1 46.55845557329699 0.24926096312917578 3.2199283416719586 0 0 1
255 1 0.10848833492950949 5.2973813988349345 3.9043708709454634 1 0 0
496 1 5.454488609165259 4.176725690830288 4.388085248477474 0 0 0
174 1 7.933824640907002 3.990662886488054 5.1534988729666615 1 0 0
219 1 9.68066491143287 3.003524082976052 3.227136555237202 0 0 0
3875 1 11.268990881283207 5.403813108348179 3.2066796387551646 0 1 1
55 1 11.350323504973979 6.164001992520024 6.007461053565229 0 0 0
610 1 15.29665344708946 2.9186024470262844 3.626864202421788 0 0 0
690 1 16.705610172741377 4.276757011954776 5.687048158142553 0 0 0
2578 1 18.9609668520004 2.8787958651577363 5.248265774877783 0 1 0
595 1 20.267761448924865 4.4253303766264365 3.218461682578948 0 0 0
1979 1 23.062863474299107 4.796549277265866 2.7861529972739523 0 0 1
67 1 24.379754861944228 3.2357908901886696 4.6209762962469805 0 0 0
705 1 26.731832734526616 4.102796072178071 5.518931343179412 0 0 0
258 1 28.45672146206671 3.0238446764010876 3.5952955073687063 0 0 0
674 1 30.99949491481105 2.4236084704296563 4.397563237696204 0 0 0
21 1 32.6599294793349 4.607162253199691 4.15450055287023 0 0 0
2068 1 34.824148796241104 3.073565552947963 4.831357304894716 0 0 1
434 1 37.054685411943176 4.355527556320778 4.458913015306747 0 0 0
314 1 43.336524009979314 2.996355976296665 5.12833063458299 0 0 0
290 1 47.42110420704174 4.680212474314816 3.651419550716377 0 0 0
502 1 45.118820427589995 4.993942606029229 5.355671548841823 -1 0 0
464 1 48.27593694033599 2.258193396163368 4.518839083056296 0 0 0
222 1 -0.11276967619016198 2.467089368575945 3.78786003614922 1 0 0
3930 1 2.818203710958108 7.97620987239425 1.6538512960521503 0 0 1
12 1 4.4375518246101135 6.843540654129166 4.131667475285234 0 0 0
32 1 5.881076679081236 8.32279680140228 6.106563459030518 0 0 0
2097 1 8.039321326992766 8.143311781812452 3.5504994523534705 0 0 1
1555 1 9.514374006824257 6.806008621868512 1.4079699366488856 0 0 1
429 1 12.722995220596896 8.433253484629665 5.469866190089907 0 0 0
1429 1 14.798001819637005 7.612198962541354 3.613611440715057 0 0 1
94 1 16.92129248449071 6.571278341762377 4.644707974458906 0 0 0
113 1 19.160270854269267 6.674299960870896 2.4458952164233305 0 0 0
155 1 22.04615610674079 7.538310271738302 3.19684996113543 0 0 0
1716 1 26.578397685457812 9.306222686990713 3.6084979224394518 0 0 1
556 1 24.993907617576255 6.983922292678871 4.092735614437848 0 0 0
378 1 28.640187434817783 8.861249631771404 5.550157915183606 0 0 0
646 1 30.359392847566337 7.651965691711428 3.87507716625821 0 0 0
660 1 32.020491357111034 6.758546330603199 5.944889256178745 0 0 0
600 1 34.2730727640614 8.422492049218917 6.677411475304914 0 0 0
436 1 36.47757960747062 7.027849802255995 4.856464452759561 0 0 0
270 1 38.99117704167893 7.8861397149265 4.1397524186679275 0 0 0
156 1 40.9811988422167 6.20292451575774 3.7925782727402675 0 0 0
372 1 43.544019552474374 6.915914457721355 4.031565527124764 0 0 0
226 1 48.781047760950955 6.869746658934088 2.964766507177424 0 0 0
659 1 48.43280502999432 8.76982948247099 4.884231176195979 0 0 0
579 1 -0.27274875455629244 9.768768817172623 3.7428669793718106 1 0 0
398 1 3.7628059909024048 11.778397670719237 5.685124817588253 0 0 0
87 1 10.385503839358636 9.98938349199051 4.732216114148121 0 0 0
476 1 16.32292635269362 9.746679707879945 2.7792673925070934 0 0 0
251 1 18.95399745455999 10.774241279613687 3.345021075173544 0 0 0
1724 1 23.820408047594274 10.259750875760407 3.8892882081423528 0 0 1
1 1 29.36030487519701 11.663397067910699 5.420071005111462 0 0 0
2041 1 32.39942290467135 9.334702829525424 3.60213975933158 0 0 1
203 1 32.32244030936383 11.57201249201895 5.371498658656635 0 0 0
503 1 34.58294888650319 7.7414933320362564 2.8056284055655687 0 0 0
43 1 39.89357321025284 12.34750826609733 4.142064063364674 0 0 0
545 1 44.652288966829204 11.362414041860701 4.996984714186691 0 0 0
409 1 47.05111330260826 10.823064023199183 3.5541088980030917 -1 0 0
1487 1 -0.3550015840163444 12.512092145460633 4.518353994793976 1 0 1
601 1 1.1242640333314455 15.228216340485359 6.174509780219012 0 0 0
575 1 7.125393983315846 14.856174009447837 2.8292289186631336 1 0 0
20 1 6.902111693493618 13.782715272125971 5.406230040047649 1 0 0
634 1 11.836177088551253 14.042258757851616 2.3701819333712293 0 0 0
524 1 12.169778498243314 12.225273300985492 4.357539826025352 0 0 0
615 1 14.961896488696617 11.821108134621324 4.125709321874958 0 0 0
19 1 15.755445482909476 14.516338333830802 3.333773041536965 0 0 0
2411 1 18.670999726890216 12.761209233637848 5.53480788484808 0 0 0
239 1 18.58541980617521 14.944717435364026 3.7978305189025656 0 0 0
1858 1 23.151549086163506 14.520658966914965 4.266771374640656 0 0 1
135 1 24.99672550482794 12.525322034850891 3.6557999980091322 0 0 0
557 1 27.825826333114428 12.540694543537509 3.332758667420793 0 0 0
629 1 28.313430033756735 15.167076056262244 3.5687633414527093 0 0 0
336 1 30.612620869785303 15.295235467012622 4.949829675072619 0 0 0
1853 1 34.673268348591456 13.237794875670028 4.438815063005428 0 0 1
128 1 33.16775505367996 15.359332543625733 3.450837664529021 0 0 0
698 1 38.06424489250985 14.529820742968008 4.37533139961559 0 0 0
381 1 42.66758539670844 13.038955821792202 3.819200708490647 0 0 0
332 1 48.156559601375974 13.384980206701249 3.862978959152972 0 0 0
2311 1 2.150843591110531 17.779629722784982 2.6539222686808324 0 0 0
2413 1 7.435018364022785 17.600111213103055 3.123700216643422 0 0 0
2140 1 5.8813274289858 18.64730299135539 5.342841349194347 1 0 0
1159 1 13.282650605576162 16.147724597733415 2.8717098553349247 0 0 0
376 1 13.07074715005804 16.651801788984745 5.683347204164552 0 0 0
153 1 18.709134070624486 16.9060375517875 5.62522155100468 0 0 0
611 1 24.1909459229201 16.946532368148528 3.6334693747553786 0 0 0
177 1 26.580079338414208 16.66319716713411 5.076282539053741 0 0 0
130 1 31.338942147196992 17.75202352297925 5.7269352847523685 0 0 0
2573 1 33.96105567825963 17.897763729336315 6.0777949494345735 0 0 0
568 1 37.84058203286717 17.767775393057416 3.872410056781984 0 0 0
2257 1 39.7497450182004 16.52444192680229 5.955009957614517 0 0 0
108 1 42.15113210550358 15.865150182402928 4.86773172146067 0 0 0
4158 1 3.5906433050710866 19.7488026358153 4.092609982703416 0 0 1
2246 1 4.85927556604155 21.607530707763075 2.1528207549448957 1 0 0
1806 1 9.84168989243101 18.879967587062016 4.616633623813592 0 0 1
53 1 11.165578347566287 21.118118553284503 4.478384173270555 0 0 0
548 1 16.83311188181346 20.897360564016797 3.2113796507925967 0 0 0
2071 1 19.00987913957676 19.44997397118317 4.394508575316563 0 0 1
1640 1 20.29617256525893 21.628811261652032 5.703166750865521 0 0 1
3725 1 24.288941400434823 19.106365638962203 1.801041915905929 0 0 1
758 1 25.604139250120937 21.152831017027612 3.545841909887761 0 0 0
669 1 27.148520159051067 19.329474717021125 4.945118324422129 0 0 0
138 1 30.12565430688946 19.68404874613343 4.242207511473791 0 0 0
2265 1 34.502708969095124 20.707923503640195 4.854335168773394 0 0 0
10 1 37.435713609379434 20.440340569941398 4.718511363366903 0 0 0
2491 1 39.64703865352978 21.950974421190175 3.0517887560958954 0 0 0
2728 1 46.46872481049916 18.469940387407416 4.575005037016516 -1 0 0
2591 1 45.40577144031149 21.077357464001327 3.64601847306702 -1 0 0
500 1 49.19425870258408 18.799847755323693 4.399037342279772 0 0 0
2141 1 50.472040699214595 21.14979253598813 5.668106422172524 0 0 0
2348 1 -0.4277564027276507 23.670297637883742 3.8694627820596432 1 0 0
520 1 2.456592688549679 23.34518323273325 4.126540027029006 0 0 0
547 1 6.963827914745809 22.6922448762586 3.9575782822703154 0 0 0
2335 1 48.98341722339907 24.628113767223176 15.359568951995234 0 0 0
567 1 36.818503145853526 1.3544193515503058 15.715950809361875 0 0 0
140 1 44.293884341321764 22.40215755959892 13.925991765309087 0 0 0
2633 1 20.421684794783964 23.24322291839311 3.538491331879764 0 0 0
188 1 24.81907973645069 23.120338899641922 5.530230680706513 0 0 0
266 1 30.99615865433024 22.112730184325834 3.360814064142852 0 0 0
2099 1 31.181528845540804 24.292316297298168 5.0458034546330515 0 0 1
1888 1 25.247999547366994 10.675631515979688 -0.007451605885961721 0 0 1
2217 1 34.98779509854952 24.310159767553376 3.8673144898999565 0 0 0
1831 1 37.70241621770112 23.564490661375586 4.492583655351039 0 0 1
2673 1 41.707500141747765 24.167222206142043 3.404630297898697 0 0 0
681 1 42.680924681131486 21.659446703408022 4.750642858983 0 0 0
402 1 46.22706280624392 23.9540703321143 3.732129071003129 0 0 0
289 1 2.5301806536872027 1.8328317317334104 6.929858641377873 0 0 0
1865 1 39.38191033799559 21.936124061775118 0.09094401648902461 0 0 1
2425 1 8.229804984258212 2.095631891195684 7.297546565051204 0 1 0
467 1 29.785535811802312 17.189951779966282 15.883727052977875 0 0 0
2332 1 17.76603639872884 0.1403668589437227 9.310727089774524 0 1 0
540 1 15.928146294859673 2.2340648481141567 9.747463091581857 0 0 0
396 1 22.819377159303794 1.9834247821558808 6.330403726854575 0 0 0
1695 1 24.779793333418862 1.0409125909865555 7.9767463972624775 0 0 1
2752 1 27.963782735866516 1.9729215744357318 7.462645417264628 0 1 0
2379 1 30.255798120234534 2.820211629758988 6.958127749378976 0 1 0
433 1 32.1568666729232 1.5893092587973312 8.179933370197894 0 0 0
1972 1 34.75816568403287 2.5090318958038758 7.6093556707790935 0 0 1
393 1 36.64229148797163 0.6917612718377733 8.579219940637971 0 0 0
1775 1 38.626820668967255 1.3432066744298472 6.785173309441885 0 0 1
2568 1 40.96676584962237 1.120980926324803 8.30905712794394 0 1 0
699 1 43.53966896228362 1.3275588765225228 7.216821022532398 0 0 0
1490 1 1.8611353135408808 5.067727521425323 -0.217395075449915 1 0 1
147 1 45.65355216585167 0.7610982714965557 8.8210756578333 0 0 0
61 1 9.2753099730078 -0.06840495668734348 8.925438196302096 0 0 0
353 1 48.06064162869347 3.0050282093626643 7.156540173278866 0 0 0
525 1 0.6598658797815162 6.138497708074008 6.770525222868113 1 0 0
2178 1 0.05685858286958245 3.0674976502880744 6.685252276936802 1 1 0
657 1 4.416822100318504 3.8996239146643523 7.013309847733591 0 0 0
2730 1 6.2807498068181635 3.4250174950153625 8.978913886656118 0 1 0
477 1 8.376912699539519 6.524061221535439 5.890566599107766 0 0 0
3975 1 12.774797371955263 3.729642231087655 6.934605076669604 0 1 1
670 1 15.461965293844827 4.3499946676770955 8.204316580516812 0 0 0
324 1 20.527871625960074 3.298089418478865 7.519401419152066 0 0 0
537 1 21.377369902136344 6.034045074866555 7.840323093005489 0 0 0
495 1 30.26375795980291 5.685025754719361 7.56312128017505 0 0 0
338 1 37.45813664955336 5.316363380874996 8.537012308845258 0 0 0
348 1 41.39982881828534 4.765760331465715 6.084667556750383 0 0 0
581 1 38.63079862751596 4.198083238445921 6.3968934910190836 0 0 0
346 1 44.178544391899706 5.711470385330608 9.492664966894857 0 0 0
322 1 46.365723601422665 5.224416591462509 7.774277938291052 0 0 0
505 1 1.6136068611216108 7.857834623800693 4.444117211673692 1 0 0
213 1 2.8322516670992357 5.393380209263185 8.552652771753204 0 0 0
227 1 4.682115135963792 7.263424588205421 8.202360657059298 0 0 0
400 1 8.947647088009228 7.1829825921086945 8.836284097845175 0 0 0
526 1 9.196811002789705 9.765985560443067 9.512326400591004 0 0 0
1819 1 13.359146197884254 8.990228872700639 8.262057096105783 0 0 1
282 1 13.325220867108184 6.408114975716205 8.81965196720307 0 0 0
48 1 18.076569543710818 8.216966050072985 6.56981295096314 0 0 0
558 1 19.068647701177543 7.0622393794704905 8.92315737725706 0 0 0
493 1 23.54300475011055 7.4211811587251635 6.563737695740663 0 0 0
599 1 25.655725482103897 7.613499369853754 8.53540513672146 0 0 0
419 1 27.726614037576244 6.5732316935141055 7.034460265281218 0 0 0
2653 1 36.16507926221629 7.904956217961383 8.382378993243044 0 1 0
1797 1 41.84043166803232 6.527718992713291 8.324255558850528 0 0 1
361 1 41.9736267612908 9.095063797479403 7.416027096711499 0 0 0
425 1 46.9195670853311 8.127284908528662 7.513231607765462 0 0 0
514 1 49.76637701801701 7.587601266083171 7.79096401816064 0 0 0
98 1 0.016951029290172448 9.925389194126003 7.778493646001321 1 0 0
854 1 2.7920572519623095 9.443955235843317 6.553668201285559 1 0 0
330 1 6.355457939346073 11.062536994101515 6.566036174063964 0 0 0
88 1 5.150208543549162 11.563729779893995 9.121708440626241 0 0 0
195 1 9.066573421209325 10.954555593133877 6.710683224773996 0 0 0
439 1 16.026396079767473 9.544811344158855 7.83993055912604 0 0 0
459 1 16.24499942026909 11.983863754015907 6.601404118564845 0 0 0
143 1 20.331652522076553 8.901681201383044 4.982082881156357 0 0 0
1870 1 23.27498562191489 9.33163308656457 9.30697553359858 0 0 1
423 1 22.52027450121983 9.99768693415726 6.441971531404228 0 0 0
662 1 27.814626439935555 9.217109664722022 9.964924203705241 0 0 0
119 1 33.63360440471707 11.008691254818523 7.801221728393571 0 0 0
101 1 36.22978941832016 11.93095336849124 8.506413788514486 0 0 0
470 1 37.850758979132 10.006167417357256 7.830474950758621 0 0 0
1222 1 39.9042843846964 9.959622917704303 5.869397017865986 0 0 0
158 1 44.441322604125034 8.902190424595338 6.123499865426162 0 0 0
666 1 47.26123412047734 10.803888490077279 8.917641731498001 0 0 0
631 1 49.619834081532446 12.18314810851492 8.529199642183075 0 0 0
2325 1 1.3529099654944428 12.47046405031099 6.999595586028311 0 0 0
263 1 3.215643333866613 13.779661800766565 8.72435001180104 0 0 0
301 1 4.50519225186625 14.67343715773318 6.63976729473132 0 0 0
1147 1 10.217686298188307 13.230642037027318 7.917867124492092 0 0 0
186 1 8.718827338854824 15.189946046180332 7.056578638321288 0 0 0
542 1 12.558933727326496 13.899875876436735 6.665269647113848 0 0 0
49 1 14.993035376847468 14.021245311607014 8.099805088410841 0 0 0
66 1 22.41839725923115 14.427196909067751 7.018817129870462 0 0 0
234 1 20.934573677170754 12.284020819544136 7.101663085575261 0 0 0
126 1 26.128037643452707 11.945240543551911 8.174753597050024 0 0 0
410 1 24.695890887262205 14.447099265577643 8.548414304146629 0 0 0
1538 1 29.1141282952486 11.694627261564653 8.536375251217992 0 0 1
1501 1 30.465655474218494 13.873894137339427 7.23962900067101 0 0 1
713 1 32.79066170476054 13.882323047632603 8.792635226691964 0 0 0
488 1 36.25793317493842 13.940515261999126 6.66332405739524 0 0 0
538 1 38.939569490272156 15.028428374989696 8.631988257740117 0 0 0
562 1 43.1615926386137 15.66701473074227 9.374472981858876 0 0 0
608 1 45.403441413094136 12.679597139280744 9.205143355365843 0 0 0
2894 1 45.82104584376759 13.488827880343372 6.736887074437125 0 1 0
175 1 48.7381093625572 14.024784490446304 6.669122718253596 0 0 0
818 1 1.015441674233413 18.63282730748898 7.085777847491837 1 0 0
651 1 2.4880044977087517 16.67567740754429 8.392359108585495 0 0 0
2632 1 4.936466052311203 17.757384046574547 7.91568492279473 0 0 0
1258 1 6.990285346012054 16.14203524947056 9.163461220227887 0 0 0
127 1 10.58579875718268 17.04190808275044 6.72601595178987 0 0 0
697 1 10.579280425653204 18.778826306229167 9.046501419028774 0 0 0
238 1 14.539070884471357 18.250535820165346 7.318119468742944 0 0 0
333 1 13.09182507478251 17.658817191361614 9.641604840890098 0 0 0
512 1 16.425258729595164 16.34429374963809 7.3653172139558345 0 0 0
1618 1 20.429935072624716 17.784859525956044 9.073954824312517 0 0 1
1005 1 21.269750736972476 16.930651492184104 6.620484529195 0 0 0
303 1 26.61926094667642 16.055727631089123 7.9093738148761705 0 0 0
605 1 29.102396329810986 15.618644764842124 8.752822436911469 0 0 0
168 1 30.340432880446834 18.05542739341661 8.165486312844537 0 0 0
438 1 34.8484462039675 15.675247050499426 8.069070874245046 0 0 0
231 1 36.951397957540784 16.661262174149094 9.918896867678596 0 0 0
3831 1 40.85285509671074 16.880315396122388 9.676853461789674 0 0 1
613 1 44.168548270564635 15.762383455205324 6.893846847231906 0 0 0
30 1 45.93858402039561 17.760898256555354 7.059577477920677 0 0 0
544 1 50.087732510881025 17.091448710672303 6.151549968103106 -1 0 0
224 1 48.10880547353952 16.589883227602353 8.302717115281903 0 0 0
388 1 2.3602736422800077 20.845697034898027 6.06628637329309 1 0 0
2470 1 7.795411983203447 20.606408525862097 5.816666183444477 0 0 0
2261 1 10.235245067911864 21.423745060410322 9.307315469169284 0 0 0
2427 1 13.83821454487813 22.40002769257912 7.470290645575204 0 0 0
668 1 15.438928892904098 20.442038543022747 6.252493333469036 0 0 0
543 1 20.076920467886943 20.280564178902246 9.382302351415555 0 0 0
3086 1 18.07715886947567 21.12135451825708 7.329652525775708 0 0 0
799 1 23.828638514534063 18.453920220235638 6.139403979907731 0 0 0
192 1 25.349744905054994 18.557458140299303 8.650285519657649 0 0 0
273 1 27.902305607253844 19.576027989083233 7.576469417214396 0 0 0
277 1 33.95606664148509 19.379660638846318 8.23824581636705 0 0 0
91 1 36.656198007986 19.238130299568507 8.78085431716514 0 0 0
471 1 38.52544586908422 20.571315575308358 7.460912819979338 0 0 0
377 1 40.70999310002024 18.78433390929052 7.503598183783051 -1 0 0
2410 1 42.61512810777773 20.869519308741886 7.434002984487821 0 0 0
636 1 45.04524848694551 19.824732982270778 8.816136365992376 0 0 0
2619 1 49.65888582192737 21.698772157508024 8.160020531132865 -1 0 0
320 1 3.977754790013311 21.984821531060422 8.504039960181148 1 0 0
572 1 8.281058759490366 3.839546670787345 15.89864082241374 0 0 0
2520 1 7.326001053235378 21.520646144577743 8.59070902562634 0 0 0
2490 1 7.350347206047135 24.25836595639658 8.974098194278291 0 0 0
656 1 10.92629398484663 22.44193784930973 6.908344732070861 0 0 0
2158 1 12.866016716473961 22.398722755057094 10.048540889153852 0 0 0
2800 1 17.682988066341334 23.81989568495647 8.302088009340151 0 0 0
686 1 17.610757086446714 11.92992661031117 -0.47494505247403684 0 0 0
4081 1 23.054920901904328 21.397301490621203 6.722775917163489 0 0 1
225 1 22.538830076673626 21.542940193381586 9.35079998263111 0 0 0
645 1 27.570044471220374 24.08263732555934 6.458073930017137 0 0 0
2290 1 28.56990195113988 21.987224380258947 8.20251513997677 0 0 0
2137 1 31.00132514229189 23.14205353536744 7.758958703326979 0 0 0
137 1 33.49610496036292 21.84558612276668 7.38688677330119 0 0 0
2761 1 35.14938614170213 23.1314695091383 9.07724069903533 0 0 0
694 1 37.38316621410948 23.396848250681174 7.58620062522777 0 0 0
2451 1 40.84884973763817 22.390755942305955 9.115383719693535 0 0 0
647 1 44.45192407620467 23.562242256274146 7.943179669047826 -1 0 0
2258 1 46.842168783538824 21.993218139388954 9.097142236334482 0 0 0
1158 1 12.481079544531308 2.4512544387179567 16.05549300692523 0 0 0
2208 1 50.47300609351423 24.654636496822118 9.173879815997033 0 0 0
326 1 3.080869303451166 0.9373483592921148 10.987785407545731 0 0 0
92 1 5.324790697994111 2.500322977016303 11.280501719922981 0 0 0
2483 1 6.927099769156716 0.43320836690004794 12.2706647972122 0 1 0
687 1 10.992168740846543 1.4407246485802716 10.348227395640441 0 0 0
36 1 13.551501082476861 0.6911551722996097 10.162545698998402 0 0 0
465 1 19.802060775072274 1.6371660422129755 9.804184457751736 0 0 0
2366 1 22.29991828989228 0.14897582464800274 10.470942064106753 0 1 0
2182 1 24.331960298261674 2.2993916566283086 10.959308060294774 0 1 0
2540 1 14.609395437789521 11.036189542828426 15.684302339807417 0 0 0
461 1 27.20863047618647 1.9448006897288765 10.288689215674635 0 0 0
354 1 32.4521246267527 1.4990400127003487 11.183687711364474 0 0 0
3140 1 34.66904041407172 0.977377977269317 12.695385407426036 0 1 0
202 1 36.88172706914288 1.5914999565266297 11.074145182113126 0 0 0
696 1 39.518400471151786 1.827503865298803 12.275464571148765 0 0 0
2505 1 44.238116800447315 0.6638100898618231 12.484723662345099 0 1 0
35 1 46.414543063030735 2.9904935699853965 10.199066051796814 0 0 0
149 1 49.21054669722978 0.9083965630795945 9.309828485854007 -1 0 0
1344 1 0.9163591648604186 2.6329878128301134 11.613667288087237 0 0 0
619 1 2.2803755408272472 5.2200440095710325 11.385717873381507 0 0 0