
# Create simulation box of size 50 x 50 x 50 Angstrom
#
lattice	            sc 1
Lattice spacing in x,y,z = 1.0000000 1.0000000 1.0000000
region 	            all block 0 50 0 50 0 50 units box
create_box          1 all
Created orthogonal box = (0.0000000 0.0000000 0.0000000) to (50.000000 50.000000 50.000000)
  1 by 2 by 3 MPI processor grid

# fill box with 4175 randomly distributed atoms
#
create_atoms        1 random 4175 63782 all
Created 4175 atoms
  create_atoms CPU = 0.001 seconds
mass                1 18.015

# Define potential
#
pair_style          sw
pair_coeff          * * ML_mW.sw mW
Reading sw potential file ML_mW.sw with DATE: 2019-02-27

# Run minimization
#
minimize            1.0e-8 1.0e-8 10000 1000
WARNING: Using 'neigh_modify every 1 delay 0 check yes' setting during minimization (../min.cpp:187)
Neighbor list info ...
  update every 1 steps, delay 0 steps, check yes
  max neighbors/atom: 2000, page size: 100000
  master list distance cutoff = 6.0032907
  ghost atom cutoff = 6.0032907
  binsize = 3.0016454, bins = 17 17 17
  1 neighbor lists, perpetual/occasional/extra = 1 0 0
  (1) pair sw, perpetual
      attributes: full, newton on
      pair build: full/bin/atomonly
      stencil: full/bin/3d
      bin: standard
Per MPI rank memory allocation (min/avg/max) = 4.255 | 4.258 | 4.261 Mbytes
Step Temp E_pair E_mol TotEng Press 
       0            0    7792709.3            0    7792709.3    5898794.3 
     630            0   -45180.336            0   -45180.336   -154.07449 
Loop time of 1.14434 on 6 procs for 630 steps with 4175 atoms

99.3% CPU use with 6 MPI tasks x no OpenMP threads

Minimization stats:
  Stopping criterion = max force evaluations
  Energy initial, next-to-last, final = 
      7792709.32924461  -45180.0188663597   -45180.336116598
  Force two-norm initial, final = 2.0191930e+08 4.9721331
  Force max component initial, final = 1.0948746e+08 0.73126211
  Final line search alpha, max atom move = 0.053306038 0.038980685
  Iterations, force evaluations = 630 1000

MPI task timing breakdown:
Section |  min time  |  avg time  |  max time  |%varavg| %total
---------------------------------------------------------------
Pair    | 0.87366    | 0.9856     | 1.0619     |   6.2 | 86.13
Neigh   | 0.023809   | 0.024551   | 0.025355   |   0.3 |  2.15
Comm    | 0.037381   | 0.11423    | 0.22706    |  18.5 |  9.98
Output  | 0          | 0          | 0          |   0.0 |  0.00
Modify  | 0          | 0          | 0          |   0.0 |  0.00
Other   |            | 0.01997    |            |       |  1.74

Nlocal:        695.833 ave         704 max         685 min
Histogram: 1 1 0 0 1 0 0 1 0 2
Nghost:        1494.17 ave        1515 max        1468 min
Histogram: 1 1 0 0 0 0 1 1 1 1
Neighs:        0.00000 ave           0 max           0 min
Histogram: 6 0 0 0 0 0 0 0 0 0
FullNghs:      19997.0 ave       20462 max       19320 min
Histogram: 1 1 0 0 0 0 0 2 0 2

Total # of neighbors = 119982
Ave neighs/atom = 28.738204
Neighbor list builds = 26
Dangerous builds = 0

# Add velocity/set timestep
#
velocity            all create ${TEMP} 120598 rot yes dist gaussian
velocity            all create 210 120598 rot yes dist gaussian
timestep            5.0

# Define output
#
compute	            1 all msd
thermo	            100
thermo_style        custom step temp press vol etotal ke pe c_1[4] density

# Neighbor lists
#
neigh_modify        delay 0 every 1 check yes

# Set fixes
#
fix                 1 all momentum 10 linear 1 1 1 rescale
fix                 2 all nve
fix                 3 all temp/csvr ${TEMP} ${TEMP} 500.0 928347
fix                 3 all temp/csvr 210 ${TEMP} 500.0 928347
fix                 3 all temp/csvr 210 210 500.0 928347
fix                 4 all press/berendsen iso ${PRES} ${PRES} 1000.0 modulus 20000
fix                 4 all press/berendsen iso 1 ${PRES} 1000.0 modulus 20000
fix                 4 all press/berendsen iso 1 1 1000.0 modulus 20000

# Run 0.5 ns equilibration
#
dump                1 all custom 1000 eq.${NAME}.dump id type x y z vx vy vz
dump                1 all custom 1000 eq.liquid_density_MLmW.dump id type x y z vx vy vz
run                 100000
Per MPI rank memory allocation (min/avg/max) = 3.506 | 3.508 | 3.511 Mbytes
Step Temp Press Volume TotEng KinEng PotEng c_1[4] Density 
     630          210    801.42152       125000   -42567.537    2612.7992   -45180.336 2.7295415e-33   0.99914793 
     700    134.20818   -10.695862    125460.58   -41765.712     1669.805   -43435.517   0.24260996   0.99547998 
     800    164.53727   -133.17439    125546.67    -41042.05    2047.1564   -43089.206   0.56278762   0.99479735 
     900    183.09398    36.620529    125242.83   -40637.073    2278.0372    -42915.11   0.93719818   0.99721069 
    1000    192.87488   -34.007543    125465.63   -40367.648    2399.7301   -42767.378    1.3102964   0.99543989 
    1100    200.13418     1.246633    125490.82   -40204.407    2490.0497   -42694.457    1.6896696   0.99524004 
    1200    205.06888    44.803794    125442.34   -40248.093    2551.4467    -42799.54    2.0752018   0.99562469 
    1300    204.59977    43.827849    125433.28   -40247.226    2545.6101   -42792.837    2.4223152   0.99569663 
    1400       207.82    114.67498    125493.33   -40277.571    2585.6759   -42863.247    2.7717094   0.99522017 
    1500    204.59347    -67.93813    125585.36   -40241.657    2545.5317   -42787.188    3.1372912   0.99449086 
    1600    210.89458    34.902518    125959.86   -40172.024    2623.9296   -42795.954     3.464268   0.99153409 
    1700    207.54873   -60.335517    125922.37   -40219.531    2582.3008   -42801.832    3.7473819   0.99182929 
    1800    203.91876    35.622079    125957.03   -40304.964    2537.1371   -42842.101    4.0434847   0.99155634 
    1900    208.81434    233.08341    125989.44   -40300.186    2598.0474   -42898.233    4.3933451   0.99130124 
    2000     211.6439    74.064566    126174.88   -40262.619    2633.2524   -42895.872    4.6310226   0.98984436 
    2100    214.40414    158.46479    126299.06   -40220.102    2667.5952   -42887.697    4.9499396   0.98887109 
    2200    214.02676   -43.238809    126436.85   -40266.201    2662.8998   -42929.101    5.2070247   0.98779341 
    2300    213.65709    175.19779     126424.2   -40262.799    2658.3004   -42921.099    5.4330011   0.98789227 
    2400    209.54429   -118.10571    126558.01   -40298.332    2607.1293   -42905.461    5.6829488   0.98684776 
    2500    212.86257    57.687023    126685.15   -40273.157     2648.415   -42921.572    5.9695533   0.98585741 
    2600    217.45435    138.50462    126937.68   -40233.418    2705.5456   -42938.964    6.2874792   0.98389611 
    2700    214.67051   -27.755004    127122.78    -40282.09    2670.9093   -42952.999     6.546104   0.98246349 
    2800    214.73357   -55.385069    127043.81   -40280.886    2671.6939    -42952.58    6.8588548   0.98307422 
    2900    212.84684   -264.01597    126970.03   -40365.447    2648.2193   -43013.666    7.0595706   0.98364543 
    3000    213.95413   -59.208348    127305.58   -40397.445    2661.9961   -43059.441    7.2367941   0.98105276 
    3100    216.80876    105.89137    127417.71     -40390.4    2697.5132   -43087.913    7.4742574   0.98018942 
    3200    208.18052    -128.7667       127254   -40448.574    2590.1614   -43038.735    7.8354418   0.98145042 
    3300    211.30564     137.2659    127430.06   -40467.143    2629.0438   -43096.187    8.0669597   0.98009446 
    3400    212.97252    34.520482    127445.08   -40507.754    2649.7831   -43157.537    8.2166949   0.97997888 
    3500     209.0792  -0.55975504    127591.08   -40541.043    2601.3428   -43142.386    8.5023248   0.97885757 
    3600    206.55437    67.058659    127751.75   -40586.425    2569.9291   -43156.354    8.6763519   0.97762644 
    3700    210.53174   -50.801761    127804.84   -40655.472    2619.4151   -43274.888    8.8615313   0.97722036 
    3800    208.64344     0.306409    127926.15   -40623.532    2595.9211   -43219.453    9.1059443   0.97629365 
    3900     209.2866   -53.526526    127959.03   -40659.992    2603.9232   -43263.915    9.2377068   0.97604279 
    4000    210.93318   -110.74654    127886.01   -40669.754    2624.4098   -43294.164    9.3715253   0.97660014 
    4100     210.2465   -89.580775    127775.45   -40667.471    2615.8661   -43283.338    9.5717925   0.97744513 
    4200    207.70197   -201.59566    127751.56   -40676.894    2584.2074   -43261.101    9.7442696   0.97762788 
    4300     209.7711   -35.263984    127713.75    -40675.83    2609.9513   -43285.781    10.020156   0.97791732 
    4400    210.65371   -70.124419    127696.93   -40672.606    2620.9326   -43293.539    10.242176   0.97804614 
    4500     206.1152    324.35104    127806.29   -40665.083     2564.465   -43229.548    10.528354   0.97720929 
    4600    205.98086     56.57762    127921.83   -40697.714    2562.7935   -43260.507    10.609118   0.97632661 
    4700    214.08916    147.12586    128079.57   -40621.527    2663.6762   -43285.203     10.80054   0.97512419 
    4800    210.79336    130.97043    128116.72    -40686.61    2622.6702    -43309.28    10.983491   0.97484146 
    4900    215.30586   -160.85166     127801.6   -40590.023    2678.8143   -43268.837    11.083055    0.9772451 
    5000    213.78055   -60.431671    127835.55   -40553.125    2659.8365   -43212.961    11.222658   0.97698561 
    5100    213.14186     19.35526    127844.57   -40619.975    2651.8899   -43271.865    11.333595   0.97691663 
    5200    208.76149    127.61061    127758.89   -40676.721    2597.3899   -43274.111     11.67274   0.97757183 
    5300    211.44713    216.58856    128049.28   -40662.565    2630.8043   -43293.369    11.845455    0.9753549 
    5400    208.21789    172.92124    128199.55   -40708.616    2590.6264   -43299.242    11.981582   0.97421163 
    5500    213.70423   -32.917615    128295.34   -40734.109    2658.8869   -43392.996    12.162087   0.97348422 
    5600      210.998    23.756804    128291.45   -40757.379    2625.2162   -43382.595     12.42188   0.97351374 
    5700    211.39599    124.33225    128312.19   -40761.556     2630.168   -43391.724     12.51939   0.97335638 
    5800    214.28582    -2.594016    128421.81   -40798.461     2666.123   -43464.584    12.676382   0.97252557 
    5900    207.50573    23.569699    128383.28   -40840.437    2581.7658   -43422.203    12.766768   0.97281745 
    6000    210.83014   -132.23893    128318.29       -40837    2623.1277   -43460.127     12.76268   0.97331009 
    6100    212.60433     52.93002     128593.2    -40783.27    2645.2021   -43428.472    12.909057   0.97122933 
    6200    206.22647    24.348352    128665.97    -40843.01    2565.8494   -43408.859    12.929973   0.97068007 
    6300    209.33002    92.474168    128870.48   -40809.907    2604.4634   -43414.371    13.156851   0.96913968 
    6400      212.043    77.130855    128945.67   -40795.287    2638.2181   -43433.505    13.362681   0.96857451 
    6500    212.13133    18.744919    129014.57   -40752.111    2639.3171   -43391.428    13.409716   0.96805724 
    6600    208.13961    88.909693    129072.41   -40813.936    2589.6525   -43403.588    13.487668   0.96762346 
    6700     208.4018   -90.030804    129214.28   -40885.482    2592.9146   -43478.397    13.596262   0.96656109 
    6800    212.35467   -19.756605    129156.46   -40825.618    2642.0958   -43467.714     13.73688   0.96699374 
    6900     213.6084   -242.96711    129222.85   -40776.088    2657.6946   -43433.783    13.978018   0.96649695 
    7000    210.99012   -50.749122    129270.92   -40777.922    2625.1182   -43403.041    14.135172   0.96613754 
    7100    210.22185   -2.5007603    129097.12   -40816.906    2615.5594   -43432.466    14.278609   0.96743822 
    7200    210.31017   -60.586787    129184.51   -40879.809    2616.6584   -43496.467    14.392587   0.96678378 
    7300    209.01078    123.04211    129374.66   -40951.631    2600.4914   -43552.122    14.493108   0.96536289 
    7400    204.23135   -87.401874    129289.37   -40966.089    2541.0263   -43507.115     14.72469   0.96599972 
    7500    204.76589   -143.67102    129401.98   -40938.696    2547.6769   -43486.373    14.891674   0.96515903 
    7600    203.18491    125.33785    129479.44   -41014.663    2528.0065    -43542.67     15.07644   0.96458162 
    7700    207.61816    144.14325    129596.43   -40915.037    2583.1647   -43498.202    15.134856   0.96371088 
    7800     207.2698   -160.58391    129557.89   -40889.617    2578.8304   -43468.447    15.302381    0.9639976 
    7900    208.20475    73.221145    129531.24   -40942.848    2590.4629   -43533.311    15.453603   0.96419594 
    8000     208.0444    21.565107    129606.18   -40921.613    2588.4679   -43510.081    15.460925   0.96363843 
    8100    206.91015   -144.15516    129515.61   -40993.789    2574.3556   -43568.145    15.521336   0.96431229 
    8200    208.47448    134.49559    129594.76   -41017.802    2593.8189   -43611.621    15.613745   0.96372333 
    8300    207.91879     45.68323    129652.94   -41013.168     2586.905   -43600.073    15.718357   0.96329083 
    8400    205.76754    -77.17746     129604.6    -40962.01    2560.1393   -43522.149    15.813499   0.96365015 
    8500    212.90097    -247.4433    129468.85    -40901.81    2648.8929   -43550.703     15.91748   0.96466057 
    8600    213.29609    12.799278    129534.97    -40932.68    2653.8089   -43586.489    15.964619   0.96416814 
    8700    213.51211    87.773738    129508.63   -40921.813    2656.4966    -43578.31    16.105835   0.96436424 
    8800    210.94412     59.20432     129337.5   -40966.894    2624.5459    -43591.44    16.178594   0.96564025 
    8900    206.91686    12.720495    129450.03   -41044.378    2574.4392   -43618.817    16.309903   0.96480076 
    9000     206.4596    113.95056    129641.69   -41000.203    2568.7499   -43568.953    16.345054   0.96337441 
    9100     203.6861    169.70682    129827.63    -41046.88    2534.2424   -43581.122    16.453373   0.96199473 
    9200      209.114   -64.037025    129905.72   -40957.957    2601.7757   -43559.733     16.69813    0.9614164 
    9300    209.64618    -0.512607    129701.93   -41002.994    2608.3971   -43611.392    16.721963   0.96292698 
    9400    209.27803   -33.596162    129653.65   -40954.978    2603.8166   -43558.794    16.887355   0.96328561 
    9500    208.89578   -79.388465    129721.56   -40972.703    2599.0606   -43571.763    16.903168   0.96278132 
    9600    211.22841   -28.602076    129645.79   -40943.901     2628.083   -43571.984      17.0615   0.96334396 
    9700    210.40656   -86.473693    129584.97   -40885.215    2617.8577   -43503.073    17.148214    0.9637961 
    9800    212.88024    -103.5566    129310.96   -40956.345    2648.6349    -43604.98    17.210553   0.96583844 
    9900    207.58092   -46.483587    129198.77   -41033.834    2582.7013   -43616.535    17.259537   0.96667709 
   10000    203.38002    -30.50172    129374.51   -41045.788    2530.4341   -43576.222    17.457463   0.96536395 
   10100    209.52677    33.990354    129348.03   -41014.367    2606.9114   -43621.278    17.604094    0.9655616 
   10200    204.73868    68.696619    129303.64   -41041.541    2547.3384    -43588.88    17.687419   0.96589311 
   10300     206.9107    25.830374     129532.7   -41023.728    2574.3624    -43598.09    17.788867   0.96418505 
   10400    209.98822    13.351025    129559.43   -40955.089    2612.6527   -43567.742    17.893375    0.9639861 
   10500    208.87373    29.851907    129567.51   -40931.021    2598.7863   -43529.807    17.994763   0.96392598 
   10600      212.208   -11.970825     129495.6    -40870.84    2640.2709   -43511.111    18.246713   0.96446128 
   10700    213.84632    84.254384    129406.08   -40866.254    2660.6548   -43526.909    18.326689   0.96512849 
   10800    213.07707    230.63903    129557.03   -40853.799    2651.0838   -43504.883    18.474102   0.96400399 
   10900    212.01846   -156.43667       129632   -40892.206    2637.9127   -43530.119    18.621055   0.96344644 
   11000    214.67407    111.21378    129569.46   -40893.044    2670.9535   -43563.997    18.798298   0.96391148 
   11100    209.15825   -70.938882    129655.94   -40940.837    2602.3262   -43543.163    19.052738   0.96326857 
   11200    211.43181    19.199343    129645.53    -40946.85    2630.6137   -43577.463     19.12472   0.96334592 
   11300    212.19292   -29.339195    129785.98   -40962.485    2640.0833   -43602.568    19.222204   0.96230338 
   11400      208.365   -76.340645    129900.97   -40987.344    2592.4567     -43579.8    19.230048   0.96145157 
   11500     213.4064    -4.856994    129818.94   -41033.852    2655.1814   -43689.033    19.186611   0.96205906 
   11600    211.56126   -87.054621    129855.92   -41049.612    2632.2243   -43681.836    19.019605   0.96178514 
   11700    214.80006    68.266176    130001.08   -40948.759    2672.5211    -43621.28    19.087842   0.96071117 
   11800    211.44898    62.203631    129955.68   -41020.194    2630.8273   -43651.021    19.052901   0.96104683 
   11900    209.25237    -122.8439    129874.86   -41046.653    2603.4973    -43650.15    19.394609   0.96164486 
   12000    205.26479   -110.56044    129964.47   -41041.657    2553.8842   -43595.542    19.516835   0.96098177 
   12100    210.76607    291.80706    130009.75   -40996.391    2622.3306   -43618.721    19.565555   0.96064714 
   12200     209.1294    67.383226    129970.13   -41015.807    2601.9674   -43617.774    19.673783   0.96093998 
   12300    210.69811     11.58926    130110.45   -41047.745    2621.4851    -43669.23    19.761168   0.95990358 
   12400    211.47125    67.881255    129972.58    -41023.52    2631.1044   -43654.624    19.683272   0.96092188 
   12500    208.58621    31.114556    130050.54    -41118.63     2595.209   -43713.839    19.794913   0.96034584 
   12600    206.18414   -124.66297     130137.7    -41025.48    2565.3227   -43590.803    19.942773   0.95970259 
   12700    209.51995   -35.687462    130170.53    -41000.49    2606.8265   -43607.316    20.122135   0.95946058 
   12800    211.74926   -37.877536    130080.76    -40956.98    2634.5634   -43591.543     20.23372   0.96012274 
   12900    214.08644    92.818836     130155.8   -41005.441    2663.6424   -43669.083    20.294331   0.95956916 
   13000    219.39356    36.467195    130171.04    -40959.81    2729.6729   -43689.483    20.450639   0.95945679 
   13100    211.43569   -122.48122    130297.81   -40958.664    2630.6619   -43589.325    20.439807   0.95852334 
   13200    214.34765    5.7895707    130357.59   -40885.948    2666.8923   -43552.841    20.587126   0.95808373 
   13300     214.6963   -110.00751    130267.48   -40934.637    2671.2301   -43605.867    20.604862    0.9587465 
   13400    210.52041   -57.910062    130215.18   -41019.037    2619.2741   -43638.311    20.542637   0.95913159 
   13500    213.79641   -87.571433    130231.48    -41050.93    2660.0338   -43710.964    20.640949   0.95901155 
   13600    211.81561    -53.71065    130155.05    -41075.72    2635.3889   -43711.109    20.572492   0.95957466 
   13700    208.65807    112.39127    129991.87    -41073.29    2596.1031   -43669.393    20.695596   0.96077926 
   13800    210.66941   -84.982729    129894.79   -40999.756     2621.128   -43620.884    20.893263   0.96149734 
   13900    211.36252   -64.874729    129824.96   -41053.069    2629.7516   -43682.821    21.047839   0.96201444 
   14000    212.19049    140.83444    130153.81   -41047.889    2640.0531   -43687.942    21.057286   0.95958386 
   14100    209.60822   -36.266082    130104.79    -41054.98    2607.9248   -43662.904     21.10702   0.95994539 
   14200    211.17559    53.792919    130109.45    -41093.53    2627.4258   -43720.956    21.254017   0.95991102 
   14300    206.33696    -21.74287    130199.99   -41154.087     2567.224   -43721.311     21.35847   0.95924346 
   14400    206.42917   -26.356889    130338.78   -41135.228    2568.3713   -43703.599    21.302823   0.95822202 
   14500    209.39418    23.518013    130317.29   -41083.851    2605.2617   -43689.113    21.458996   0.95838006 
   14600    211.47414    84.161513    130360.75   -41090.281    2631.1403   -43721.421    21.586368   0.95806057 
   14700    207.84864    -10.80634    130196.56   -41134.619    2586.0323   -43720.652    21.681675   0.95926871 
   14800    204.60571   -49.819061    130212.32   -41169.663     2545.684   -43715.347    21.604761   0.95915261 
   14900    204.77801    64.105137    130160.63   -41224.679    2547.8277   -43772.507    21.647393   0.95953352 
   15000    204.17669   -95.255671    130106.72   -41227.654    2540.3461       -43768    21.665226   0.95993113 
   15100    201.83054    82.431101    130379.83   -41256.454    2511.1556    -43767.61    21.643397   0.95792034 
   15200    209.40079     83.61489    130324.04   -41180.651     2605.344   -43785.995    21.773507   0.95833038 
   15300    205.81772    2.2833562    130474.72   -41189.972    2560.7637   -43750.736    21.828224   0.95722366 
   15400    207.59048   -69.634452    130449.34   -41175.373    2582.8202   -43758.193     22.06488   0.95740989 
   15500    209.06523    25.160667    130466.85   -41150.595     2601.169   -43751.764    22.277937   0.95728142 
   15600    211.56948    68.113622    130416.48   -41093.476    2632.3265   -43725.802    22.358424   0.95765114 
   15700    205.32321   -10.622896    130487.02   -41183.241    2554.6111   -43737.852    22.385434   0.95713347 
   15800    205.41122    62.275396    130616.78   -41173.161    2555.7061   -43728.867    22.317965    0.9561826 
   15900    209.53564   -46.720049    130657.74   -41203.884    2607.0218   -43810.905    22.523063   0.95588281 
   16000    212.65712   -26.334772    130744.42   -41157.969    2645.8588   -43803.827    22.845441   0.95524915 
   16100    211.35659    115.63752    130608.37   -41121.181    2629.6777   -43750.859    22.897361   0.95624419 
   16200     210.9205    146.92766    130599.48   -41186.784     2624.252   -43811.036     22.99913   0.95630926 
   16300     209.5255   -125.89463    130762.52   -41205.992    2606.8955   -43812.888    22.878093   0.95511688 
   16400    211.41039   -14.137686    130677.77   -41123.584    2630.3472   -43753.932     22.73455   0.95573634 
   16500    211.69622   -46.948714    130821.76   -41125.883    2633.9035   -43759.787    22.794318   0.95468437 
   16600    212.44971    68.384985    130755.01   -41106.775    2643.2783   -43750.053    22.829627   0.95517173 
   16700    210.03661    37.383334    130782.88   -41142.795    2613.2547    -43756.05    23.009551   0.95496821 
   16800    217.28863    69.047619    130856.95   -41143.515    2703.4836   -43846.999    23.060792   0.95442766 
   16900     212.0269   -26.574187    130904.57   -41114.379    2638.0177   -43752.397    23.165926   0.95408044 
   17000    211.85804    115.91586    130957.15   -41132.884    2635.9168     -43768.8    23.264601   0.95369735 
   17100    209.83108   -123.26074    130871.15   -41056.234    2610.6976   -43666.931    23.244433   0.95432407 
   17200     212.0145   -15.195175    130737.84   -41070.936    2637.8635     -43708.8    23.408345   0.95529719 
   17300    207.56396    41.555256    130693.13   -41132.606    2582.4903   -43715.096    23.567072   0.95562397 
   17400    213.85049   -123.30702    130871.27   -41167.151    2660.7066   -43827.858    23.629628   0.95432324 
   17500    214.29143    207.82838    131055.04   -41166.343    2666.1928   -43832.535    23.665882   0.95298505 
   17600     212.8152    145.58049    131085.39    -41152.13    2647.8257   -43799.956    23.686275    0.9527644 
   17700      212.876    33.956548    130998.33   -41186.818    2648.5822     -43835.4    23.760898    0.9533976 
   17800    213.75977    24.834015    131080.15   -41199.661    2659.5779   -43859.239    23.744663    0.9528025 
   17900    212.56413    55.198006    131324.96   -41169.029    2644.7019   -43813.731    23.786036   0.95102633 
   18000    216.64864    73.397081    131391.08    -41137.34    2695.5209   -43832.861    23.869095   0.95054771 
   18100    209.99206    149.89512    131354.52   -41254.271    2612.7005   -43866.972    23.942261   0.95081231 
   18200    207.47999    108.97277     131446.7   -41252.328    2581.4455   -43833.774    23.878774   0.95014552 
   18300    214.88944  -0.16413264    131462.32    -41185.58    2673.6332   -43859.213    23.915496   0.95003259 
   18400    215.00277    19.349157    131631.03   -41253.222    2675.0432   -43928.265    23.997165   0.94881499 
   18500    215.83381    53.064686     131400.7   -41222.527    2685.3829   -43907.909    24.080536   0.95047813 
   18600    209.16399   -60.973178    131286.81   -41277.003    2602.3976   -43879.401    24.315002   0.95130268 
   18700    209.04926    23.789584    131444.69   -41247.357    2600.9702   -43848.328    24.528403   0.95016001 
   18800    211.58772     2.345156    131271.27   -41222.467    2632.5535   -43855.021    24.472891   0.95141526 
   18900    209.81184   -4.8751641    131270.68   -41258.292    2610.4581   -43868.751    24.400808   0.95141952 
   19000    213.00673    46.607377     131512.1   -41239.879    2650.2087   -43890.088    24.378447   0.94967299 
   19100    209.22015   -76.150305    131493.98   -41289.509    2603.0964   -43892.606     24.37127   0.94980384 
   19200    211.61095   -75.873454    131736.25    -41262.49    2632.8425   -43895.333    24.446686    0.9480571 
   19300    209.47062   -51.602113    131588.13   -41208.409    2606.2128   -43814.621     24.50303   0.94912432 
   19400    210.61342    57.738238    131614.78   -41225.649    2620.4313   -43846.081    24.613749   0.94893208 
   19500    211.86754    54.922416    131622.67   -41223.115     2636.035    -43859.15    24.657098    0.9488752 
   19600     212.3765    58.182187    131722.36   -41269.354    2642.3674   -43911.721    24.632926   0.94815707 
   19700    212.78048    60.183705    131632.95   -41244.057    2647.3937    -43891.45    24.824062   0.94880115 
   19800    209.82906    16.404876    131561.67   -41280.011    2610.6724   -43890.684    24.920773   0.94931516 
   19900    209.75847   -1.3879211    131581.66   -41279.247    2609.7942   -43889.041    25.092365     0.949171 
   20000    205.68849   -7.6190945     131514.4   -41306.218    2559.1559   -43865.373     25.03298   0.94965642 
   20100    215.01176   -88.488854    131592.25    -41277.85    2675.1551   -43953.005    25.056694   0.94909456 
   20200    208.74573   -89.502782    131661.45   -41323.281    2597.1937   -43920.475    25.202915   0.94859577 
   20300    210.97596    124.42261    131484.36   -41365.816    2624.9421   -43990.758    25.254758   0.94987337 
   20400    211.74998   -31.465778    131525.65   -41355.344    2634.5723   -43989.916    25.321927   0.94957517 
   20500    210.02357   -131.54677     131379.7   -41326.511    2613.0925   -43939.604    25.341442   0.95063005 
   20600    213.96627    128.30025    131455.34   -41360.755    2662.1472   -44022.902    25.435104   0.95008308 
   20700    210.15164      165.916    131607.64   -41305.157    2614.6859   -43919.843    25.582405   0.94898357 
   20800    213.96277   -44.988725    131608.36   -41317.704    2662.1037   -43979.808    25.586149   0.94897844 
   20900    206.25754    -78.27737    131490.88   -41339.107    2566.2359   -43905.343    25.641646   0.94982629 
   21000    207.21149   -3.1176204    131412.85   -41417.549    2578.1049   -43995.654    25.731934   0.95039026 
   21100    205.03976    3.2358447    131307.61   -41419.888    2551.0844   -43970.972    25.789783   0.95115196 
   21200    205.78167   -74.198454    131221.61   -41384.484    2560.3152   -43944.799    25.890039   0.95177532 
   21300    211.08529   -5.2575989    131255.15   -41399.314    2626.3023   -44025.616     25.79029   0.95153214 
   21400    211.53823   -33.894399    131244.11   -41367.909    2631.9378   -43999.847     25.96212    0.9516122 
   21500    205.42215   -4.8650104    131328.43   -41365.484    2555.8421   -43921.326    26.118969   0.95100121 
   21600    211.73387    184.16018    131485.24   -41316.986    2634.3719   -43951.358    26.069577   0.94986702 
   21700    210.67134    44.711475    131506.91   -41298.658    2621.1519    -43919.81    26.123284   0.94971049 
   21800    210.25667    126.57257    131663.45   -41285.134    2615.9927   -43901.127    26.087015   0.94858133 
   21900    209.45855      152.372    131820.95   -41317.008    2606.0626    -43923.07    26.039548   0.94744797 
   22000    211.40193    136.94908    131795.87   -41355.372    2630.2419   -43985.614    26.433777   0.94762824 
   22100    213.57193    20.056913    131803.75   -41294.209    2657.2408    -43951.45    26.627277   0.94757163 
   22200    209.88821   -53.491619    131450.35    -41321.12    2611.4083   -43932.528    26.562099   0.95011912 
   22300    213.37794     232.2556    131730.83   -41301.831    2654.8273   -43956.658    26.711855   0.94809613 
   22400    209.26229   -113.89775    131640.65   -41290.377    2603.6207   -43893.998    26.485278   0.94874565 
   22500     212.1728     12.50721    131605.08   -41306.015     2639.833   -43945.848    26.502156   0.94900208 
   22600    215.98185   -143.36923    131723.16   -41275.461    2687.2249   -43962.686    26.705829   0.94815137 
   22700    214.23762     100.0354    131831.92    -41273.39    2665.5233   -43938.913    26.747167   0.94736916 
   22800    213.29903   -55.060374    131805.29   -41262.336    2653.8455   -43916.182    26.863484   0.94756051 
   22900    213.85842   -79.867031    132007.27   -41317.064    2660.8053   -43977.869    27.047752   0.94611069 
   23000    211.28893   -72.220801    131880.55   -41313.272    2628.8359   -43942.108    26.858448   0.94701979 
   23100    211.04082   -123.10043    131838.99   -41409.925    2625.7491   -44035.674    27.002441   0.94731834 
   23200    211.01615    79.092609     131852.3   -41361.187    2625.4421   -43986.629    27.126536    0.9472227 
   23300    208.97616   -74.003439    131686.67    -41398.34    2600.0607     -43998.4    27.163005   0.94841407 
   23400    210.77318    83.708374    131633.49   -41334.705     2622.419   -43957.124    27.099363   0.94879724 
   23500    209.96863    127.03643    131675.82   -41376.594    2612.4089   -43989.003    27.097899    0.9484922 
   23600    216.13393   -15.482999    131664.96   -41360.694     2689.117   -44049.811    27.123959   0.94857043 
   23700    208.44167    50.544893    131661.17   -41406.197    2593.4106   -43999.607    27.207763    0.9485978 
   23800     206.4614   -10.341586     131501.3    -41454.34    2568.7724   -44023.113    27.329963   0.94975099 
   23900    210.52209    77.897981    131446.88   -41469.971    2619.2951   -44089.266    27.233322   0.95014422 
   24000    211.01609   -80.366581    131666.51   -41404.133    2625.4413   -44029.574     27.39327   0.94855932 
   24100    210.32706    38.958673    131588.19   -41399.579    2616.8685   -44016.447     27.46391   0.94912386 
   24200    208.44106   -114.27073     131508.5    -41457.43    2593.4031   -44050.833    27.404387   0.94969898 
   24300    211.25879    24.180449    131362.17   -41435.666     2628.461   -44064.127    27.413307   0.95075689 
   24400    209.10751    28.019022    131460.73   -41475.258     2601.695   -44076.953    27.576713   0.95004413 
   24500    211.45929    130.24205    131520.89    -41432.61    2630.9556   -44063.565    27.644963   0.94960955 
   24600    205.98226    78.320791    131555.26   -41407.425    2562.8109   -43970.236    27.598381   0.94936146 
   24700      208.666    23.454186    131802.38   -41426.325    2596.2017   -44022.527    27.661949   0.94758147 
   24800    205.73155   -115.15212    131918.13   -41422.194    2559.6916   -43981.885    28.059144      0.94675 
   24900    208.94142    6.2269197    131813.89   -41379.371    2599.6284       -43979    28.121918   0.94749874 
   25000    210.77595    90.537019    131754.59   -41361.145    2622.4536   -43983.598    28.042949   0.94792518 
   25100    208.28232    77.767605    131713.84   -41363.265    2591.4281   -43954.693    28.132171   0.94821843 
   25200    210.49671    61.743203    131753.79   -41407.489    2618.9793   -44026.468    28.368952    0.9479309 
   25300    209.51168    52.386385    131717.69   -41417.909    2606.7236   -44024.632    28.329541    0.9481907 
   25400    210.25752   -133.04084    131649.47    -41408.48    2616.0033   -44024.483    28.405877   0.94868206 
   25500    213.44385    31.337584    131633.32   -41370.057    2655.6473   -44025.705    28.427937   0.94879846 
   25600    207.71092   -163.00325    131579.36   -41449.407    2584.3187   -44033.726    28.436179   0.94918754 
   25700    209.11607   -106.46598    131695.67   -41467.776    2601.8015   -44069.578    28.334936   0.94834927 
   25800    206.78739     30.72634    131583.43   -41446.378    2572.8282   -44019.207    28.230656   0.94915822 
   25900    208.49513     -205.364     131459.1   -41402.691    2594.0758   -43996.767    28.358423   0.95005587 
   26000    212.06564     153.4885    131612.92   -41344.429    2638.4997   -43982.929    28.537601   0.94894554 
   26100    210.66075   -73.268336    131604.96   -41422.446    2621.0202   -44043.466    28.656571    0.9490029 
   26200    209.19533    2.9091489     131509.3   -41411.901    2602.7876   -44014.688    28.779178    0.9496932 
   26300    213.79308    16.834095    131500.06   -41385.949    2659.9924   -44045.942    28.784753   0.94975997 
   26400    211.75297   -28.422465    131697.86   -41380.231    2634.6095   -44014.841    28.905951   0.94833348 
   26500    213.84752    86.515424    131530.35   -41438.861    2660.6697    -44099.53     28.71558   0.94954127 
   26600    207.99544    64.669166    131682.71    -41489.79    2587.8587   -44077.649    28.667995   0.94844261 
   26700    204.97543   -15.894579     131672.3   -41520.534     2550.284   -44070.818    28.884922    0.9485176 
   26800    211.03709   -3.9002283     131699.5   -41447.039    2625.7026   -44072.742    29.093446   0.94832168 
   26900    211.94456    52.379728     131771.5   -41443.303    2636.9933   -44080.296     29.19029   0.94780352 
   27000    208.11898    116.88496    131816.24   -41486.606    2589.3957   -44076.002    29.071418    0.9474818 
   27100     208.4828   -23.836576    131897.99   -41481.384    2593.9224   -44075.307    29.030849   0.94689455 
   27200    208.80633   -217.96398    132097.66   -41497.702    2597.9477    -44095.65    29.056327   0.94546328 
   27300    206.17679     49.51832    132042.44   -41515.041    2565.2312   -44080.272     29.39004   0.94585868 
   27400    209.15564   -40.314613    132174.37   -41453.245    2602.2938   -44055.539    29.350178    0.9449146 
   27500    210.85092    -128.8509    132112.72   -41398.406    2623.3863   -44021.792    29.449579   0.94535556 
   27600     208.8146    -103.9483    132076.42   -41424.499    2598.0507    -44022.55    29.323923   0.94561534 
   27700    210.98262    36.409626    132182.47    -41438.02     2625.025   -44063.045    29.529367   0.94485666 
   27800    212.37145   -159.14429    132176.22   -41372.587    2642.3046   -44014.891    29.616364   0.94490134 
   27900    209.97542    22.181923    132147.27   -41385.533    2612.4934   -43998.026    29.507075   0.94510836 
   28000     210.7558   -90.403571    132208.81   -41433.593    2622.2028   -44055.796    29.779503   0.94466847 
   28100    211.84648    -119.4648    132333.77   -41412.118     2635.773   -44047.891    29.872331   0.94377641 
   28200    211.55965    96.833749    132400.61   -41449.283    2632.2043   -44081.487    29.846693   0.94329997 
   28300    208.17176    24.570734    132435.91   -41446.657    2590.0525    -44036.71    29.779474   0.94304857 
   28400    207.42025   -69.243994     132304.1   -41490.299    2580.7022   -44071.001    29.808034   0.94398804 
   28500    207.87208   -27.136972    132194.05   -41522.652    2586.3239   -44108.976    29.970957   0.94477392 
   28600    207.55827    86.842759    132305.98    -41471.28    2582.4194     -44053.7    30.101827   0.94397463 
   28700    209.34889   -27.070672    132346.74   -41480.309    2604.6982   -44085.008    29.963908    0.9436839 
   28800    213.44623    90.194408     132270.9   -41444.939    2655.6768   -44100.616    29.837475   0.94422499 
   28900    211.65737    64.267539    132471.29   -41413.036    2633.4201   -44046.456    30.058262   0.94279666 
   29000     207.2842    35.753742     132424.4   -41499.565    2579.0096   -44078.575    30.086941   0.94313047 
   29100    210.80851     1.518756    132400.16   -41450.149    2622.8586   -44073.008    29.958027   0.94330315 
   29200    211.54319   -92.841476    132241.04   -41412.387    2631.9995   -44044.386     30.21748   0.94443821 
   29300    208.35258    7.9414918    132331.01   -41468.628    2592.3023    -44060.93    30.400214   0.94379611 
   29400    204.95178   -112.73849    132402.95   -41521.461    2549.9898   -44071.451    30.181775   0.94328332 
   29500    207.99481   -119.40988    132503.47   -41551.345    2587.8509   -44139.196    30.093477   0.94256774 
   29600     213.2684     94.77393    132513.32   -41467.419    2653.4644   -44120.883    30.297333   0.94249767 
   29700    207.53324    48.450627    132616.43   -41512.175    2582.1081   -44094.283    30.430956   0.94176483 
   29800    208.03686   -3.5877588    132728.73   -41500.148     2588.374   -44088.522    30.492664   0.94096802 
   29900    209.66326   -134.79232    132549.57   -41538.337    2608.6096   -44146.947    30.336291   0.94223989 
   30000    211.80698    60.806727    132427.85   -41519.363    2635.2815   -44154.645    30.628351   0.94310591 
   30100    211.74422   -161.84039    132448.98   -41521.141    2634.5006   -44155.642    30.658063   0.94295544 
   30200     210.6185     53.46305    132416.97   -41529.452    2620.4945   -44149.947    30.453212    0.9431834 
   30300    208.84841   -64.059702    132395.67   -41501.376    2598.4713   -44099.847    30.500444   0.94333518 
   30400    209.33961    4.2283998    132575.33   -41493.083    2604.5828   -44097.666    30.619658   0.94205682 
   30500    210.05021   -22.174063    132615.81   -41504.078     2613.424   -44117.502    30.702293   0.94176926 
   30600    210.17946    83.675891    132591.01   -41496.723    2615.0321   -44111.755    30.815969   0.94194541 
   30700    213.14909    13.789829    132634.78   -41515.571    2651.9799   -44167.551    30.986473   0.94163455 
   30800    210.57598   -21.665784    132736.65   -41462.407    2619.9655   -44082.373    30.961029    0.9409119 
   30900    204.78919    27.868488    132673.57   -41574.362    2547.9669   -44122.329    31.017753   0.94135921 
   31000    207.33019    9.9365497    132599.07   -41610.834    2579.5817   -44190.415    30.868994   0.94188815 
   31100    206.78976   -38.715523     132613.1   -41606.912    2572.8578    -44179.77    30.900671   0.94178851 
   31200    205.72273    84.094424    132583.13   -41611.502    2559.5818   -44171.084    31.108938   0.94200137 
   31300     205.8779   -52.271536    132498.63   -41569.577    2561.5125    -44131.09    31.201322   0.94260215 
   31400    210.04247   -27.342851    132574.59   -41525.567    2613.3277   -44138.895    31.264076   0.94206205 
   31500    206.06994   -30.300956    132602.18   -41561.558    2563.9018    -44125.46    31.251406   0.94186601 
   31600    215.85033   -152.12528    132344.34   -41485.291    2685.5885   -44170.879    31.135033   0.94370105 
   31700    209.75163    30.234544    132279.01   -41515.675     2609.709   -44125.384    31.047811   0.94416709 
   31800    212.29983    214.90653    132275.66   -41441.464    2641.4135   -44082.878    31.058729   0.94419104 
   31900    209.85064    103.78797    132236.45   -41442.295    2610.9409   -44053.236    31.014958   0.94447097 
   32000    213.41557    66.083707     132338.8   -41436.399    2655.2955   -44091.694    31.164565   0.94374051 
   32100    213.95228   -173.01642    132326.47   -41457.123    2661.9732   -44119.096    31.190724   0.94382848 
   32200    215.12835    17.351178    132309.98   -41465.221    2676.6057   -44141.827    31.300042   0.94394612 
   32300    210.76495   -140.66275    132272.59   -41447.297    2622.3166   -44069.614    31.387405   0.94421296 
   32400    210.74467    108.33348    132292.54    -41512.17    2622.0644   -44134.234    31.313787   0.94407058 
   32500    208.36464   -26.254629    132240.96   -41527.217    2592.4522   -44119.669     31.37905    0.9444388 
   32600    210.19669    52.731686    132134.16   -41472.789    2615.2465   -44088.036    31.269863   0.94520218 
   32700     213.8802    85.801399    132279.18    -41522.49    2661.0764   -44183.566    31.399926   0.94416588 
   32800    207.45915    201.29191    132266.23   -41565.453    2581.1862   -44146.639    31.450325   0.94425831 
   32900    210.75774     14.40332    132501.79   -41563.855    2622.2269   -44186.082    31.482852   0.94257969 
   33000    209.64921   -35.516724    132719.62   -41615.707    2608.4348   -44224.141    31.597637   0.94103265 
   33100    211.76285     16.42545    132481.39   -41550.332    2634.7324   -44185.065    31.490483   0.94272479 
   33200    208.57995  -0.73079533    132629.03   -41584.059    2595.1311    -44179.19    31.530088   0.94167537 
   33300     209.1706   -137.15443    132404.63    -41516.48    2602.4799    -44118.96    31.431465   0.94327131 
   33400    209.46644   -7.2138008    132351.26   -41604.717    2606.1608   -44210.878    31.401327   0.94365167 
   33500    208.69759   -12.601416    132351.91   -41570.789    2596.5948   -44167.384    31.470143   0.94364709 
   33600    209.30684    25.929584    132389.96   -41545.563     2604.175   -44149.738    31.593723   0.94337584 
   33700    208.27025    84.150018    132392.98   -41534.477    2591.2779   -44125.755    31.691919   0.94335432 
   33800    208.29899    86.976942    132543.48   -41537.692    2591.6354   -44129.327     31.71256    0.9422832 
   33900    208.39962   -78.805308    132547.34   -41546.055    2592.8875   -44138.943    31.702397   0.94225571 
   34000    209.05152   -111.63288    132406.93   -41512.307    2600.9983   -44113.306    31.580625   0.94325496 
   34100    212.54319   -63.418085    132398.59   -41546.632    2644.4414   -44191.073    31.567063   0.94331439 
   34200    209.14515   -73.434845    132402.47   -41556.682    2602.1632   -44158.845    31.670092   0.94328668 
   34300      207.201    113.77518    132534.55   -41608.226    2577.9744     -44186.2    31.748438   0.94234667 
   34400    213.12024    117.30895    132528.52   -41554.065     2651.621   -44205.686    31.680554   0.94238951 
   34500    209.77463    122.32183    132688.37   -41584.192    2609.9952   -44194.187    31.788736   0.94125424 
   34600    213.05396    75.919741    132572.92   -41578.595    2650.7963   -44229.391    31.786042    0.9420739 
   34700    210.20984    52.888808    132673.86   -41654.231      2615.41   -44269.641    31.795817   0.94135716 
   34800    209.24422    65.927737     132714.4   -41638.255    2603.3959   -44241.651    31.615239   0.94106961 
   34900    205.23596   -6.2689188    132703.94    -41639.39    2553.5256   -44192.915    31.823612   0.94114382 
   35000    203.57337   -208.09254    132682.35   -41702.146    2532.8397   -44234.986    31.888862   0.94129698 
   35100    211.32594    148.93552    132640.96   -41653.535    2629.2965   -44282.831    31.899384   0.94159071 
   35200    206.46265    18.384122    132639.48   -41648.052    2568.7879    -44216.84    31.927559   0.94160122 
   35300    208.88471    123.51345    132615.95   -41634.731    2598.9229   -44233.654     31.91412   0.94176827 
   35400    207.27773   -48.073022    132512.89   -41653.899     2578.929   -44232.828    31.881466   0.94250069 
   35500     213.7715    6.5180696    132471.19   -41549.132    2659.7239   -44208.856    32.014217   0.94279737 
   35600    209.21408    91.569289    132471.04   -41595.846    2603.0209   -44198.867    31.989575   0.94279842 
   35700    211.47977   -74.430275    132442.61   -41567.184    2631.2104   -44198.394    31.931277   0.94300086 
   35800    209.43784   -80.486184    132538.59    -41599.63    2605.8049   -44205.435    31.835449   0.94231793 
   35900    208.95261    77.757991    132440.14   -41544.869    2599.7677   -44144.637    31.824982   0.94301844 
   36000    211.13364     13.23765    132462.28   -41519.161    2626.9039   -44146.065    31.985875   0.94286082 
   36100     208.6127    32.956768    132538.04   -41534.588    2595.5386   -44130.126    31.911635   0.94232187 
   36200    208.80577  -0.32682533    132453.92   -41567.292    2597.9407   -44165.233    31.980768   0.94292032 
   36300    209.10191   -65.092061    132332.36   -41617.262    2601.6253   -44218.887    32.003516   0.94378644 
   36400    209.73237   -26.997425    132344.99   -41556.014    2609.4694   -44165.484    32.062319   0.94369643 
   36500    211.54046    105.12245    132370.18   -41544.436    2631.9655   -44176.402    32.195881   0.94351682 
   36600    206.39613   -99.182238    132341.46   -41647.308    2567.9603   -44215.268    32.148617   0.94372155 
   36700    207.83896   -31.357788    132229.06   -41593.401    2585.9118   -44179.313     32.03717   0.94452374 
   36800       211.87    112.96706    132289.88   -41580.149    2636.0657   -44216.215    31.991482   0.94408953 
   36900     208.8084    -33.32702    132239.63   -41596.232    2597.9735   -44194.205    32.254384   0.94444831 
   37000    211.24975   -117.87583    132245.66   -41533.159    2628.3486   -44161.508    32.123998   0.94440524 
   37100    210.87741    70.539569    132157.73   -41513.556    2623.7158   -44137.271    32.033786   0.94503354 
   37200     207.7037    -11.16988    132233.82   -41574.454    2584.2289   -44158.683    32.095651    0.9444898 
   37300    209.29046    225.83274    132330.86   -41595.209    2603.9712    -44199.18    32.098953   0.94379719 
   37400    206.45773    9.5148072     132381.3   -41627.048    2568.7266   -44195.775    32.153904   0.94343753 
   37500    208.22305    63.159944    132383.74   -41632.206    2590.6906   -44222.897     32.19907    0.9434202 
   37600    210.18491   -97.310359    132356.11   -41585.963    2615.0999   -44201.063    32.205066    0.9436171 
   37700     209.0772   -29.145662     132350.2    -41607.99    2601.3179   -44209.308    32.158664   0.94365928 
   37800     203.7163   -37.052729     132373.6   -41711.534     2534.618   -44246.152    32.391636   0.94349244 
   37900    210.50748   -59.221434    132245.95   -41665.739    2619.1133   -44284.852    32.385488   0.94440312 
   38000    208.42948    125.82301     132242.6   -41628.928     2593.259   -44222.187    32.532523   0.94442704 
   38100    209.57039    44.099825    132367.23   -41581.078    2607.4541   -44188.532    32.577697   0.94353782 
   38200    208.19232   -35.547429    132161.24   -41590.029    2590.3083   -44180.337    32.424985   0.94500847 
   38300    212.88845   -94.836283    131974.76   -41530.071    2648.7371   -44178.808    32.276878   0.94634379 
   38400    211.48378    40.994221    132083.24   -41599.016    2631.2602   -44230.276    32.410466   0.94556651 
   38500    208.08071    64.845114    132215.24   -41616.756    2588.9196   -44205.676    32.564218   0.94462253 
   38600    209.98359   -7.6075847    132153.26    -41579.75    2612.5951   -44192.345    32.429576   0.94506554 
   38700    209.24895    122.03182     132251.4   -41591.879    2603.4548   -44195.334    32.466141   0.94436425 
   38800    208.65231   -65.942725    132187.77   -41619.268    2596.0314   -44215.299    32.582072   0.94481883 
   38900    210.47145   -90.825922    132137.14   -41574.042    2618.6649   -44192.707    32.685446   0.94518084 
   39000    209.43461    140.17329    132115.33   -41610.881    2605.7647   -44216.646    32.667088   0.94533687 
   39100    212.38573    -34.38692    132291.31   -41571.121    2642.4822   -44213.603     32.70763   0.94407932 
   39200    209.85627    14.573484    132174.12   -41582.869     2611.011    -44193.88    32.520155   0.94491639 
   39300    207.94555    80.760253    132328.44    -41556.81     2587.238   -44144.048    32.447667   0.94381441 
   39400    209.92699   -31.287816    132428.14   -41522.581    2611.8909   -44134.472    32.839948   0.94310386 
   39500    212.34802    145.54078    132418.12   -41500.775    2642.0131   -44142.788    32.970595   0.94317527 
   39600    212.57863    197.70718     132456.7   -41556.869    2644.8823   -44201.751    33.001883   0.94290052 
   39700    213.75541   -55.153349    132501.64   -41502.567    2659.5237    -44162.09     32.92371    0.9425807 
   39800    209.79108   -44.746528    132436.74   -41585.674    2610.1999   -44195.873    32.902663   0.94304262 
   39900    209.90817    44.733333    132630.49   -41642.541    2611.6567   -44254.198    33.027405   0.94166503 
   40000    208.64759    68.718272    132618.04   -41671.804    2595.9727   -44267.776     32.99939   0.94175342 
   40100    213.76051    130.60472    132690.85   -41571.971    2659.5872   -44231.558    32.965538   0.94123667 
   40200    211.45384    91.158779    132646.71   -41595.101    2630.8878   -44225.989    33.226559   0.94154984 
   40300    207.87011    105.46074    132544.95   -41580.476    2586.2993   -44166.776    33.235005   0.94227269 
   40400    216.75598    -99.00728    132620.35   -41496.635    2696.8565   -44193.491    33.048148   0.94173701 
   40500     214.3299    29.304076     132458.1   -41524.651    2666.6714   -44191.323    33.107229   0.94289054 
   40600    212.75636    -26.28207    132501.22   -41567.016    2647.0936   -44214.109    33.151014   0.94258369 
   40700      208.437   -8.7852492    132560.43   -41601.009    2593.3525   -44194.361    33.297159   0.94216269 
   40800    211.14602   -9.3261203    132507.42   -41642.776    2627.0579   -44269.834    33.207594   0.94253963 
   40900    207.31981     32.78906    132489.25   -41663.137    2579.4526   -44242.589    33.258141   0.94266889 
   41000    210.39604   -14.624963    132591.01   -41577.491    2617.7267   -44195.218    33.254211   0.94194538 
   41100    212.90959    26.076423     132469.3   -41565.202         2649   -44214.202     33.30566   0.94281081 
   41200    211.32359   -115.93457    132508.29   -41568.085    2629.2673   -44197.352    33.171863   0.94253345 
   41300    207.78808     72.35221    132495.32    -41711.42    2585.2788   -44296.699    33.190274   0.94262567 
   41400    210.46707    63.153771    132526.69   -41654.352    2618.6105   -44272.962    33.319583   0.94240259 
   41500    206.93428    86.136103    132615.75   -41650.726    2574.6559   -44225.381      33.5185   0.94176968 
   41600     208.7285    23.805439    132738.57    -41615.75    2596.9794    -44212.73    33.542009   0.94089825 
   41700    207.11529    -86.01923     132673.3   -41597.384     2576.908   -44174.292    33.583436   0.94136114 
   41800    206.90222    55.527006     132625.9   -41616.158    2574.2569   -44190.415    33.492122    0.9416976 
   41900    212.87937   -123.93458    132673.64    -41595.04    2648.6241   -44243.664    33.437158   0.94135874 
   42000     209.2004    122.69304    132584.91   -41588.191    2602.8507   -44191.041    33.678167   0.94198875 
   42100    208.40252   -10.180147    132635.13   -41586.017    2592.9235   -44178.941    33.835595   0.94163206 
   42200    211.69094    30.509077    132656.61   -41546.536    2633.8377   -44180.374    34.012514   0.94147961 
   42300    211.18039   -2.2490099    132650.87   -41524.707    2627.4856   -44152.192    33.779579   0.94152036 
   42400    209.43875    104.72164    132434.75    -41557.56    2605.8162   -44163.376    33.647298   0.94305677 
   42500    209.50611    55.020618    132564.21   -41548.145    2606.6543     -44154.8    33.947891   0.94213583 
   42600    209.77072   -110.47842    132767.97    -41555.32    2609.9465   -44165.267     33.95819   0.94068992 
   42700       206.63   -83.435972    132729.68   -41566.172    2570.8701   -44137.042     34.06945    0.9409613 
   42800    211.99529   -19.576456    132494.43   -41521.425    2637.6245   -44159.049    34.107049   0.94263202 
   42900    210.55513    93.310616    132521.99   -41593.167    2619.7061   -44212.873    33.984116   0.94243595 
   43000    211.27949   -44.851335    132631.55   -41630.259    2628.7185   -44258.977    34.076448   0.94165747 
   43100    212.72355    59.030244    132571.09    -41610.77    2646.6854   -44257.455    34.273859   0.94208691 
   43200    210.10987   -31.670484    132586.04   -41564.108    2614.1662   -44178.274    34.191341   0.94198068 
   43300    212.42576   -72.657198     132582.3    -41568.17    2642.9803    -44211.15    34.044885   0.94200725 
   43400    213.05872   -56.877473    132484.84   -41525.888    2650.8555   -44176.744    34.279511   0.94270028 
   43500    212.83856   -12.889846    132517.46    -41539.19    2648.1164   -44187.306    34.440379   0.94246819 
   43600    218.26473    42.836765    132648.28   -41447.763    2715.6282   -44163.391    34.545786   0.94153872 
   43700    213.56858    99.810751    132513.51   -41479.202    2657.1992   -44136.401    34.316519   0.94249627 
   43800    212.07251    100.08204    132597.79   -41487.625    2638.5852   -44126.211    34.402886   0.94189723 
   43900    212.19347   -33.039118    132550.63   -41527.512    2640.0902   -44167.602    34.506888   0.94223232 
   44000    211.67501   -41.080257     132601.4    -41553.39    2633.6395   -44187.029    34.664588   0.94187161 
   44100    207.65242    76.025893    132547.37   -41578.045    2583.5908   -44161.636    34.674229   0.94225552 
   44200    209.38553   -34.249505    132541.72   -41612.969     2605.154   -44218.123    34.470524   0.94229568 
   44300    209.97916   -8.0012711     132579.3   -41620.766      2612.54   -44233.306    34.603894   0.94202861 
   44400    209.26156   -13.677447    132782.85   -41578.598    2603.6116   -44182.209    34.779322   0.94058448 
   44500    212.14187    12.748156     132744.1   -41617.906    2639.4482   -44257.354    34.944069   0.94085904 
   44600    209.32782    42.953935    132762.49   -41681.992     2604.436   -44286.428    34.871847   0.94072877 
   44700    208.59268    54.667298    132940.46   -41658.671    2595.2896   -44253.961    35.203141    0.9394694 
   44800     213.2942    50.844897    132894.01   -41637.791    2653.7854   -44291.576    35.081475   0.93979776 
   44900    208.85006    106.40403    132898.57   -41601.069    2598.4918   -44199.561    35.013045   0.93976549 
   45000    211.28899    55.409856    133006.41   -41609.984    2628.8367   -44238.821    34.965552   0.93900358 
   45100    209.70019   -88.101874    132969.88   -41555.507     2609.069   -44164.576    35.067706   0.93926152 
   45200    208.88294   -41.583668    132834.91   -41625.322    2598.9008   -44224.223     35.12517   0.94021589 
   45300    207.27471    -81.10816    132873.59   -41644.261    2578.8915   -44223.152    35.113214   0.93994217 
   45400     209.9944   -51.208435    132826.77   -41626.617    2612.7296   -44239.347    35.132352   0.94027352 
   45500    208.94767    105.54123    132881.74   -41633.438    2599.7063   -44233.144    35.242432   0.93988456 
   45600    211.29639   -34.760137    132757.37   -41631.415    2628.9289   -44260.344    35.047805   0.94076506 
   45700    211.28513   -26.509944    132847.19   -41643.766    2628.7887   -44272.555    35.194158     0.940129 
   45800     213.2357    83.082764    132846.66   -41592.203    2653.0575   -44245.261    35.269554   0.94013269 
   45900    212.90372   -25.492573    132834.29   -41538.898     2648.927   -44187.825     35.29959   0.94022026 
   46000    212.51421   -22.911804    132822.91    -41515.53    2644.0808   -44159.611    35.330678   0.94030081 
   46100    217.47626     11.17445     132781.3   -41467.788    2705.8181   -44173.606    35.461889    0.9405955 
   46200    217.46322    143.97986    132859.97   -41460.374    2705.6559    -44166.03    35.543644   0.94003852 
   46300    213.43059    36.478979    132799.53   -41481.638    2655.4823    -44137.12    35.516913   0.94046635 
   46400      212.373    61.018142    132836.06   -41519.328    2642.3238   -44161.652    35.401965   0.94020773 
   46500    212.94819     29.44933    132806.51   -41533.407    2649.4803   -44182.887    35.410132   0.94041691 
   46600    212.01107    6.4107511    132897.49   -41523.317    2637.8208   -44161.138    35.532711   0.93977316 
   46700    214.07232    112.51286    133056.15   -41617.635    2663.4666   -44281.102    35.655732   0.93865251 
   46800    207.96244    63.894016    133212.49   -41675.871    2587.4482    -44263.32    35.728275   0.93755089 
   46900    213.58608   -72.019573    133046.03   -41602.046     2657.417   -44259.462    35.682385   0.93872395 
   47000    214.19269    35.332625    133176.46   -41586.454    2664.9643   -44251.418    35.599625   0.93780454 
   47100    216.24318   -52.962363    133215.14   -41566.387    2690.4762   -44256.863    35.643856   0.93753225 
   47200    214.71267   -57.244472    133107.52   -41635.174    2671.4339   -44306.608    35.737244   0.93829026 
   47300    212.43733   -76.629889    132972.54   -41660.447    2643.1243   -44303.571    35.666329   0.93924276 
   47400    207.64177   -38.902192    133079.43   -41618.683    2583.4584   -44202.141    35.614735   0.93848831 
   47500    209.91989     35.86999    133051.71   -41553.161    2611.8025   -44164.963    35.701345   0.93868382 
   47600    213.38154     91.90183    133146.19   -41503.822     2654.872   -44158.694    35.849718   0.93801776 
   47700    214.00434   -48.434459    133338.65   -41557.234    2662.6208   -44219.855    36.051271   0.93666383 
   47800    213.45118   -15.800927    133114.21   -41564.973    2655.7385   -44220.711    35.914938   0.93824311 
   47900    211.02187   -39.107836    133018.93   -41655.953    2625.5133   -44281.466    35.802353   0.93891515 
   48000    204.87572   -92.413243    133015.73   -41667.594    2549.0435   -44216.637    35.866575   0.93893778 
   48100    209.73426    48.896741    133131.19   -41635.284    2609.4929   -44244.777    36.027847   0.93812348 
   48200    208.28227   -30.953929    132952.65   -41671.399    2591.4275   -44262.826    36.034519   0.93938325 
   48300    211.82416   -64.317498    132870.14   -41660.176    2635.4953   -44295.671    35.841085   0.93996657 
   48400     213.7589    55.730329    132762.49   -41587.326    2659.5671   -44246.893    35.786079   0.94072874 
   48500    211.54652   -20.045203     132893.7   -41647.007    2632.0409   -44279.048    36.055922   0.93979995 
   48600    211.93696   -10.377049    132897.63   -41665.162    2636.8987   -44302.061    36.121009   0.93977218 
   48700      211.443    203.96163     133027.3   -41629.018    2630.7529   -44259.771    36.119822   0.93885608 
   48800    212.40149    97.613427    133088.25   -41660.057    2642.6783   -44302.735    36.173705   0.93842612 
   48900    210.80513    -105.4375    133003.44   -41648.148    2622.8166   -44270.965    36.011175   0.93902453 
   49000    206.44314   -17.545349    132885.61   -41696.774    2568.5451    -44265.32    35.866916   0.93985714 
   49100    212.90831   -61.814837    132877.43    -41684.96    2648.9841   -44333.944    36.013196   0.93991498 
   49200     209.6317    18.539338    132869.06   -41698.661    2608.2169   -44306.878    35.947672   0.93997423 
   49300    209.46529   -116.27708    132863.43   -41641.773    2606.1464   -44247.919    35.943088   0.94001404 
   49400     210.9857     4.888506    132911.66    -41618.85    2625.0632   -44243.913    36.126721   0.93967295 
   49500    211.24924    -14.00957    132850.18   -41628.583    2628.3422   -44256.925    36.131116    0.9401078 
   49600    211.63843    86.981652    132740.97   -41626.206    2633.1844   -44259.391    36.094282   0.94088123 
   49700    210.26346    77.290882    132729.03   -41628.486    2616.0771   -44244.563    36.094506   0.94096589 
   49800    211.27405   -124.12912    132730.35   -41676.607    2628.6509   -44305.258    36.057083   0.94095653 
   49900    211.77122    154.58991    132895.05   -41563.227    2634.8366   -44198.063    36.298001    0.9397904 
   50000    210.24505    104.69491    132780.45   -41600.773    2615.8481   -44216.621    36.233208   0.94060148 
   50100     214.2269    65.518168    132827.65   -41614.044    2665.3899   -44279.434    36.156888   0.94026729 
   50200    210.16598   -1.9492325    132689.04   -41650.273    2614.8644   -44265.137    36.122742   0.94124952 
   50300    212.30635   -50.704552    132753.48    -41625.41    2641.4946   -44266.905    36.312296   0.94079263 
   50400     210.1683    119.04913    132793.32   -41644.375    2614.8932   -44259.268    36.455275   0.94051035 
   50500    207.63799    43.532756    132843.26   -41686.964    2583.4113   -44270.375    36.504699   0.94015678 
   50600    208.12088    168.13191     132915.2    -41711.21    2589.4194   -44300.629    36.472156   0.93964795 
   50700    208.06467    14.034015    132899.97   -41718.362    2588.7201   -44307.082    36.287667   0.93975563 
   50800    207.90827    46.167946    132828.26   -41715.101    2586.7741   -44301.875    36.485667   0.94026294 
   50900      210.883   -151.49268    132588.76   -41623.637    2623.7854   -44247.422    36.547413   0.94196135 
   51000    209.62663   -103.57346    132580.71    -41650.14    2608.1538   -44258.293    36.522895   0.94201859 
   51100    209.90018   -147.29306    132495.96   -41685.358    2611.5573   -44296.915     36.30527   0.94262112 
   51200    207.02449    79.627555    132537.59   -41671.784    2575.7783   -44247.562    36.420841   0.94232508 
   51300    208.49717    39.183654    132621.63   -41726.152    2594.1011   -44320.253    36.566484   0.94172788 
   51400    206.77154    61.372812     132720.7   -41727.825     2572.631   -44300.456    36.527719   0.94102493 
   51500    206.68682    50.826772    132739.94   -41728.198     2571.577   -44299.775    36.563269   0.94088854 
   51600    205.17116    34.196473    132649.75   -41671.046    2552.7193   -44223.765     36.67455    0.9415283 
   51700      211.873    79.376091    132802.13   -41660.645    2636.1029   -44296.748    36.618628   0.94044796 
   51800    208.72452   -25.726033    132745.32   -41705.344    2596.9299   -44302.274    36.524284   0.94085042 
   51900    207.07774   -7.2074157    132814.73    -41742.74    2576.4408   -44319.181     36.67242   0.94035873 
   52000    207.40833    96.496717    132756.84   -41763.639     2580.554   -44344.193    36.523852   0.94076877 
   52100    207.76099   -23.847362    132821.59   -41705.617    2584.9416   -44290.558    36.550546    0.9403102 
   52200    206.64311    55.132139    132709.23   -41716.075    2571.0331   -44287.109    36.496586   0.94110627 
   52300    209.31781    42.351126    132822.31    -41699.06    2604.3115   -44303.372    36.673419   0.94030508 
   52400    209.38482   -85.102311    132649.19   -41641.959    2605.1452   -44247.104    36.643288   0.94153223 
   52500    212.94435  0.053988409    132593.29   -41630.359    2649.4325   -44279.792    36.757813   0.94192923 
   52600    209.61322   -130.18299    132628.61   -41667.328    2607.9869   -44275.315    36.774008   0.94167833 
   52700    209.65449    56.088546    132892.12     -41690.4    2608.5004     -44298.9    37.034123   0.93981108 
   52800    212.50312    71.883579    132911.43   -41661.318    2643.9428   -44305.261    37.009296   0.93967459 
   52900    212.41135     57.72005    132835.28   -41665.765     2642.801   -44308.566    36.981465   0.94021327 
   53000    210.11576   -74.183139    132809.64    -41647.36    2614.2395     -44261.6    36.899427    0.9403948 
   53100    211.39824   -44.594533    132790.66   -41695.627     2630.196   -44325.823    36.820322   0.94052918 
   53200      211.054     7.229994    132785.57   -41695.415     2625.913   -44321.328      36.8147   0.94056523 
   53300    210.04833    48.034016    132933.01    -41690.59    2613.4005   -44303.991    37.010809     0.939522 
   53400    211.00201   -98.552272     132836.5   -41761.761    2625.2662   -44387.028    37.097231   0.94020465 
   53500    207.18111   -103.23447    132750.59   -41765.506    2577.7269   -44343.233    36.973192   0.94081304 
   53600    207.60914    10.606928    132707.78   -41760.584    2583.0524   -44343.636    36.980569    0.9411166 
   53700    210.45564    170.82569    132641.33   -41789.717    2618.4682   -44408.186    36.998004   0.94158803 
   53800    206.63612    185.42718    132770.13   -41671.839    2570.9462   -44242.786    37.070215   0.94067461 
   53900    211.41823    26.721431    132737.35   -41715.316    2630.4447   -44345.761    36.950875   0.94090694 
   54000    211.37313     125.1265    132906.01   -41688.088    2629.8836   -44317.972    37.050052   0.93971291 
   54100    208.04049   -43.755376    132842.88    -41701.87    2588.4192   -44290.289    37.127265    0.9401595 
   54200    211.69712   -25.801553    132803.26   -41673.754    2633.9147   -44307.669    37.323954   0.94043996 
   54300    206.73135    63.728946    132859.02   -41653.857    2572.1311   -44225.988    37.254901   0.94004529 
   54400    210.64082   -17.763248    132737.52    -41686.88    2620.7722   -44307.653    37.178725   0.94090574 
   54500    211.93005   -37.919897    132789.32   -41675.938    2636.8127    -44312.75    37.192017   0.94053865 
   54600    212.33484    38.547418    132764.69   -41583.514    2641.8491   -44225.363    37.263788   0.94071319 
   54700    213.09461     32.86637    132944.69   -41600.995     2651.302   -44252.297     37.25633   0.93943947 
   54800    209.84903    19.418718     132982.4   -41686.809    2610.9208    -44297.73    37.245983   0.93917308 
   54900    209.36933    37.199157    132811.08   -41732.847    2604.9525   -44337.799    37.308679    0.9403846 
   55000    207.50095    115.23135    132888.27   -41784.114    2581.7063    -44365.82     37.35803   0.93983833 
   55100    206.24892   -109.56892    133001.16   -41756.939    2566.1287   -44323.068    37.371157   0.93904061 
   55200    207.06412   -23.684221    133001.26   -41769.412    2576.2713   -44345.683     37.56836    0.9390399 
   55300    209.46532   -50.254242    132939.48   -41733.232    2606.1468   -44339.379     37.46925   0.93947629 
   55400    211.81083    59.727546    133058.48   -41713.224    2635.3295   -44348.553    37.547385   0.93863611 
   55500    211.13634    24.796237    133139.13    -41653.16    2626.9375   -44280.098    37.482264   0.93806753 
   55600    208.76649    16.539285    133004.44   -41699.574     2597.452   -44297.026    37.469225   0.93901744 
   55700    210.90411   -43.492813    133057.72   -41692.078    2624.0481   -44316.126    37.379048   0.93864144 
   55800    210.10377    -60.74704    133212.79   -41706.453    2614.0904   -44320.543    37.632119   0.93754882 
   55900    212.51071   -132.47143    133138.99   -41666.752    2644.0372    -44310.79    37.645199   0.93806851 
   56000    211.83797     132.1746    133144.02   -41666.948    2635.6671   -44302.615    37.601047   0.93803308 
   56100     214.0514    5.6565259    133138.33   -41645.424    2663.2064    -44308.63    37.554619   0.93807311 
   56200    211.88633   -63.216905    133099.97   -41659.154    2636.2688   -44295.422    37.724236   0.93834353 
   56300    211.21683   -21.458665    133193.16   -41687.611    2627.9389   -44315.549    37.820689     0.937687 
   56400    208.62372   -35.418942    133140.52    -41675.99    2595.6757   -44271.666    37.924322   0.93805771 
   56500    205.80252     67.43912    133126.96    -41754.95    2560.5746   -44315.525    37.825913   0.93815328 
   56600    206.86594    12.141009    132995.35   -41759.367    2573.8055   -44333.173    37.819864   0.93908166 
   56700    209.03503    39.220631    132924.42   -41776.102    2600.7932   -44376.895    37.633304   0.93958272 
   56800    208.14738    69.403466    132988.64   -41694.613    2589.7492   -44284.362    37.670283   0.93912903 
   56900    209.53884   -14.696767    132961.36   -41669.156    2607.0615   -44276.218     37.89529   0.93932169 
   57000    212.24515     8.454166    133000.73   -41615.599    2640.7332   -44256.333    37.900126   0.93904369 
   57100    210.54571    24.856267    133070.64   -41670.557    2619.5889   -44290.146    37.830799   0.93855032 
   57200    207.89752   -13.779177    133087.41   -41717.168    2586.6404   -44303.808    37.910315   0.93843204 
   57300    205.84488    56.191354    133090.78   -41766.258    2561.1017    -44327.36    37.849009    0.9384083 
   57400    205.98812    130.99158    133062.28   -41769.433    2562.8838   -44332.317    37.784628   0.93860927 
   57500    206.67531   -66.305009    132988.99   -41815.366    2571.4338     -44386.8      37.7207   0.93912658 
   57600    206.78425   -117.73635    132856.69   -41774.325    2572.7893   -44347.115    37.806057   0.94006174 
   57700    204.00819    6.4845228    133029.58   -41818.079    2538.2498   -44356.328    37.969548   0.93884003 
   57800    204.36994    47.253218    132945.97   -41838.456    2542.7506   -44381.207    38.059581   0.93943046 
   57900    205.98344    24.926096    133045.01   -41810.738    2562.8256   -44373.563     38.30052   0.93873114 
   58000    202.21898   -55.723256    133011.97   -41820.211    2515.9886   -44336.199    38.283308   0.93896429 
   58100    209.30688    148.79665    133079.98   -41753.091    2604.1755   -44357.266    38.211199   0.93848441 
   58200    214.20268      25.3533    133079.99   -41707.463    2665.0886   -44372.551    38.209964   0.93848436 
   58300    210.74882   -97.890899     133182.6   -41656.908     2622.116   -44279.024    38.252121   0.93776129 
   58400    213.27953    79.434295    133131.67   -41662.415    2653.6028   -44316.018    38.390779   0.93812007 
   58500    212.53281     29.03173    133156.02   -41666.374    2644.3123   -44310.687     38.49636   0.93794851 
   58600    212.62992   -23.217527    133127.57   -41638.645    2645.5204   -44284.165    38.467909   0.93814897 
   58700    215.09776   -148.71725    133141.61   -41643.706     2676.225   -44319.931    38.422265   0.93805001 
   58800    211.51838    1.9085222    133041.75   -41685.202    2631.6907   -44316.893    38.344458   0.93875411 
   58900     208.0263   -38.867711    132989.19   -41725.131    2588.2427   -44313.374    38.347213   0.93912512 
   59000    210.29548    90.903203    133017.23   -41709.903    2616.4756   -44326.378    38.589343   0.93892715 
   59100    212.97016    119.08368    133024.28   -41710.011    2649.7537   -44359.765    38.666585   0.93887741 
   59200    206.50335   -129.24124    133048.07   -41725.166    2569.2943    -44294.46    38.625229   0.93870952 
   59300    206.13538    51.553229     132991.8   -41717.541     2564.716   -44282.257    38.591339    0.9391067 
   59400    207.90718   -3.1885061    132993.24   -41766.908    2586.7606   -44353.668    38.558543    0.9390965 
   59500    205.86015    60.249547    132945.61   -41726.085    2561.2917   -44287.376    38.435699   0.93943301 
   59600    210.42649   -59.710153    132841.05   -41709.979    2618.1056   -44328.084    38.697966   0.94017242 
   59700     208.7584   -24.394726     132967.3   -41741.979    2597.3513    -44339.33    38.788029   0.93927974 
   59800    207.44402    53.266217    132935.78   -41734.197    2580.9979   -44315.195    38.693562   0.93950245 
   59900    210.13142       0.7747    133008.45   -41711.987    2614.4343   -44326.421    38.575669   0.93898913 
   60000    210.51547   -5.0744352    133136.86   -41754.261    2619.2127   -44373.473    38.553676   0.93808347 
   60100    211.56965    61.819647    133068.89   -41710.177    2632.3286   -44342.505    38.660749   0.93856266 
   60200    213.40762    121.10265    133119.33    -41692.41    2655.1965   -44347.607    38.779791   0.93820704 
   60300    210.91071   -67.099653    133085.37   -41660.043    2624.1303   -44284.173    38.843413   0.93844646 
   60400    209.94332   -167.66257    133169.55   -41613.927     2612.094   -44226.021    38.935461   0.93785325 
   60500    213.32481    31.641327    133170.85   -41654.485    2654.1662   -44308.651    39.232123   0.93784407 
   60600    215.49139   -97.209187       133118    -41689.44    2681.1225   -44370.563    39.116105   0.93821637 
   60700    211.99024   -21.081254    132921.29   -41704.652    2637.5616   -44342.214    38.969219   0.93960485 
   60800    208.01044    97.884225    132967.79   -41658.964    2588.0454   -44247.009     39.11362   0.93927628 
   60900    209.25247    16.543818    133059.44   -41656.094    2603.4985   -44259.592    39.036183   0.93862931 
   61000    205.93629    94.230385    133007.57   -41693.372     2562.239   -44255.611    38.797571   0.93899537 
   61100    207.63483    27.640138    132940.38   -41736.588     2583.372    -44319.96    38.847305   0.93946996 
   61200    207.80283    54.383808    132984.24   -41732.855    2585.4622   -44318.317    38.717404   0.93916012 
   61300    208.60909    22.987986    133079.92   -41725.085    2595.4937   -44320.579    38.962393   0.93848488 
   61400    208.43397   -46.945258    133190.01   -41755.842    2593.3148   -44349.157    39.072803   0.93770914 
   61500    206.19444    17.403282    133095.56   -41763.922    2565.4508   -44329.373    39.027825   0.93837458 
   61600    210.29207   -65.714919    133050.74   -41730.415    2616.4331   -44346.848     38.87259    0.9386907 
   61700    208.35132   -65.641597    133106.91   -41803.558    2592.2865   -44395.844    39.013175   0.93829456 
   61800    207.32172    37.070815    133207.63   -41877.196    2579.4763   -44456.672    39.113041   0.93758514 
   61900    208.95722   -37.716208    133207.39   -41815.747    2599.8251   -44415.572    39.127865   0.93758678 
   62000    211.16767    71.091042    133194.94   -41764.203    2627.3272   -44391.531    39.153306   0.93767445 
   62100    209.38735    63.034161    133197.26   -41786.784    2605.1767   -44391.961    39.059817   0.93765813 
   62200    210.92572    -78.21242    133212.14   -41742.805    2624.3169   -44367.122    39.102904   0.93755336 
   62300    208.44592   -59.822304    133292.95   -41782.112    2593.4635   -44375.575    39.030373   0.93698495 
   62400    209.51638    122.25295    133363.39   -41726.798    2606.7822    -44333.58     39.26464   0.93649005 
   62500     206.7243   -111.62727    133301.38   -41734.592    2572.0433   -44306.636    39.166565   0.93692573 
   62600     205.2817   -59.272856    133354.99   -41740.332    2554.0946   -44294.427    39.205722   0.93654906 
   62700    210.42415    142.81145     133388.8   -41763.858    2618.0765   -44381.935    39.270379   0.93631171 
   62800    209.61377   -69.563434    133378.49   -41755.731    2607.9938   -44363.724    39.287815   0.93638402 
   62900    208.16161    84.875074    133346.59   -41710.661    2589.9261   -44300.587    39.133868   0.93660808 
   63000    215.64916   -37.783586    133234.65   -41685.708    2683.0855   -44368.794    39.156746   0.93739498 
   63100    211.75929   -1.9662222    133229.68   -41680.385    2634.6882   -44315.074    39.227249   0.93742996 
   63200    211.46313    8.6041703    133226.86   -41706.096    2631.0034   -44337.099    39.163748   0.93744976 
   63300     207.1986   -134.26539    133113.72   -41727.305    2577.9445    -44305.25    39.334565   0.93824654 
   63400    215.18907     -23.7507    133259.16   -41647.634    2677.3612   -44324.996    39.353634    0.9372226 
   63500    205.68662   -95.811945    133050.95   -41730.593    2559.1326   -44289.726    39.174923   0.93868921 
   63600    209.37932    68.551762    133234.26   -41737.406    2605.0768   -44342.483    39.250895   0.93739775 
   63700    210.22319    -29.34527    133257.92   -41746.219    2615.5762   -44361.795     39.31809   0.93723131 
   63800    207.15618    61.390271    133271.06   -41846.014    2577.4167    -44423.43    39.201607   0.93713887 
   63900    206.96028    14.515058    133322.62   -41840.886    2574.9794   -44415.865    39.266562   0.93677642 
   64000    207.08128   -112.25161    133230.38   -41823.836    2576.4848   -44400.321    39.542676   0.93742503 
   64100    209.00919    117.49188    133278.35   -41736.518    2600.4717   -44336.989    39.383077   0.93708762 
   64200    211.48124   -30.746373    133327.63   -41743.059    2631.2287   -44374.288      39.2943   0.93674127 
   64300    214.03042    100.12139    133454.51   -41650.399    2662.9453   -44313.345    39.268681   0.93585065 
   64400    210.73232    18.414384    133470.88   -41683.458    2621.9107   -44305.369    39.343301   0.93573586 
   64500    211.41957    35.064141     133483.7   -41675.647    2630.4614   -44306.109    39.455252   0.93564598 
   64600    208.90951    96.410677    133294.26   -41723.652    2599.2315   -44322.884    39.500936   0.93697574 
   64700    211.57632   -1.9323071    133225.67   -41739.009    2632.4116   -44371.421    39.478629   0.93745816 
   64800    212.64437   -91.323409    133422.63   -41762.024    2645.7003   -44407.725    39.201767   0.93607426 
   64900    206.98956   -34.057474    133477.99   -41744.682    2575.3436   -44320.025    39.310348   0.93568606 
   65000    212.04735    38.596076    133358.71   -41708.665    2638.2722   -44346.937     39.48458   0.93652293 
   65100    208.79152   -119.19009    133365.18   -41729.834    2597.7635   -44327.597    39.539596   0.93647748 
   65200    205.08606     83.95283    133248.49   -41716.781    2551.6605   -44268.442    39.482739   0.93729764 
   65300    212.79881    50.471407     133183.1   -41715.774    2647.6218   -44363.396    39.569184   0.93775778 
   65400    211.16466    48.057094    133215.17   -41659.823    2627.2898   -44287.112    39.567073   0.93753202 
   65500    207.61008    71.543712    133115.72   -41717.341    2583.0641   -44300.405     39.48906   0.93823248 
   65600    212.40323   -4.1694543       133165   -41746.788       2642.7   -44389.488    39.407713   0.93788526 
   65700    211.19079    68.531257     133119.7   -41800.279    2627.6149   -44427.894    39.658602    0.9382044 
   65800    208.27793     27.46592    133143.17   -41810.498    2591.3734   -44401.872     39.81524   0.93803907 
   65900    210.20575    134.88372    133090.77   -41781.137    2615.3591   -44396.496     39.63212   0.93840839 
   66000     209.8421   -97.705087    133212.62   -41691.234    2610.8347   -44302.069    39.658668   0.93755002 
   66100    210.01279    -53.42709       133278   -41646.214    2612.9583   -44259.172    39.737964   0.93709009 
   66200     212.4019   -48.505902     133238.6   -41624.257    2642.6835    -44266.94    39.813352   0.93736717 
   66300     212.5801   -108.05194    133265.79   -41659.114    2644.9006   -44304.014     39.78282   0.93717595 
   66400    212.56707   -7.2174045    133297.18   -41694.797    2644.7385   -44339.535    39.959147   0.93695524 
   66500    212.17361   -16.185768    133392.76   -41712.266     2639.843   -44352.109    40.134847   0.93628388 
   66600    210.01247     38.90419    133395.64   -41726.239    2612.9544   -44339.194    40.182706   0.93626369 
   66700    208.70954   -80.654761     133321.7   -41743.368    2596.7434   -44340.111    39.956237   0.93678291 
   66800    206.61201   -23.508067     133243.5   -41677.694    2570.6461    -44248.34    39.881602   0.93733274 
[...]
   84600     205.3344   -47.252124    133238.13   -41848.183    2554.7503   -44402.933    43.778998   0.93737046 
   84700    208.32544    63.930231    133231.38   -41851.851    2591.9645   -44443.815    43.706868   0.93741797 
   84800     208.7614   -78.493307    133261.39   -41824.651    2597.3887    -44422.04    43.849833   0.93720686 
   84900    208.98623    1.1854927    133184.38   -41794.728    2600.1861   -44394.914    43.745236   0.93774876 
   85000    208.88581    110.89267    133361.97   -41741.773    2598.9366   -44340.709    43.578346   0.93650003 
   85100    208.28468   -97.063381    133473.51    -41747.89    2591.4574   -44339.347    43.880466   0.93571742 
   85200    207.73965   -123.87614    133524.28   -41761.427    2584.6761   -44346.103    43.883599   0.93536168 
   85300     210.3694    -67.73209    133526.65   -41805.064    2617.3953   -44422.459    43.926595   0.93534506 
   85400    210.15617    3.0846504    133470.24   -41792.795    2614.7424   -44407.537    44.039637   0.93574039 
   85500    214.70122    23.759374    133461.78   -41770.433    2671.2913   -44441.725    44.015142   0.93579967 
   85600    209.91713   -165.63602    133448.15   -41759.879    2611.7682   -44371.647    43.968283   0.93589524 
   85700    210.75921    124.15512    133236.83   -41798.767    2622.2452   -44421.012    43.828109   0.93737966 
   85800    208.41259    -59.19161    133209.29   -41805.752    2593.0488   -44398.801    43.703949    0.9375734 
   85900    214.20389     113.9727    133452.62   -41708.815    2665.1037   -44373.919    43.985606   0.93586392 
   86000    213.29346   -26.926787    133380.02   -41766.168    2653.7762   -44419.944    43.820112   0.93637331 
   86100    214.17835   -47.332459    133352.61   -41753.518    2664.7859   -44418.303    43.887478   0.93656578 
   86200    209.76485   -3.0560025    133232.76   -41725.835    2609.8735   -44335.708    44.026706   0.93740824 
   86300    215.30095     66.29322    133300.46   -41758.312    2678.7532   -44437.065    43.999467   0.93693216 
   86400    208.21467   -19.645561    133383.65   -41771.761    2590.5864   -44362.348    44.162334   0.93634784 
   86500    209.86387    192.34281    133508.82    -41758.12    2611.1055   -44369.226    44.198538      0.93547 
   86600    213.89852   -18.162586    133579.64   -41712.551    2661.3043   -44373.856    44.248684   0.93497399 
   86700    214.33783   -108.53874    133424.73   -41711.754    2666.7701   -44378.525    44.100515    0.9360595 
   86800      208.463   -58.505707    133396.18    -41778.98    2593.6761   -44372.656      44.1105   0.93625986 
   86900    209.50296    87.283702    133401.41   -41747.762    2606.6151   -44354.377    43.940222    0.9362232 
   87000    210.14276    -165.9873    133478.19   -41757.825    2614.5755     -44372.4    43.969843   0.93568463 
   87100    208.58612   -102.65539    133371.08   -41789.343    2595.2079    -44384.55    44.186297   0.93643607 
   87200    211.65577    41.827513    133260.15   -41778.061    2633.4001   -44411.462    44.049167   0.93721559 
   87300    212.72705    -73.90866    133463.17   -41788.536    2646.7289   -44435.265    44.087009   0.93578991 
   87400    212.97132    56.760048    133293.07   -41800.304    2649.7681   -44450.072    44.033948   0.93698416 
   87500    208.68152    136.21551    133365.77   -41811.678    2596.3949   -44408.073    44.294673   0.93647336 
   87600    208.27222    -34.20685    133440.62   -41827.504    2591.3024   -44418.807    44.363306   0.93594808 
   87700    210.63834    89.473421     133555.8   -41835.558    2620.7414   -44456.299    44.209756   0.93514093 
   87800     207.9746    78.217814    133442.35   -41819.903    2587.5995   -44407.502     44.20063   0.93593594 
   87900    210.35429    -26.52051    133294.75    -41834.08    2617.2073   -44451.288    44.201342   0.93697229 
   88000    208.24505    162.71628    133470.34   -41854.587    2590.9643   -44445.552     44.30485    0.9357397 
   88100    212.07512     89.10558    133601.46   -41787.282    2638.6177     -44425.9    44.281446   0.93482132 
   88200    210.27732    18.076802    133497.37   -41771.312    2616.2496   -44387.562    44.312746   0.93555022 
   88300    211.32677   -3.9619675    133535.17   -41810.563    2629.3068    -44439.87    44.303122   0.93528539 
   88400    204.45939   -82.431909    133406.99   -41919.175    2543.8635   -44463.038    44.201244   0.93618401 
   88500    212.76622   -26.853292    133504.92   -41827.228    2647.2163   -44474.444    44.126005   0.93549731 
   88600    209.32944   -37.342937    133541.93   -41786.904    2604.4562    -44391.36    44.440222   0.93523806 
   88700    211.44541    3.3124878    133542.69   -41771.462    2630.7829   -44402.244    44.427953   0.93523269 
   88800    216.31636   -5.7144698    133430.22   -41709.553    2691.3868    -44400.94    44.239803   0.93602102 
   88900    209.90501   -105.30146    133538.01   -41757.628    2611.6174   -44369.246    44.223025   0.93526547 
   89000    212.54206    66.265797    133616.73   -41746.782    2644.4273   -44391.209    44.229175   0.93471447 
   89100    208.85374    62.198002    133612.07   -41838.087    2598.5376   -44436.624    44.280047   0.93474708 
   89200    206.64398   -48.424319    133653.45   -41858.374     2571.044   -44429.418    44.282651   0.93445767 
   89300    204.33748    -56.08348    133487.15     -41871.2    2542.3467   -44413.546    44.279763   0.93562184 
   89400    206.82416    45.736027    133509.02   -41887.555    2573.2858   -44460.841    44.448717   0.93546854 
   89500    210.09569    88.784089    133472.88   -41917.548    2613.9898   -44531.538    44.458835   0.93572186 
   89600    202.02718   -58.224784     133568.5   -41955.901    2513.6022   -44469.503    44.276002   0.93505196 
   89700    203.56414    63.439499    133576.78   -41909.702    2532.7249   -44442.427    44.307444   0.93499403 
   89800    208.42942    52.829632    133781.48   -41869.869    2593.2582   -44463.127    44.511485   0.93356337 
   89900    207.67441    33.907028     133895.4   -41922.595    2583.8645    -44506.46    44.673147   0.93276909 
   90000    208.60905   -109.51972    133820.62   -41836.658    2595.4932   -44432.152    44.440486   0.93329032 
   90100    204.67148   -76.771716    133777.66   -41850.572    2546.5023   -44397.075     44.51287   0.93359007 
   90200    210.11271   -34.208191    133626.02   -41880.556    2614.2016   -44494.757     44.65508   0.93464952 
   90300    205.22482     9.312803    133825.21   -41888.197    2553.3869   -44441.583    44.725806   0.93325835 
   90400     207.5067     32.05307    133692.29   -41875.874    2581.7779   -44457.652    44.612645   0.93418622 
   90500    208.46623   -38.667604    133667.38   -41850.954    2593.7163   -44444.671    44.415404   0.93436028 
   90600    213.58624    63.918731    133743.28    -41762.32    2657.4189   -44419.739    44.361629   0.93383001 
   90700    209.73785   -37.198295    133759.14   -41772.384    2609.5376   -44381.922    44.465564   0.93371932 
   90800     208.0596     20.55803    133584.31   -41805.088     2588.657   -44393.745    44.641862    0.9349413 
   90900    208.97271    168.20144    133715.28   -41895.096    2600.0178   -44495.114    44.777192    0.9340256 
   91000    205.88589   -111.96198    133530.25   -41918.777    2561.6119   -44480.389    44.713059    0.9353198 
   91100    207.11336    111.37537    133562.63   -41900.242     2576.884   -44477.126    44.640598   0.93509311 
   91200    209.06964   -54.293895    133632.16   -41864.538    2601.2238   -44465.762     44.39353   0.93460657 
   91300    209.75325   0.24231337    133628.97   -41769.231    2609.7293    -44378.96     44.69139   0.93462883 
   91400    214.34044    12.410295    133680.57   -41763.275    2666.8025   -44430.077    44.713006   0.93426812 
   91500    215.03291   -33.373914    133551.87    -41779.18    2675.4182   -44454.599    44.529355   0.93516842 
   91600    209.56215    74.743961    133497.35     -41813.5    2607.3515   -44420.851    44.687955   0.93555035 
   91700    207.35562   -28.556664    133622.69   -41887.141    2579.8981   -44467.039    44.742455   0.93467276 
   91800    208.52741   -21.201047    133631.49   -41848.856    2594.4774   -44443.334    44.849533   0.93461126 
   91900     207.9811    19.133062    133748.25    -41852.46    2587.6803   -44440.141    44.737596   0.93379531 
   92000    205.07456   -39.094816    133754.22   -41865.579    2551.5174   -44417.097    44.650902   0.93375367 
   92100     208.4317      40.1271    133795.02   -41900.469    2593.2867   -44493.755    44.683747   0.93346891 
   92200    208.28126    49.237413    133842.06   -41841.272    2591.4149   -44432.687    44.851214   0.93314085 
   92300    213.52243   -110.41412    133793.66   -41761.753    2656.6249   -44418.378    44.821275   0.93347841 
   92400     213.0137    60.822914    133677.36   -41760.838    2650.2954   -44411.134    44.742694   0.93429051 
   92500    209.34785    -2.209484    133678.33   -41808.645    2604.6853   -44413.331    44.904804   0.93428376 
   92600    210.76022  -0.91420965    133705.06   -41779.081    2622.2579   -44401.338    44.755796   0.93409696 
   92700    211.22519   -84.920855    133800.24   -41766.503     2628.043   -44394.546    44.756262   0.93343251 
   92800    208.99368   -50.302908    133695.26   -41803.392    2600.2787    -44403.67    44.775414   0.93416541 
   92900    211.94535   -55.710105    133623.51   -41774.285     2637.003   -44411.288    44.832345   0.93466706 
   93000    208.03075   -112.22885    133514.02   -41800.376     2588.298   -44388.674    45.027147   0.93543355 
   93100    210.50567   -16.882967    133520.72   -41732.976    2619.0907   -44352.067    44.937515   0.93538658 
   93200    210.82015     108.0576    133559.59   -41750.443    2623.0035   -44373.446    44.846634   0.93511439 
   93300    207.60521    18.341738    133510.25   -41773.641    2583.0035   -44356.645      44.7794   0.93545995 
   93400    208.48512     94.08195    133574.15    -41804.57    2593.9513   -44398.521    44.720633    0.9350124 
   93500     206.7381   -18.490284    133557.05   -41846.353     2572.215   -44418.568    44.735245   0.93513213 
   93600    206.00402    17.176294    133570.11   -41900.726    2563.0816   -44463.807    44.944658   0.93504072 
   93700    207.44276   -86.465821    133758.76   -41864.498    2580.9823   -44445.481    44.809454   0.93372198 
   93800    208.66026   -200.39522    133678.56   -41835.931    2596.1303   -44432.062    44.746246   0.93428216 
   93900    207.82956   -4.7575321    133701.36     -41824.3    2585.7949   -44410.095    44.881443   0.93412282 
   94000    207.51379   -44.368677    133550.22   -41831.288    2581.8661   -44413.154    44.930467   0.93517995 
   94100    214.69207   -15.794644    133620.52   -41836.122    2671.1775     -44507.3    44.707787   0.93468793 
   94200    207.97103     9.732578    133529.93   -41821.163     2587.555   -44408.718    44.696291    0.9353221 
   94300     211.7121    16.393152    133361.21   -41766.764     2634.101   -44400.865    45.002722   0.93650539 
   94400    210.93723    21.151789     133281.8   -41750.724    2624.4602   -44375.184    45.136777   0.93706339 
   94500    216.79392     7.638432    133330.54   -41687.726    2697.3285   -44385.055    44.958729   0.93672082 
   94600    214.77833    148.52009    133333.81   -41729.289    2672.2508    -44401.54    44.845985   0.93669783 
   94700    210.68759    103.84433     133387.7   -41773.503    2621.3542   -44394.857    44.841297   0.93631941 
   94800    209.09556    82.374584    133400.02   -41776.538    2601.5462   -44378.084    44.702037   0.93623294 
   94900     210.8687   -64.217893    133472.35   -41753.206    2623.6076   -44376.813    44.938451   0.93572558 
   95000    211.58858   -18.299391    133439.84   -41746.262    2632.5643   -44378.826    44.941496   0.93595352 
   95100    210.40351    27.336135    133394.73   -41729.696    2617.8196   -44347.515    44.979207   0.93627004 
   95200     210.0505   -108.09224    133462.69   -41752.602    2613.4276    -44366.03    45.108184   0.93579327 
   95300    212.76791   -72.416433    133544.87   -41660.477    2647.2374   -44307.714    45.096635   0.93521742 
   95400    212.77074    78.777718    133542.05   -41712.947    2647.2725    -44360.22    44.999923   0.93523716 
   95500    212.09667    19.112817    133585.67   -41721.665    2638.8858   -44360.551    45.001619   0.93493179 
   95600    213.51899      26.8137    133607.18    -41710.73    2656.5822   -44367.312    45.162097   0.93478126 
   95700    207.69311   -16.038259    133767.98   -41765.728    2584.0972   -44349.826    45.138538   0.93365758 
   95800    206.94583   -110.57443    133635.21   -41822.967    2574.7995   -44397.767    44.918948   0.93458519 
   95900    210.46784    46.307301    133567.88   -41766.923      2618.62   -44385.543    44.993716   0.93505636 
   96000    207.09373   -56.969762    133566.64   -41829.205    2576.6397   -44405.845     45.00896   0.93506499 
   96100    209.66057   -2.9942844    133393.85   -41777.877    2608.5761   -44386.453    44.993004    0.9362762 
   96200    208.10979     47.95816    133333.37   -41813.656    2589.2814   -44402.937    44.995529   0.93670094 
   96300    209.84998    40.607723    133485.37   -41760.652    2610.9327   -44371.585    45.059864   0.93563432 
   96400    213.11726    129.38513    133377.82   -41732.969    2651.5839   -44384.553    45.068044   0.93638877 
   96500    211.37951    47.073045     133418.9    -41771.01     2629.963   -44400.973    45.174772   0.93610042 
   96600    210.27289    169.30945    133459.91   -41773.569    2616.1945   -44389.763    45.294352   0.93581279 
   96700    203.37696   -43.955663    133347.58   -41846.974    2530.3961    -44377.37    45.496717   0.93660112 
   96800    207.29108    46.464178    133430.83   -41900.582    2579.0951   -44479.677    45.324892   0.93601677 
   96900    206.23664     95.89353    133507.99   -41845.091    2565.9759   -44411.067    45.457293    0.9354758 
   97000    211.16689   -6.4393861     133639.2   -41852.824    2627.3176   -44480.142    45.432925   0.93455728 
   97100    206.69832    52.059615    133507.96   -41831.678    2571.7201   -44403.398    45.265791     0.935476 
   97200    207.13682    18.607079     133581.7   -41846.495    2577.1758   -44423.671    45.422258    0.9349596 
   97300    205.50103   -89.109674     133561.6   -41846.957    2556.8236   -44403.781    45.452075   0.93510028 
   97400    207.80434    -6.741448    133452.83   -41850.683    2585.4811   -44436.164    45.667196   0.93586247 
   97500    212.50052    -36.96617    133510.41   -41755.701    2643.9105   -44399.611     45.52417   0.93545883 
   97600    208.80049   -62.702952    133281.42   -41827.756     2597.875   -44425.631    45.480793   0.93706604 
   97700     209.6421   -77.014214     133415.3   -41758.581    2608.3463   -44366.928    45.359302   0.93612571 
   97800    207.61218   -86.777649    133412.14   -41732.453    2583.0902   -44315.544    45.262837   0.93614787 
   97900    210.45253   -34.707138    133446.41   -41699.628    2618.4296   -44318.058    45.421412   0.93590744 
   98000    211.17475    215.64513    133584.58   -41723.613    2627.4153   -44351.028    45.578052   0.93493945 
   98100    209.98107    48.254423    133637.31   -41792.113    2612.5638   -44404.677    45.750962   0.93457052 
   98200    212.26037    44.597016    133654.11   -41779.305    2640.9225   -44420.227    45.772378   0.93445303 
   98300     214.6356    92.448667    133664.89   -41793.065    2670.4749    -44463.54    45.675866   0.93437766 
   98400    208.83741   -73.452275    133696.86   -41805.112    2598.3344   -44403.447    45.691546   0.93415424 
   98500    206.70415   -13.924191     133763.7   -41808.524    2571.7925   -44380.316    45.558889    0.9336875 
   98600    212.29026    45.250891    133490.61    -41828.34    2641.2944   -44469.634    45.510383   0.93559754 
   98700    207.20379     19.06096    133516.94   -41876.691    2578.0091     -44454.7    45.588849   0.93541305 
   98800    208.18887   -56.348188    133333.22   -41846.861    2590.2654   -44437.126    45.537382   0.93670195 
   98900    207.25074    55.803483    133264.24   -41851.563    2578.5933   -44430.157    45.616735   0.93718681 
   99000    204.80576     104.9165    133199.53   -41887.389     2548.173   -44435.562    45.469607   0.93764212 
   99100    208.54982    87.565124    133359.52   -41813.261    2594.7563   -44408.017      45.6159   0.93651725 
   99200    209.12468    125.73407    133370.48   -41808.485    2601.9086   -44410.394     45.68563   0.93644026 
   99300    210.35205   -12.907821    133337.22   -41767.578    2617.1795   -44384.757    45.686233   0.93667385 
   99400     208.3993    138.49982    133475.35   -41737.151    2592.8834   -44330.035    45.876535   0.93570456 
   99500    214.93448   -3.3460256    133410.43   -41632.604    2674.1936   -44306.797    45.950046   0.93615988 
   99600    214.32277    63.057042    133348.11   -41656.891    2666.5827   -44323.474    45.836344   0.93659739 
   99700    217.63028    4.9033766    133434.99   -41668.369    2707.7344   -44376.104    45.749978   0.93598759 
   99800    212.61315    85.357248    133493.56   -41700.636    2645.3117   -44345.947    45.781197   0.93557692 
   99900    213.31751    17.654176    133494.49   -41772.043    2654.0753   -44426.118    45.687441   0.93557039 
  100000    212.33307    84.237175    133423.16   -41786.038     2641.827   -44427.865    45.680891   0.93607052 
  100100    212.49901   -45.346803    133521.27   -41719.286    2643.8916   -44363.178    45.689688   0.93538274 
  100200    214.83275    67.350991    133541.16    -41732.04    2672.9279   -44404.968    45.713915   0.93524341 
  100300    212.90726    134.20464     133410.4   -41717.288    2648.9711   -44366.259    45.763177   0.93616009 
  100400     211.1831   -57.673433    133495.89   -41752.518    2627.5193   -44380.037    45.705838   0.93556055 
  100500    213.02874    -96.19181    133344.46   -41680.834    2650.4825   -44331.317    45.761913   0.93662305 
  100600    206.16571    -31.31088     133267.5   -41755.767    2565.0934    -44320.86     45.67219   0.93716393 
  100630    213.35553    129.75113    133326.99   -41740.757    2654.5485   -44395.306    45.641977   0.93674578 
Loop time of 74.0712 on 6 procs for 100000 steps with 4175 atoms

Performance: 583.223 ns/day, 0.041 hours/ns, 1350.052 timesteps/s
98.4% CPU use with 6 MPI tasks x no OpenMP threads

MPI task timing breakdown:
Section |  min time  |  avg time  |  max time  |%varavg| %total
---------------------------------------------------------------
Pair    | 57.981     | 60.126     | 61.509     |  15.4 | 81.17
Neigh   | 4.7551     | 4.775      | 4.824      |   1.1 |  6.45
Comm    | 5.1882     | 6.6404     | 8.786      |  46.6 |  8.96
Output  | 0.15959    | 0.16049    | 0.16472    |   0.5 |  0.22
Modify  | 1.7495     | 1.7696     | 1.7945     |   1.2 |  2.39
Other   |            | 0.5994     |            |       |  0.81

Nlocal:        695.833 ave         709 max         684 min
Histogram: 2 0 0 0 1 0 1 1 0 1
Nghost:        1461.83 ave        1476 max        1445 min
Histogram: 1 0 0 2 0 0 1 0 1 1
Neighs:        0.00000 ave           0 max           0 min
Histogram: 6 0 0 0 0 0 0 0 0 0
FullNghs:      19084.0 ave       19581 max       18668 min
Histogram: 2 0 0 0 1 1 1 0 0 1

Total # of neighbors = 114504
Ave neighs/atom = 27.426108
Neighbor list builds = 5186
Dangerous builds = 0

undump              1
unfix               2
unfix               3
unfix               4


################################################
#######         Run Simulation         #########
################################################

reset_timestep      0
log                 log.run_${NAME}
log                 log.run_liquid_density_MLmW
