LAMMPS data file via write_data, version 29 Oct 2020, timestep = 800000

4175 atoms
1 atom types

-0.21841301317622452 50.21841301317541 xlo xhi
-0.21841301317622452 50.21841301317541 ylo yhi
-0.21841301317622452 50.21841301317541 zlo zhi

Masses

1 18.015

Atoms # atomic

2047 1 1.3860906173591612 2.6610211217166206 1.552995291833662 0 0 0
556 1 44.00995939563168 24.607642090385227 2.375728292545827 -1 0 0
3204 1 5.2453246216216955 1.9174732088260158 1.334978239814231 1 1 1
3458 1 26.379516430054732 7.535924790436445 0.21925050126337908 -1 0 1
1012 1 1.0304723002445766 0.05206292692634035 0.3281071117103319 1 0 0
3719 1 22.52929657611669 7.4274534738134 0.08008146567572932 1 1 0
2758 1 12.485768741859363 3.3491794953162715 1.6601791981214469 0 1 1
616 1 33.1709322697384 20.023316745945507 0.42930146775174494 0 0 0
278 1 14.867552932106301 1.7370260938930315 1.945553682434309 0 1 0
761 1 29.04943532290154 6.771320275086003 0.09153583241465668 -1 0 0
2477 1 19.35776181710029 1.0718048218801504 3.301156958582312 1 0 0
2694 1 21.050633413831378 3.16698750370969 2.044642657197647 -1 1 0
2632 1 13.817741640094534 19.343561621434826 0.020548751669882986 0 0 1
1453 1 9.860125303574437 15.91399054278435 0.7618861617935683 0 0 1
779 1 29.58658231987734 1.8274170052965526 2.077503391859617 0 1 1
3079 1 32.176343415173584 2.2225938417471913 1.4160529405243838 -1 0 -1
1014 1 33.85219920712331 2.4050844688693878 3.4320155473985703 0 1 0
1336 1 35.83553682746183 23.441124009362724 12.882642426653025 0 0 1
258 1 14.116534057272478 0.5900954427664241 16.432113070465356 0 0 0
2165 1 17.497271620468798 1.0708653252915667 13.780218734392408 0 1 0
2350 1 43.01574510271255 1.717180805426624 3.337811993283573 -1 1 -1
1293 1 45.14208701384188 1.7555814839371537 1.5716646575497295 0 0 1
449 1 -0.11244855612350796 5.551002247535533 1.7989833071153014 0 0 -1
3730 1 3.4911813256682342 3.748903781785867 -0.035213120088430694 0 -1 1
2112 1 1.6807253470792431 6.205660957206895 3.631683338030406 0 1 0
3182 1 8.871326599656264 5.003436366260102 0.657942533146253 0 0 0
3962 1 46.0160840783324 0.1267403814694144 12.611783918294208 -1 1 0
3196 1 16.744173794524098 2.778045843942479 -0.13880473111824093 1 0 1
851 1 34.69559839293647 15.73240979215667 0.4661110518815679 -1 -1 0
2303 1 20.48097418244284 6.035400305744482 4.332922801453685 0 1 1
540 1 24.532020988047954 5.719554885696489 1.463470487511007 0 0 0
2260 1 27.078342951112848 4.345096223511645 1.972731891592273 -1 0 1
3381 1 44.39778476083392 24.20344394046582 10.803456045580887 0 2 0
2654 1 15.533911784112359 10.146032138214768 -0.19421801455002038 0 0 1
3173 1 37.47445295722563 4.939738622299764 1.2275733338771122 -2 0 1
3895 1 43.033318984201095 5.549202462641538 0.5728895697687778 -1 0 1
1496 1 41.70197547998918 4.220277148357648 2.6993977614407347 0 1 0
3478 1 47.056204593176275 3.3048169278452493 2.94573492314255 -1 1 0
3915 1 10.464496838173227 1.4831327760681159 0.03461846849821948 1 1 1
915 1 38.75400355685868 22.665551522694816 15.874940569183316 -1 0 1
234 1 30.1949724185012 13.396448692227837 0.9134401818302904 -1 1 0
3701 1 7.3510542511882075 8.56281077253127 1.9136366714428799 0 1 0
3474 1 20.9452262376447 13.895980834020387 1.2082297306176069 0 1 0
1736 1 10.992885616503472 8.809004845682939 1.8839066668848972 0 0 1
566 1 13.135906336092564 7.165074636426488 0.11292892852379655 0 0 0
3784 1 20.68690572069488 24.689406169887494 14.447716247237844 0 1 1
3306 1 17.41126509120002 5.220431052518868 1.2404775975905988 0 1 1
2435 1 23.14400649369424 9.38326528635946 3.910998460532058 0 0 0
1308 1 22.92110609871678 23.62834668408072 1.4273023570897327 0 0 0
598 1 10.641752754701427 0.12905979299429965 10.903009243166041 0 0 0
3751 1 33.262136332793204 6.522767626030058 1.6610401808854471 0 1 1
2542 1 30.89031416996491 10.55121238904659 0.6541807859357893 1 1 -1
2366 1 34.83601121796236 8.776683910568035 1.8607380126445907 0 0 0
2857 1 37.11914515272621 7.860621171533916 0.5499488301430263 0 1 0
1727 1 39.55683799064373 8.92105041743712 1.3752591070950029 0 -1 1
3672 1 43.71447078842009 7.873008323261031 1.9839029804118669 -1 0 1
3222 1 41.33878476924889 6.773982398536332 3.8031913066871095 0 0 0
1970 1 46.57140168102785 7.733211119352078 2.125545763655223 -1 0 1
3073 1 15.320922742090012 24.330945813082593 4.311347017611006 1 1 0
1284 1 41.95104464202168 22.90733141206891 12.129777619869953 -1 0 1
288 1 5.565152874165503 10.865670373052629 2.0515319136325565 0 0 1
156 1 8.133256370422846 11.911984637685919 1.3033564601644159 1 1 0
702 1 3.728944470251718 5.822689980906615 1.8035455577205077 1 0 0
589 1 13.622956116584385 11.563234568232092 2.659687307928136 1 0 0
2726 1 47.13237619018326 14.200763186599715 -0.16830425201498986 0 1 -1
4161 1 18.76629511729354 10.368833758696715 1.8402553893247635 -1 0 -1
1302 1 23.93266126806836 9.63944729865819 1.2051237309331553 0 0 1
817 1 29.510886279471592 9.259233642901565 2.6916739495052955 0 -1 1
1804 1 27.67754143230958 12.651518087241255 1.7089710539630731 0 0 1
705 1 1.3916061774860928 0.5558869777191864 7.8435934697729 1 0 0
1011 1 31.907315049087615 14.075076561742485 3.122675436027195 0 -1 0
1104 1 37.012110074749806 12.649247290102211 1.1850508874688408 0 0 1
172 1 39.14224413718098 11.388365728503791 2.4874791091082384 -1 0 0
2885 1 42.46289607513973 10.539053293115272 2.206071759709196 0 -1 1
2678 1 46.425536171296116 11.914755128658962 2.154529141995598 1 1 1
1737 1 0.5663957831669104 24.58283467026407 9.93064983292894 1 0 1
2777 1 40.66847796678742 0.04197706213267599 2.8502691982005706 0 1 0
3054 1 4.423799076906405 13.44619134227887 2.39273012161351 0 1 0
1476 1 5.1794258407722 15.660515193686892 0.8379263269411348 1 0 1
2637 1 18.000759900770408 24.553263691298636 14.725907851860446 0 1 0
762 1 10.052974607288355 11.384444868965037 3.479732025416044 0 0 0
3554 1 34.86455972382642 23.61366174185581 2.2075879304525974 -1 0 1
2320 1 15.735906589374073 12.972125322197885 1.1835888814138935 0 1 0
4114 1 21.25197759384805 11.444898407489605 2.2778156583256064 1 1 1
521 1 19.800793478914677 0.07278880135698618 9.356540350565822 0 0 0
730 1 32.186244779397285 17.053572409469727 2.7188213945292836 0 0 0
3534 1 34.144448957469855 13.188848675377347 1.6936067241894786 0 0 1
3936 1 36.218336128527575 13.445663887441302 4.004820810964821 0 1 2
2178 1 23.62559548637442 8.487205979768005 15.199527470382307 0 1 0
2096 1 17.50927152536354 23.62817096360685 0.5671147678317807 0 -1 1
3282 1 12.639709983603503 4.3342507737097975 15.817533339437652 0 1 0
1106 1 1.112082890914728 12.662246095485733 3.591315117646765 1 0 0
3138 1 47.259829376836706 14.61115026342396 2.8707515704207016 -1 1 1
3271 1 1.7766862975435955 14.407348195120294 1.378017983661903 2 1 0
3584 1 2.055651490348336 17.16794607741578 2.297123630076736 1 0 1
2073 1 6.040858057976644 17.355654693963867 2.7125461949084606 1 0 1
2592 1 9.351467537078907 17.99132786001841 3.0208832716998364 1 1 -1
3976 1 13.895270723654544 14.978968718341276 1.5020730706892385 0 1 0
3514 1 17.770764609016148 15.876498468750981 1.440313901038475 0 0 1
2261 1 20.330441158856345 16.967999164132806 1.4051575002680807 -1 0 1
4147 1 50.21341150644032 24.481058043511855 16.009215594103427 -1 0 1
1850 1 25.095421604936558 18.113358751015124 0.40649943857962956 0 -1 1
1034 1 28.015107933192983 19.97122355235267 4.6781516500126035 1 0 0
494 1 29.29557347364852 17.879046791073144 3.259907527383091 -1 0 0
728 1 4.020188611941163 24.9854660247875 5.62221354959836 1 0 1
64 1 36.87739086064835 17.1436751840402 1.664714961124707 0 -1 0
4077 1 10.844636142342178 18.920672523265633 0.4475141717142649 1 0 1
2667 1 43.73484151884021 17.254827957083915 2.0602821924343355 -1 0 0
326 1 41.287485820751435 17.540508239005145 3.0849376889988784 -1 0 0
1147 1 2.4540677521927394 24.816606082284505 14.384328713813094 1 0 0
3612 1 21.848932357208334 2.428678627539579 14.955245716121635 0 2 0
3057 1 24.12141402277056 24.98016414160103 8.830846088737491 0 0 0
2065 1 7.2183897824887895 19.981208854771296 2.0587016683165027 0 0 0
1892 1 27.11939036804949 9.805549565245272 2.138663027343513 0 0 1
1015 1 38.82877391542835 14.821356630617657 0.09982428457250597 -1 0 0
4166 1 14.371018069249397 19.136701942744406 2.8587581308097785 0 0 1
3321 1 24.240316184463918 0.09029116181575059 2.5411273210195 0 0 0
3911 1 19.53070661394272 18.41384277069459 3.5575580016660107 1 0 1
2704 1 25.1907278173231 21.76304034087092 1.974523783385783 0 0 0
2323 1 30.785622165546286 20.087712168125503 1.783648341364438 1 1 -1
1120 1 37.43819415760203 1.4740558843686702 11.343569201298292 0 1 0
2601 1 2.888295451360238 7.657192009782538 0.13300429571942896 0 1 0
1291 1 35.20398010501771 21.125201435462913 1.4742116804515546 0 -1 0
454 1 33.579093068608735 24.781277896248206 6.535167147025373 0 0 0
3746 1 41.694600090837994 21.76380367227841 0.6432788379643379 -1 1 1
643 1 40.798947129114424 19.175952689851915 0.6032288549357673 0 0 0
3831 1 44.69870005149589 19.678535821418198 2.6695930155514915 0 0 1
1121 1 50.035963350174164 21.665521110435215 2.200171196276766 -1 -1 0
2317 1 5.785888759535274 22.81936030263769 2.8199229681289006 0 1 0
3365 1 3.815176268580063 22.577236233378013 0.48766594885626835 -1 0 0
55 1 8.235258391009555 23.176878709127074 1.019599059371111 0 0 0
1246 1 10.509869724350636 21.57692964165052 0.9475706738279841 0 -1 1
3736 1 12.99721390676271 22.073854603382095 2.2756361779700183 0 0 0
3305 1 20.280604265207995 23.493157065089452 2.4365159824546208 0 1 1
13 1 43.740969079006895 23.595669614579965 15.667140527634244 -1 0 0
58 1 28.160743492065347 21.75406481297087 2.0903668029742297 0 -1 0
1824 1 17.76452684214784 24.133160262647284 5.84113260622373 0 -1 2
3768 1 39.009013062153144 1.1849018558928568 0.733805967226665 0 0 1
2334 1 39.223643906679264 22.789495735366806 1.4540954811119016 0 0 1
2895 1 42.98348267103407 21.929795626393947 2.865722051083003 -1 0 0
108 1 48.57283002176645 0.41165384376278646 11.386608324189643 0 0 0
3835 1 49.27784741409334 23.346518965356754 0.046308841204706186 -1 1 1
1907 1 39.46137838435342 23.64984269095221 13.477241606120971 -1 0 0
3402 1 3.836401268936016 1.7421404147982678 3.7188845560523163 0 1 0
1468 1 10.250493803231027 1.7723889936464108 3.495109833864489 0 -1 0
3508 1 50.05795689388335 17.7858937120639 16.56182875068274 -1 0 0
3703 1 19.37644131235585 2.349129933137005 7.4308208566687295 -1 1 1
3075 1 24.026952465034256 0.8369303304810698 6.643484122889093 0 1 0
2050 1 24.82942101469906 2.2450074544781304 4.486739962350162 0 1 1
1262 1 29.51346968404521 1.1185315114138064 5.200605490316116 0 0 0
315 1 38.14503618030203 1.1419860506679878 6.84440239946987 1 1 1
1660 1 11.838366579273048 13.23859234680207 1.349956734924118 1 0 0
1913 1 44.24630573832172 1.856743418294566 5.8676574045441505 -1 0 1
1524 1 47.016859632749046 1.6660127097894868 5.6620804678343 -1 0 1
2846 1 21.2028273575708 0.4239264294520173 5.808676986089437 0 0 0
334 1 48.60497069569681 4.00893925417296 6.256981581045271 -1 0 0
2825 1 1.700221710461885 3.4646993368362256 4.514267499648498 0 0 0
2424 1 8.063906679018578 2.8952993473893276 2.273175852914797 0 1 0
460 1 6.081245842977413 5.896783180756148 6.505529735020373 1 1 0
31 1 11.8117736282896 5.228838155545277 3.6305618523559966 0 0 1
845 1 14.754712867746454 3.8597399955787193 4.3668786675570965 0 1 1
3781 1 17.915215124406245 5.002670071189141 4.006693904465468 -1 1 2
1528 1 17.7278511813607 2.5467121287721226 5.08776255055241 0 0 1
1886 1 20.559742978051368 6.785632444949445 6.868158516579525 0 0 1
2564 1 22.8952318491978 3.951045263062877 4.1231424798704595 0 1 0
1857 1 27.310745354256323 2.977528955889774 4.180322020975517 0 0 1
1398 1 32.57245517457196 12.024360337264746 5.354193955784679 0 0 0
3129 1 28.191786882934846 4.700841758846458 6.048501478314202 0 1 1
954 1 35.15159626197471 4.856752268027673 2.888331457154005 -1 0 0
1615 1 35.80698370458325 5.459691434879775 5.912910053971076 0 0 1
1112 1 37.88897548008943 3.61388928615405 5.049356955347106 -1 0 0
472 1 38.98638082770642 3.322761330380829 2.690917796379877 0 0 1
259 1 42.48659998148412 4.277735037134345 5.512733932873579 0 0 0
1404 1 43.63385000313459 2.252444164597477 8.6489143540755 0 0 0
837 1 46.40422106918833 5.851349740580302 3.9981754188059764 -1 0 0
2357 1 49.670315125952236 2.3259338559912335 3.7338083431710665 -2 0 0
1741 1 46.568117993799554 5.738645085653141 7.325425765787071 0 0 1
1413 1 48.93419550288437 6.549846757500985 4.86546185952003 -2 0 1
1612 1 5.732249144236712 6.998054661100959 3.4890432187572187 1 0 1
2815 1 4.361099888272299 8.211453063206836 5.920243276314882 0 1 0
1976 1 8.344291315483629 7.602282407010802 5.115195943205593 0 0 1
409 1 9.416276716816338 6.638542080288864 2.911928138991228 0 0 0
3016 1 14.130590253985055 6.837286090496264 4.370898719331521 0 0 0
392 1 20.74071886246329 8.11298554039293 2.5228818115780682 -1 1 0
1374 1 23.943320942314806 6.609930824786469 4.025802973453037 -1 -1 0
2773 1 26.795712456510795 6.908527399805082 4.5948510777431535 0 1 1
121 1 31.537050045120733 5.999564217693202 3.8269967348474525 0 0 0
3280 1 29.020004426220034 6.621688727543933 3.089124418441811 0 1 0
1543 1 33.20043651448612 7.376051232696754 5.373066702455093 0 0 1
1665 1 37.00692164705598 7.847890577602056 5.505523863301426 0 0 0
1393 1 38.4836743833569 6.6864946269754215 3.3044590462799226 0 -1 0
1411 1 41.7389098406027 9.185077408826439 5.397168053022795 0 0 0
3551 1 0.7145564127052988 10.038161239837086 3.0359035198712454 0 0 1
2940 1 1.1593140770164636 11.239069722840458 6.991330638960166 1 0 1
856 1 1.4411728042763583 8.502358397455767 5.186160950994684 0 -1 0
480 1 5.234502044370097 10.868170264124862 4.928999449508208 0 0 0
3042 1 5.920818595081581 11.183964060647577 7.626360259450208 1 1 1
3639 1 8.146093901587781 10.200252821482563 4.98518761712789 0 1 0
2444 1 12.153668169624696 11.332892514706192 5.28549468766418 0 1 0
3727 1 14.310704591017178 8.819070533309718 2.6282146502743013 0 1 0
1080 1 16.83003878636584 9.569385050841545 3.7683820470300646 -1 0 1
471 1 25.49261278003132 10.269633946548261 7.031256377779573 0 0 -1
2500 1 24.07472063352411 13.577943614689419 4.5485196632079585 0 0 -1
2181 1 25.214428409002913 10.941334975790419 4.3358431564305056 0 1 0
3153 1 29.041704462924606 15.66980263625175 5.13774797807644 0 0 0
2469 1 27.84310031795474 12.832001133054389 5.162799825844456 1 1 0
604 1 29.874845388690677 10.92819335261635 4.880747369453714 0 0 0
1882 1 33.36998509904059 13.23858875187124 7.840239586359365 0 -1 1
2812 1 34.22531999560752 9.649337390225547 4.475505092206702 0 1 0
3061 1 36.96222605530542 10.810242618832186 5.646242844283044 -1 1 1
574 1 39.83868310484611 11.393949255749524 5.3664253728278855 0 0 0
1507 1 47.32808585536444 9.699904034137898 4.911051180849823 -1 0 1
1216 1 44.62784427205291 11.553404113995454 3.837108446664214 0 0 0
553 1 48.28444844116667 9.967138568745094 2.158840970348934 1 0 -1
3593 1 3.0186659859720995 12.328793581772604 5.423404073475973 0 0 0
717 1 4.508037126554989 14.93055169924201 4.812584955432509 0 -1 0
814 1 14.858270320147847 12.97907280536237 5.209541588002499 1 -1 1
2356 1 18.090837974941714 13.252556168030347 3.094031357121773 0 0 0
2901 1 21.347618823270142 12.510396921350695 4.6932079525990344 -1 1 1
3529 1 20.348355901594488 15.05177380614899 4.289963062846849 1 -1 0
166 1 26.774967649919514 15.049744670130613 2.7895909923128737 0 -1 0
4134 1 30.67650176391358 16.179187620488086 7.442700806091345 1 1 1
2312 1 32.87811444667163 15.424220611536203 5.826124777688447 0 1 0
880 1 37.698738147382905 15.563485906793067 3.7723113461983973 -1 -1 0
2907 1 40.37106663127848 15.111683516258553 3.763713238762215 0 0 0
2104 1 43.645150414750134 13.499012233269603 5.368978932552043 -1 0 1
1176 1 40.99860801280487 13.916093876589201 6.097006312542065 0 0 0
2746 1 49.05126809879778 13.602884756133884 5.119860832964235 -1 0 1
2982 1 -0.10102912563447575 16.1521585584944 3.622643501241322 1 0 0
3579 1 0.8858403060332731 17.346333804859047 5.967110465339153 0 0 1
3603 1 3.6109594063521344 17.828354714993928 4.487334817714592 0 0 1
2972 1 4.001062750475455 20.749177883252422 4.311888875992127 0 0 1
2029 1 7.1291355158405905 15.715242874822597 4.5424105675283535 0 -1 1
1185 1 9.458305980933972 14.259763567000828 3.2375346425532707 0 0 1
153 1 7.866487189175951 18.03749632731876 6.042732759105976 0 1 0
1100 1 13.859552767852987 16.51557016618873 3.6615438329677903 0 0 0
747 1 16.255935450884813 15.514739821513189 4.435507482063393 0 0 0
291 1 21.015484102946132 19.396755711498013 5.888468588613934 0 0 1
4115 1 23.714625507232746 14.837013970135592 1.73509576559479 -1 0 1
2102 1 25.531055582966026 19.042649774873464 5.589798827812392 0 -1 1
694 1 30.67553638217793 18.6807483328067 8.222357794974744 -1 0 0
26 1 33.41269686690732 18.61266034018437 4.870415467440723 0 -1 0
934 1 37.08638506705535 17.266968689629106 5.741808151713861 0 1 1
2851 1 38.06326209855665 19.704781705174206 5.879259576696511 0 0 0
1832 1 44.8563049973529 15.427543947998817 3.7557318841602605 0 0 1
2180 1 46.2770338403787 17.848773381019992 4.360348139565018 0 0 0
4067 1 48.42489069704408 18.2476931498047 2.865591687504262 0 0 1
1410 1 7.248417927508184 24.35726930502957 8.141664961704656 1 0 1
1235 1 6.6704260334272085 20.61084413569466 5.184283841290966 1 -1 1
3632 1 13.781680898971647 21.214436937722212 5.031566128172156 0 1 1
4021 1 10.758568349880187 20.357904771655946 4.23848733415557 0 0 1
2999 1 18.536302319350835 20.731850319364316 2.132036806444179 1 0 0
419 1 21.68019003761034 22.759768694673188 7.045418246936562 0 1 -1
1247 1 24.772066262262737 22.733402045119252 7.18136291562549 1 0 0
2370 1 24.53227309168586 19.39192428939848 3.207449899306596 0 0 -1
1902 1 27.034268038250033 21.43153687769537 8.322662422986298 -1 0 1
2072 1 30.265067878713797 20.567746222251436 6.381866945163736 0 0 1
2222 1 33.32548578223959 19.84706460801055 7.716578840709642 0 0 1
1431 1 31.970402297913438 20.88480745295638 4.341594407242938 -1 0 1
2559 1 31.301477872998525 19.59333608338062 10.936870310794573 -1 0 1
4027 1 35.66466166436981 19.118940733878535 3.567427436527504 0 0 0
1432 1 35.95448911890214 21.809162718642842 4.934306833373938 -1 0 1
1447 1 40.82716450029156 18.83092178237264 5.410113764787353 -1 -1 0
2463 1 41.865904919817254 17.836788384503098 7.581692663074521 0 0 0
1633 1 41.73635499138477 21.529380991074266 5.407551007644325 -1 0 0
1748 1 44.54290358435004 21.17702474545026 6.596670671780085 0 0 1
4042 1 45.71772678869876 18.911149711883596 6.883346317184139 -1 1 1
2195 1 48.882798400132884 20.558616915839554 4.4149121855864015 0 1 0
673 1 36.19488134537252 21.413663958192767 14.956469418512306 0 0 0
2649 1 2.1130626195046607 22.662255249026327 2.8677902325468705 1 0 0
3099 1 48.78021469686579 0.09058485787821796 1.5825739463084845 -1 0 1
1967 1 22.767457582656842 1.7082440646686576 0.4271664923123957 0 -1 1
2347 1 8.744869001195584 22.590857350034526 3.919411637399806 0 0 0
2798 1 16.128164501821438 22.158875680159436 2.6452984146452163 1 1 0
1720 1 17.047471953336572 18.131420818050483 4.712430426088718 0 0 1
118 1 19.67346713007024 21.875205520185276 4.886236658497976 0 0 0
3673 1 25.481331339881894 23.13368008547448 4.446942538553904 -1 0 1
1228 1 36.22746680810931 0.856332883799189 4.1152540822097095 0 0 1
73 1 28.061924787043306 23.494777169584466 4.751276600789941 0 -1 0
2041 1 32.58842895194087 23.84274621313946 3.884000530751864 0 0 0
207 1 0.10827235826018577 -0.12455563263025983 5.473923891166763 1 0 0
552 1 39.2624439672881 21.791450378584447 4.130739500881157 0 0 0
3977 1 40.495876643594926 24.45194536538952 5.696532600120531 0 0 1
3944 1 46.91882603242736 22.30432244165574 5.172699163499879 -1 1 0
3999 1 2.815122261520849 2.9659528808331115 10.915717067287064 0 1 0
403 1 11.032088094026674 24.614791933164422 11.151914186776507 1 0 -1
446 1 8.276030706884272 2.0531363600460524 5.517900527811916 -1 0 0
892 1 6.919050371012444 2.021451189344636 9.339021195095885 0 0 0
3066 1 11.311154544464973 1.2325644670373603 7.428667235164833 0 1 1
2490 1 13.199442103711418 1.035001555108604 9.597576815309068 -1 -1 1
2587 1 15.89264018949563 1.2586583588226246 6.693732848099581 1 1 0
811 1 16.868795762402353 0.6876554819088859 9.305379064616705 -1 1 1
741 1 21.38663463946134 3.9685209955705947 6.991271532901543 0 0 0
2103 1 21.19031189683637 2.091108058441659 10.937217370932045 0 0 0
3754 1 16.820752496491355 13.147108250325243 15.475005985978218 0 0 0
3053 1 24.758008308005135 2.274547315426755 8.894326688379723 0 1 1
3397 1 28.861719786053673 1.2867647650941845 7.985555981565721 0 1 1
3868 1 30.315617902166075 0.553681790014928 10.250447826133534 0 0 1
2873 1 34.056052768802004 1.6620706857180914 7.632309545800322 0 1 1
2968 1 12.7956434548182 24.729143068177798 2.405623875674973 0 1 1
894 1 36.43854705245828 0.20211036635017288 1.47848424264915 -1 0 0
2495 1 0.0288455530090857 3.016222606308534 8.171421963253568 1 1 1
2339 1 47.85211123147102 1.9398161664114788 9.050426618215996 0 1 1
1387 1 4.136819676084466 1.6977436526044685 8.792465495746075 0 0 1
4003 1 6.0329433111002455 4.0227583005849885 4.2057525033294345 0 1 1
3760 1 7.892580522376074 3.8471457374874527 7.582038546192821 0 0 2
3616 1 11.094452556937927 3.6686899026197786 5.8689130448037625 -1 0 0
466 1 10.337971582282533 5.033409271951793 8.217549789089055 0 0 0
733 1 13.977945014501389 3.334852027655785 6.989816662463528 0 0 0
774 1 15.500335797955213 5.830967950487787 7.595806789589326 1 -1 0
3133 1 18.285646159192652 5.230000585607104 8.103789241999557 1 1 0
2226 1 22.739280866007352 3.752206458347391 9.434790083381028 1 1 -1
614 1 27.283535689411092 3.3114893219235255 8.278707893025368 1 0 1
3555 1 32.23952733483849 2.272442096027657 5.667698055522828 0 0 1
3346 1 30.99995513528952 4.5411388017416945 6.180317551767169 0 0 1
3024 1 35.87977192033056 6.5922532034389985 8.701973050298829 0 1 0
575 1 39.94439843563376 4.5243065615808815 6.803796361655178 1 0 1
2217 1 41.265376667134824 3.2282484451303612 8.96916818129207 0 1 1
1498 1 45.71252285104895 3.7202457964008753 9.462295460321478 -1 0 0
2984 1 46.21800257772268 8.166289579531668 9.689867470652985 -1 1 0
3224 1 1.5063832447999959 5.189307069121539 7.10411751058083 1 1 0
3545 1 0.4696650759568386 7.5536941723326185 7.83675400548351 0 1 0
1178 1 4.018972221488818 4.402189395495427 7.735313501061297 1 0 0
173 1 9.09798131507828 8.968291868094054 9.53873667128165 0 0 0
3582 1 10.244525381454173 7.541460239901835 7.344829246661517 0 0 1
2898 1 12.454411750024734 8.721432767868018 6.0161509544349965 0 1 0
1881 1 16.69984692604338 7.0739609827267556 5.260156542221271 0 0 1
2997 1 23.087265775107927 8.671449616208596 7.586702351012064 0 1 1
378 1 22.038838700085254 6.8910768038273575 9.630326019914143 1 0 0
3975 1 29.41278001357545 9.28687956910779 7.337594872335706 0 1 1
621 1 31.925207398609274 8.173639153534213 7.735903339788224 0 0 1
79 1 36.48946436866975 9.431224763180166 8.166401721125675 0 0 0
3472 1 39.74143123893704 7.407916287095549 6.757872159099747 0 0 1
3774 1 39.1121891481151 8.627918082706321 9.000426190960052 0 0 1
780 1 44.259084512267854 6.713276161780855 5.719362286661776 -1 1 0
2528 1 43.410605217516576 7.816060780433466 9.968630123892046 -1 1 1
3481 1 48.15908148784568 8.179177022889062 7.187800655879467 0 0 -1
2995 1 1.4705159246410628 13.236640602724243 9.071848513909035 1 0 0
186 1 4.769908064878401 8.925710683316673 8.754938761470418 0 0 -1
2358 1 5.726824160845799 12.60845093806141 10.11386141178019 0 0 0
1073 1 8.778057416200511 11.218200293264767 7.917160496096221 -1 0 0
1561 1 11.414424391125237 12.074258284009412 7.868615877271482 2 0 1
776 1 12.587976646718367 14.217872514775104 6.38560730961594 0 0 0
2007 1 14.218769848930384 9.722164892954227 8.141082078616511 0 -1 0
188 1 16.246047566772866 10.953687791287939 6.419522931851111 0 0 0
1251 1 18.41134369195751 8.609322625065948 6.995564994976001 1 0 1
2277 1 21.118093712051067 10.112959328212945 6.002987326417105 1 0 0
2230 1 19.080753554420983 13.50435278201801 8.870944288209687 0 1 0
2130 1 22.08037364529414 10.274463962129811 10.098682838717398 0 2 0
3340 1 24.15261452565097 14.010839864721104 7.538991092204284 0 1 1
3553 1 27.01429583703512 8.123059337324706 7.187871765494222 0 1 1
3789 1 27.157603096476794 12.273462055454004 7.640701121530679 0 -1 1
1349 1 33.56207080793536 9.858661329564798 9.179027127411166 1 -1 0
401 1 31.792445200399484 12.066877915294992 10.0057656231138 0 0 0
554 1 40.69323847014647 10.837788157230333 8.280356585094516 -1 -1 0
2326 1 43.49070933127613 10.270617942317243 8.392027378133296 -1 1 0
1536 1 44.42032058210276 9.488410778538178 5.798092981307878 -1 0 1
1687 1 46.096091344217726 10.875011238042429 9.869502649717683 -1 1 0
1052 1 48.890531825967976 11.396040777815108 6.432865430915658 -1 0 1
1119 1 4.231724980198437 13.875777613440624 7.755025683334013 0 1 0
2891 1 7.324097518725398 15.167962341173771 7.580962983615748 1 1 1
769 1 12.196333735515468 15.204006689067496 9.37944077769059 -1 0 0
4081 1 15.839973894522366 15.230538979746266 7.516742001500461 0 1 1
3295 1 18.9557148461452 16.2299145747423 6.785222404774226 0 0 0
27 1 25.775095989288573 16.0225491785054 5.517682047575177 0 0 1
3347 1 27.96248877209745 14.640491324849934 8.606715319638207 0 1 0
1844 1 30.505726609912447 14.663219682813926 10.353792014684089 0 0 0
3899 1 33.31884394089452 15.332018520087077 9.706206934079145 0 -1 1
2156 1 36.143664597010705 12.76941572862923 7.883433758955359 0 0 -1
2653 1 37.127475198820974 15.342995176817654 8.036479628684512 0 1 0
750 1 45.18804210482534 14.120311933337359 7.584042702509814 0 0 0
3408 1 47.58640098818522 12.714657260026472 8.444625541809067 0 1 1
944 1 -0.17257804592920295 15.194845927727643 10.250394294695544 0 0 0
2507 1 1.9050757678014545 17.50265788706883 9.822261379441628 0 1 0
1613 1 3.2879443745704253 16.57265856719391 7.634431316536801 1 0 0
187 1 3.7803578498296373 14.801269485941036 11.156264917393486 1 0 0
2346 1 5.935411728771339 17.340569889565245 8.786804767057804 0 0 0
2720 1 10.619825036303078 17.726158111958686 6.348349794813736 1 0 -1
1337 1 11.35733599167745 15.987148143862676 4.5146971961101805 -1 0 1
4150 1 16.71920483800808 21.026280218190163 5.638480452887869 0 0 1
995 1 13.879756216883319 17.074111606975514 8.317032753701342 1 0 0
1064 1 18.486597847372607 19.302251478574032 7.273109138820934 0 0 1
365 1 18.703797520060917 19.66104130703246 10.27766057552664 0 -1 0
602 1 21.945681487958296 16.79545215165784 6.325560105731214 -1 0 0
1140 1 23.68598519524317 15.930852519429795 9.550907410417821 0 1 0
1752 1 27.942254014647162 18.979608904293297 8.950941256953648 0 0 1
3452 1 26.237840698017155 16.801538777153617 8.121342077726107 0 0 0
1813 1 28.121560237624518 18.562433034309233 11.609388742773856 0 -1 1
1382 1 34.575673125464874 17.22674758957123 7.417651446943625 -1 0 0
846 1 40.10372071669153 15.672988076643753 8.19375576771822 0 0 0
123 1 38.79142694361345 17.99095874627555 9.658871433005615 0 0 0
1362 1 44.69438022932176 16.788845737487115 8.146444039704614 -1 0 0
2526 1 47.52869282091925 15.609286528087392 6.219167727649502 0 0 0
3386 1 2.2449300513030424 22.166401740813757 6.096140382340109 1 0 0
2295 1 4.22243336316801 21.80037199851873 8.528792253511117 2 1 0
281 1 5.7792897112227815 22.975203301439816 6.36148272438175 1 0 -1
1975 1 9.507202154548796 20.955689053266674 7.114379512346751 0 0 1
141 1 6.666694984070189 19.929675237145112 8.261943887313892 1 -1 0
1622 1 12.897314767845035 19.49888847398479 7.34833470829367 0 0 1
2597 1 15.554889657312224 21.808764475725297 8.072379771419984 0 1 0
2262 1 22.646974675000656 16.70806904662618 3.2356101546246236 0 0 0
3453 1 19.82818058844164 21.9942062080506 8.933694172214382 0 0 1
1124 1 23.567415011332837 20.114964476935164 7.610085432524719 0 0 1
2190 1 29.956102817695022 20.328418635351856 13.589467450422957 0 0 0
656 1 38.25342950983752 20.38404365389278 8.473573480905953 0 -1 0
914 1 37.545865857992176 22.05272614855591 11.373473449530593 -1 0 1
3970 1 42.046521230947754 19.841759651518508 9.402611767637064 1 0 1
3090 1 45.402856599536754 19.882411403793007 10.872757837543451 -1 0 0
3700 1 0.13276743174242828 20.265788589322018 6.526421459815071 1 0 1
86 1 47.84426284771767 19.209067166526793 8.5025750735336 0 0 1
3928 1 0.14742167002377926 24.016965640771552 7.24231619504888 0 -1 1
3385 1 27.710099917857526 17.146729124195012 0.9194462236301664 0 0 1
855 1 9.579936237753719 23.23457714986983 8.755561098567526 1 0 0
285 1 11.209336936586542 24.42362013978558 7.055703759044362 1 -1 -1
2582 1 13.733578213496456 23.86744991295778 6.626762212713476 0 -1 0
3083 1 17.619234655998724 23.395483666723344 8.537288361674209 0 0 1
1406 1 13.927176824674913 19.209695528194796 15.867734612671828 1 -1 0
3065 1 33.38262733078801 20.575472090727526 13.751139781916473 0 0 0
3908 1 29.140116299573403 22.873611529317433 7.353129820358622 0 0 0
3 1 32.89347934966316 21.815459141625514 9.866185582101286 0 0 0
3214 1 34.97597833714755 22.53393410536562 7.428441128963846 0 0 0
3207 1 3.9880784060601817 19.119452798904216 15.508076290763887 1 1 0
299 1 0.4087225144329386 19.106056726556634 1.1332997725942195 1 0 0
4153 1 44.02974367919454 21.53339300253368 9.363137344017575 0 0 1
3629 1 31.04150959994542 22.072198342747416 15.69901272837782 0 0 0
3587 1 24.08484709879321 15.759076432247051 15.661922294254836 -1 1 1
682 1 48.28982999284205 22.17301522400038 7.904247722420504 0 0 -1
1275 1 10.529308928680193 24.53190121646395 4.481211239585297 0 0 -1
800 1 29.52957646847853 24.07720457562509 11.593983570732465 1 0 0
1364 1 48.48892949212598 3.9810954261311533 0.5500756669582944 -1 0 1
2511 1 7.945737496204146 2.9324475081329684 11.715184160292317 0 0 0
967 1 15.7624816893545 3.4619750297505667 13.444270506371398 -1 -1 0
1666 1 22.984358324633003 1.5311955642021313 12.760172559429893 0 0 1
3561 1 24.980823334300197 0.9420925536762779 11.375486716129872 0 1 0