LAMMPS data file via write_data, version 29 Oct 2020, timestep = 800000

4175 atoms
1 atom types

-0.44697080487535956 50.44697080486906 xlo xhi
-0.44697080487535956 50.44697080486906 ylo yhi
-0.44697080487535956 50.44697080486906 zlo zhi

Masses

1 18.015

Atoms # atomic

490 1 35.19099931901728 23.951556101037635 3.52316383580801 0 0 0
671 1 12.007172477916212 22.646492780891297 -0.38750532509969393 0 0 0
2437 1 10.796211199118373 2.425578630766059 0.3255865877628509 1 1 0
2125 1 43.24470778340006 0.49520596997572497 4.5563324463741885 0 1 0
3207 1 14.831515659049703 0.505633964225283 1.166933725989767 0 1 0
3222 1 17.791356075034134 0.5625754381976451 1.8595567130190278 0 1 1
2807 1 27.40287897056529 1.588137603587473 0.47306095049992447 1 1 0
2837 1 31.558889055957042 2.3764069567085566 1.5852909542105005 -1 1 0
3132 1 36.01129668465788 -0.23386381627821268 9.416873909809349 0 1 0
2394 1 36.33170280270279 0.5014045852539496 1.1707202245775488 0 2 0
1536 1 35.622146838241235 20.82562499329355 0.6833435171905224 0 0 1
3994 1 41.30220466018277 1.344273706896364 0.5442706424861393 0 1 1
404 1 44.15800264989659 0.9805133968652573 0.6818984174606582 0 0 0
2275 1 48.94217281675556 1.8534729457318067 2.7354813027894727 -1 1 0
3296 1 7.657987890360445 24.58813248742125 3.286588359478527 1 1 1
4165 1 2.294704101493384 6.096144237484443 1.1991072611281455 0 1 1
18 1 4.0382802086264915 3.191791909845093 1.6252546553513918 0 0 0
1069 1 34.510441957978514 24.77156292361464 7.872526468620913 0 0 1
4000 1 9.606745700521833 4.60141023846846 1.4675817342798774 0 1 1
3174 1 17.01783760810341 5.396921515091132 1.324131921395028 0 0 0
2054 1 19.43585195879539 2.679175553222015 0.578613556269054 0 0 1
2698 1 20.83363224201362 3.421874336732774 2.880269226563699 1 0 0
3150 1 22.757412705975923 6.190337787426241 2.7701495059166765 0 1 0
1449 1 28.884177934834202 3.703034351869741 1.6087882155371478 0 0 1
4036 1 31.872591106936735 5.029833943568239 0.6044073652337154 0 1 1
2724 1 19.22207138475428 16.160236968567066 0.7901990813757458 0 1 0
1204 1 36.510474352356326 3.2079522896716597 0.6955919426639015 0 0 0
4023 1 43.38558640920597 5.102038204670237 2.951181324292654 0 0 1
2661 1 47.961347691249486 4.122010587578741 1.8713664476016403 -1 1 0
3797 1 0.6076907923040538 8.775560101134424 0.900111853792178 1 1 1
57 1 4.808941243425478 7.259790755836924 2.0616635307237194 0 -1 0
2157 1 7.264565688602938 7.531017092447285 0.47442106858461996 0 1 0
3990 1 11.495935284451413 6.927786853129004 1.3577183363575243 1 1 1
2034 1 9.20855525693105 8.664015196943218 2.2280040558113328 0 1 1
1781 1 32.30567668132758 18.305703039981854 0.5309511690537375 0 0 1
895 1 16.710207586773983 8.13562562554805 -0.2457648958564394 0 0 0
2755 1 19.78090905311734 6.527848334397328 2.989552039207649 -1 1 0
313 1 20.405835788092322 9.218745192223201 0.8311047460949372 0 0 0
2585 1 25.568350932073773 9.437467750244535 1.3755552590796718 0 0 0
1110 1 27.820605956826515 8.1875520925873 1.9707525707866957 0 0 0
643 1 28.535691119701717 6.09789607980662 0.33725590470701816 0 1 1
2550 1 17.044459321069482 24.38626921497286 11.820186065629507 -1 0 0
1200 1 42.61145825172049 6.5619883920290265 0.5148543965066648 -1 0 0
1346 1 37.91088682626088 2.0462141904986435 15.733371758887564 0 0 1
2552 1 46.856415784821266 7.287811438691692 2.3225529214993417 0 1 0
4028 1 48.31539022074716 23.728404492401612 0.11183416814100788 -1 0 1
1607 1 50.09165219899755 8.70321361366519 3.3576627231569676 -1 1 1
1486 1 4.8520394626640515 12.376328362260661 2.181886709240394 0 0 0
1285 1 11.282012607196474 10.797991088437344 1.7384478739307374 0 0 1
3734 1 16.26879953957619 10.20845648295349 1.3174191657262797 1 0 1
146 1 23.13515848016303 10.94372186851705 2.191131253462402 0 0 0
1639 1 36.3400865267037 0.07268624642319432 15.163230336427562 -1 0 0
274 1 29.29971778322623 10.660100893344397 2.658795086396762 0 0 0
1797 1 31.925852811174106 9.50147504250493 2.757714480536592 1 0 1
1479 1 25.945402129884876 0.8631208538914406 5.252555916200966 0 0 1
3962 1 31.451251796227265 24.94974085441148 1.142196205027532 0 0 1
2349 1 25.221404655549602 2.9446892218778844 0.24385880275801386 -1 1 0
3143 1 34.92533104769636 5.621295719798855 16.475864029442224 0 0 0
1339 1 42.188534095429546 10.561611369932287 1.1563697398590416 0 0 1
396 1 47.09679744990754 9.980865739577728 2.116897012485406 -1 -1 0
1635 1 29.050834727587546 24.441785801914424 10.825844671635485 0 0 0
1959 1 2.188813430717751 11.129757301014251 0.7371067045341777 1 0 1
1098 1 24.249442394878685 17.648524260944814 0.8063763055362889 1 -1 0
3349 1 8.0550127256801 13.98002298751813 2.1677680267238175 1 0 1
3741 1 10.659275632540131 15.195759975544682 2.581050302292041 0 1 1
3697 1 17.665878677178565 -0.019046428115467418 8.37554377499145 0 1 1
971 1 14.960948346513057 14.707527120031882 0.2529335208446162 0 0 0
1144 1 49.035700098642764 24.51531742854302 2.3801172763469967 -1 0 1
2603 1 20.819909025685877 12.569479199978316 2.3370201056737643 0 1 0
2407 1 29.743549250030007 24.667985535566945 14.771786609987052 -1 0 0
3852 1 25.13495115032575 12.815171707893436 2.8710914313384333 1 1 0
421 1 26.78257217566609 14.739458132146664 1.6234646693140546 0 0 0
2956 1 29.284660526150045 13.124840667834095 1.3594809467561697 0 0 1
842 1 33.365152587015956 14.998935247481706 0.8617458099351105 1 0 0
533 1 36.88157302806998 14.273508223131554 2.7002758353218757 0 0 1
1185 1 34.97688942722816 12.686265925317121 1.2654912227239994 0 0 0
347 1 40.56981991530479 24.504676347980446 13.486877576820394 0 0 0
1163 1 21.765462204359903 0.6795819582473424 8.728213551563197 0 0 1
1704 1 45.51261411007623 14.133040707041527 0.2316815679565093 0 0 1
1462 1 48.461667807312026 13.708436864602279 0.37945178917893474 0 0 1
2001 1 1.622667688919588 16.098331103419007 1.3645359418992016 1 0 1
2740 1 31.13499857017732 7.914782509880649 15.978733430794115 0 0 0
476 1 6.026747439002446 15.629053044347184 0.7846689293026401 0 0 1
3009 1 6.967326388811544 18.1295244573173 0.4803801329942391 0 0 1
11 1 7.5228398152596885 -0.04363243736690947 12.199185802352753 1 0 0
2914 1 12.828379808217399 18.742444819839204 1.7296012487901797 1 0 1
1988 1 10.801228357317099 -0.4035831245458644 2.4143679632993744 -1 0 0
2903 1 20.287000265107142 17.38521876212286 3.3097597667636505 -1 1 0
3649 1 33.68193437327828 0.29147536064447543 16.174676582273293 0 1 0
2444 1 23.104012562052674 17.49670739748912 3.3322900114919247 0 1 0
41 1 25.901584488363355 -0.388945345622318 15.966115005134817 0 0 0
2293 1 35.2050156366665 17.05707120226659 1.6619515753574827 0 0 0
4035 1 6.8689718589618085 24.34155069405953 6.153018549661701 0 0 0
3208 1 37.35382577807637 17.153843236778417 3.589012518428598 0 1 1
1451 1 39.06220667924521 23.982472867413072 5.677785118486507 0 -1 1
1533 1 39.914862403844495 17.71803072001543 2.634747073397969 -1 0 0
389 1 41.14750751066637 16.073859613871903 1.0114751804130793 0 0 0
2712 1 44.11525474491316 16.48687548855262 1.4145804932881905 0 0 0
969 1 48.61681422141265 18.608441834307353 0.026066755841868794 -1 0 0
265 1 50.40305805581503 19.578599299111854 2.2202613227035957 -1 0 0
3138 1 2.3472859635272076 18.586127752202895 2.2894486272855503 0 1 1
3967 1 8.65815583172449 19.91400298987207 2.318507361754747 0 0 0
776 1 15.241162068973528 19.398139331619966 0.9309918584002062 0 0 1
1826 1 19.557782504510715 19.971745210874403 2.7544529716939814 0 0 1
2991 1 35.93149105758626 23.755532183535244 15.655105500782607 0 1 0
3535 1 25.97889367388884 20.86138724849361 3.566979057046267 0 0 1
3223 1 26.580577962000916 18.700336309548696 1.837736091493459 0 1 0
4160 1 30.19341920486556 21.40772783719637 2.35945240218049 0 0 1
1041 1 33.683047660172164 19.0141371691998 3.260991210334625 0 -1 1
2305 1 27.74795738043561 22.866221307952358 16.488747111892472 0 0 0
64 1 40.241398930678244 19.913536397786572 0.7226021669795843 1 0 0
2243 1 41.9462305016407 22.29954192508852 1.6820748746006706 -1 0 0
349 1 30.48587670049091 15.65186926765955 1.0341057850544824 0 -1 0
1264 1 46.159820217914785 19.73506487817771 0.5695176134135789 0 0 1
2989 1 2.6818905891432667 23.257524113432073 1.0516780739805407 1 0 1
1862 1 5.103068753003171 21.668529128401193 1.8997055379105086 -1 0 1
3781 1 7.768066474003305 22.37827395595552 1.7172133961029266 1 0 1
2450 1 11.59855908014753 23.122652857756798 2.407735767275843 0 1 0
2569 1 28.845981933110856 20.185751720617354 15.257245623758056 0 0 0
708 1 17.702386510229477 24.17053700165507 1.0547615736595628 -1 0 -1
4083 1 20.6800454319083 23.84495171245905 1.053387774812491 0 0 1
3227 1 24.94023451901212 23.035720993583418 2.2156277606579886 0 0 0
355 1 27.339491847015683 24.33853078166779 13.150500028123618 0 0 0
1389 1 26.903695410200502 24.58214657320193 1.4478139751964338 1 0 0
1938 1 29.416121728607038 24.137316296330788 2.5448708415517873 1 0 1
1752 1 33.63356564812011 23.13731244272453 1.3594180628998502 0 0 1
2174 1 32.65410563057705 21.58624840879906 3.502392085927833 0 0 1
3436 1 26.481762351384095 7.574594467248861 16.060383903008454 1 0 0
3804 1 37.84258985380765 23.49977539481854 2.9834540234345925 0 0 1
3316 1 41.91132760381274 24.986245618703872 1.109651393159213 -1 0 0
1580 1 42.36884887837385 0.8333981927077556 12.22505734972296 0 -1 0
1525 1 38.32168420229118 22.243392932983912 16.334646104871204 0 0 1
3371 1 45.42501743605072 23.05252901314981 4.586825205280525 0 0 0
1262 1 0.5923652408402182 2.113054595430362 3.9843147728088093 0 0 0
2140 1 2.665329966158547 1.21413234622112 2.503465796470168 1 0 0
3221 1 0.5292905887502553 1.211660838057077 6.532310873253341 0 1 0
111 1 26.59152750422564 11.834816301062544 -0.13979485866599922 0 0 0
2123 1 5.934381833199383 1.3916322089074469 5.353849405104827 0 0 0
3942 1 10.65950861075762 0.3767909230636739 5.157043313540583 0 -1 1
1168 1 14.445184962462708 2.303837781497519 4.654222394325728 0 0 0
3880 1 16.449009607001216 0.5372792821395489 4.1774588548206335 0 1 1
2461 1 18.106783391482185 1.3211063159947438 6.010875939846301 0 0 0
2725 1 23.48157444825667 2.17137366838857 5.21169412539988 0 0 0
2687 1 32.12529061448335 2.1894327394113 4.491380320346749 0 1 0
2127 1 34.6093932165099 1.4802018987747814 5.8519161277650324 0 1 -1
1878 1 38.007967170398786 0.5337822455210023 3.393851072496135 0 0 0
1617 1 40.638958521523705 1.5650522259683077 3.3436786986888385 0 1 1
3912 1 14.525098419198272 5.17068518918114 16.057647674309827 0 1 0
3185 1 23.269108061317507 23.22815571731748 0.1515244421593398 0 1 1
1133 1 47.36727943761184 1.5975892720021254 5.128792914493635 -1 0 1
612 1 49.00392950150854 2.8839827516099663 7.579400978885243 -1 0 0
16 1 0.8615651541325478 4.763099941070086 3.517073064495312 1 0 -1
1773 1 2.6729950325414737 5.361455846244189 5.52402852548676 0 0 1
2229 1 6.311191536242504 3.4560192741229954 3.5111554570461165 1 1 0
2578 1 8.717430824986899 4.8113499520960685 3.8902560647978994 0 1 0
797 1 12.968695043711813 2.2060650892663083 2.1220612752952768 1 0 0
1001 1 14.02198792429717 4.772345123234775 1.6034995540066959 0 0 0
2655 1 15.846780768549198 4.648212369935556 4.020592943342507 0 1 0
3791 1 18.74323950803326 4.384799131785601 4.981233226031031 0 1 1
922 1 24.174359392160103 3.686339189103098 2.7155201662411583 -1 1 0
2520 1 26.78819886050562 4.264110911501706 3.6724366837593045 0 0 0
3342 1 30.495649702906178 4.608568740519377 4.0168705614537625 0 1 0
967 1 36.45906044272856 4.485544129358255 3.2655221330241884 -1 0 0
3191 1 36.9491227683703 2.451415995123126 4.944263079303135 0 1 0
161 1 40.88100251297121 4.247281038471528 3.881040388426154 0 1 0
1622 1 39.29132531160256 3.3420584797132653 6.576979429684066 0 1 0
3622 1 44.934070871905135 2.5087916841601676 4.4576072342471695 -1 1 1
2149 1 49.144506701804175 6.105076882433134 3.8413702921533135 0 1 0
1483 1 48.43875801965606 5.462974340775328 6.417704890548785 -1 0 1
2679 1 1.6803853895756942 9.403909916038119 4.742236777739864 1 0 0
3340 1 5.271561015325486 5.674492000786806 4.5592889042404625 1 1 0
3112 1 6.48571374877495 7.91504767679206 5.6991983105348805 1 0 0
203 1 8.993431265215335 7.478681935110862 4.630753436956433 0 0 0
2163 1 13.230092441383151 5.817646357420963 6.167283457075079 0 1 0
3344 1 13.393530222770863 7.343619938161723 3.3978279773522564 0 0 1
185 1 19.79140473444103 8.816463905804705 4.357794694436342 1 0 0
1872 1 24.10511174944599 7.412173679776705 4.934705694081822 0 1 0
1416 1 26.83519750848577 6.917228278178945 4.4100953306545385 0 0 1
1472 1 32.459362028602655 6.725883547042969 2.7515754815249647 -1 0 1
3682 1 34.68780736412627 6.233941784052697 4.388081289733145 0 1 1
701 1 38.7229655661956 5.9849880641803805 2.5346761972546936 -1 0 0
2345 1 41.602443029364366 8.08581344944838 5.48283571865328 0 1 0
2988 1 41.42057904579018 8.307906722436398 2.680724928258531 -1 0 1
1596 1 43.900775677426296 9.853193228913035 5.369804355439574 0 0 1
402 1 3.438756029815374 9.416119772996607 2.6822910785166676 0 0 0
1429 1 5.432725685584343 10.258538952014089 4.625863992481981 -1 0 0
1312 1 9.555204536448178 11.688674637355478 5.210904194544551 0 0 1
298 1 7.626481062984903 11.107949690928073 3.060506187787824 0 0 0
1399 1 11.002319811356521 7.810589570627103 6.541693039846106 0 0 0
684 1 13.780231779437536 10.065852242416366 2.69854218515774 0 0 0
1976 1 14.405975969783805 11.337957751144552 5.132949043067382 0 0 1
2340 1 18.24513222800447 11.902753418083222 5.316025963690142 0 0 0
3614 1 18.733825251411947 10.81641689422306 2.6626763579022286 0 1 1
1446 1 22.49614724556878 9.746186585409927 4.499173584379028 -1 0 1
3824 1 28.54646839326811 11.480686343445965 5.194104704966961 0 1 1
952 1 33.89801398674743 11.179733785671957 3.5322054389915736 -1 0 1
1136 1 35.85002749021558 8.418629570959682 3.406600818919695 0 0 0
3379 1 36.37317357151676 10.736863994128337 5.411144936140645 0 0 0
1314 1 38.6673097192821 8.989495165140385 3.449148260860791 0 0 0
1250 1 39.410162856034276 11.222364523462197 1.501132624455866 -1 0 1
3291 1 44.67500485578282 10.975402366181143 2.9546666618731554 0 0 0
1189 1 48.86059299683596 11.07373783161084 4.574291306387804 0 0 1
3960 1 1.7151315781486227 13.591876282574589 2.1930753132213234 0 1 2
1418 1 0.2299947757514067 11.80522666619945 5.91582095779918 -1 0 1
3748 1 2.8267443460606714 12.455324731480435 4.561342917340282 0 0 0
3731 1 9.594158944685478 14.484833002690763 5.678513589738333 0 1 1
505 1 11.891618797656097 12.657785439571333 3.4681996191869455 1 0 0
2358 1 14.027436074985408 14.218903778840923 2.6971183871465754 1 0 0
1945 1 15.89784630355362 13.45898071271649 4.751850803052828 0 1 1
3749 1 20.424249128070155 13.95452886505305 5.120930154706119 0 0 1
2332 1 25.90208635145801 12.48925329411928 5.3967518223554585 0 1 0
1352 1 30.226844686376587 13.630640286224379 5.245771260103869 -1 0 0
3046 1 32.82604364261866 12.699843453072672 5.561379469751192 0 0 1
1247 1 34.74911377643177 14.946859993078542 5.9445532550546725 0 0 1
2048 1 37.10785639434302 13.369869438833954 5.257311804684789 0 1 1
2944 1 39.39403906259456 13.805306251851192 2.011966876779517 0 0 1
1272 1 41.37501306961377 13.159354922924516 4.123499258876476 -1 0 0
3309 1 41.37115238973986 15.63269713632685 5.925426268182402 0 0 1
3038 1 44.13478511849533 13.647982020599912 3.1395917126096453 -1 1 0
168 1 50.00919809779903 12.60833692456967 2.5213729683153048 0 0 0
1834 1 5.36554008711508 18.556598078495966 2.836808732383774 0 0 0
2762 1 7.520895713002907 15.769128843555237 4.318563353724942 0 0 0
3864 1 11.510236558477551 16.464163831777046 5.613464564758984 0 1 0
3304 1 10.175128809445782 18.52138716875016 6.693888463291617 0 0 0
2913 1 13.59092599349998 16.892955540647844 3.633876777358683 1 0 0
2177 1 15.378809651154135 18.615962983610306 5.039336340341551 0 0 0
4088 1 19.517793964730824 16.70128051888248 5.714018745257294 0 1 1
4084 1 21.221699459326864 18.00730689783371 7.148972760797754 0 0 1
2476 1 23.12991736439262 14.647688138629334 3.7896707995976673 0 0 0
3433 1 27.33854427724519 16.7545653328751 3.6277758809653564 0 0 0
954 1 25.25275996326329 17.808688771491262 5.101161002898773 0 0 1
3183 1 29.98747027187171 16.083553244228423 3.7609682527478503 0 1 0
991 1 30.504654605351266 18.631568016949664 5.949522109610396 0 0 0
3600 1 32.71489098994189 16.922840414882774 4.969465959026398 1 1 1
164 1 36.2540350015238 17.290336067282663 6.3663414301277195 0 0 0
382 1 41.58797405067445 18.17831283790077 4.681776561273027 -1 0 0
940 1 43.992657939581946 17.97692484500049 3.596553632585457 0 0 1
3325 1 46.50212185194927 14.418995474170588 4.736881620990271 -1 0 0
246 1 49.083746082327195 15.243532418298521 4.1176664507122975 -1 0 0
2627 1 1.707532242464783 20.787212729739448 4.6781740006583785 1 0 1
1202 1 4.524420593270532 21.09895897943917 4.4998847970638245 1 0 1
2499 1 8.181260108645695 18.48790109281115 4.639217561064887 0 1 0
3780 1 11.178446609023663 20.61675965930249 2.9736988070652455 1 0 1
1224 1 11.370096441647277 20.572388111567232 5.88701398158149 0 0 1
2370 1 16.73360214060751 20.13762911963167 3.0614776084353785 0 0 0
3833 1 22.63551722990176 19.69571283244259 5.494386411819755 0 1 1
2289 1 25.07854878476221 21.15259756577183 6.442079040200916 -1 0 0
2896 1 27.62351509402174 19.250454396960716 6.687072307066241 0 1 1
983 1 28.726794932733423 20.910984721253573 4.775380052768911 0 0 0
3289 1 33.87784823394013 18.532807689630044 6.993555706719618 -1 0 0
112 1 36.42179802522584 19.761599583585756 3.4162324228703427 0 0 0
4138 1 37.13660536658762 21.44945016687119 5.972212035777221 0 0 1
3405 1 42.294074928667115 21.051981035260813 4.15347981701628 0 0 1
1619 1 45.26969580985231 20.360062033198066 3.070682394894114 -1 0 1
1808 1 49.957816053591586 17.898895636523523 4.612359745749889 0 0 1
3947 1 47.97509982965977 19.893790955379863 4.183689746854905 0 0 1
2581 1 0.4625733124912387 22.415724496773603 2.402788625683 1 0 0
1933 1 4.391450074854304 23.578933768328074 5.834334975531455 -1 0 0
2628 1 50.219773356269116 0.47169992442516695 0.3053447965958658 0 1 0
1699 1 44.34206673983597 24.593968374757452 8.021462484914359 0 0 1
1892 1 13.85089613592067 23.598138102077005 3.7437450636129705 0 0 1
3619 1 16.436032551438572 22.875458069169895 3.251320160075625 0 0 1
3012 1 17.615267419843597 22.923693367595998 5.59193042081105 0 0 0
2452 1 20.423470387302995 21.781839343369246 4.869292753707257 0 0 0
4174 1 20.826186427885922 24.386432665812976 3.7508419241144253 0 0 1
1880 1 48.356536935097154 22.714360809388083 14.5174679904568 0 0 1
1188 1 25.32441773823094 23.7675667356842 5.474746345645326 1 0 0
3163 1 37.40822354821543 23.152358337463404 0.12620812733680187 0 0 1
107 1 29.591247908213386 22.89360031262039 6.706694522771322 -1 0 0
713 1 32.28020976195748 21.106239077816653 6.426750158604762 0 -1 0
2775 1 34.655003334093806 22.71799861506748 5.864269345838486 0 1 0
702 1 44.11849816141823 7.495678399561299 15.548670219317943 1 0 0
714 1 24.049061991152044 24.79380607923719 8.042650023848038 0 0 0
2363 1 47.95169567284724 24.092895756666437 12.008617844323318 0 0 0
3698 1 30.151950587593493 20.196260245904785 -0.31699919767511775 -1 1 1
20 1 4.00785691868959 0.19421429131571033 9.337476550499764 1 0 0
263 1 8.190545409499054 -0.27417426385066435 6.167931133664009 -1 0 0
357 1 8.307446166679378 0.8403355047710246 8.60964737109844 1 0 -1
1718 1 13.222825590174713 0.7011209749842466 8.435370479378927 0 0 0
73 1 45.26542801076046 22.608333261315316 14.455263249969692 0 0 0
960 1 18.07929376881915 2.396353653201007 9.692524396174743 0 0 0
546 1 20.3680387167241 2.85143801110257 7.218365707877264 0 0 0
2847 1 6.509017080901828 23.20305863540998 14.030891245531787 0 0 0
1372 1 16.632103433346884 16.84487398199784 -0.06654081780876064 0 0 1
4073 1 30.015975962916347 1.3511749342052486 6.449180958166192 -1 1 1
2735 1 30.723823439222127 1.6564335256540361 9.304891392913545 0 1 0
1252 1 34.90683910915844 2.256517816905111 8.312613927874674 1 1 0
2160 1 40.15481888611244 0.5977133782422024 6.041412026891292 -1 1 0
213 1 42.48643193075529 0.3603861657415307 7.360444342734641 0 0 0
1601 1 43.74564054568016 2.7592931376845495 8.39388650928505 -1 0 0
1540 1 38.37670572306581 19.46139610302152 15.968622945392422 0 -1 1
372 1 49.98052112109248 3.039237170464454 10.457396306742062 0 0 1
3764 1 2.2629523864751317 3.2801908571067773 7.218990722597849 0 0 1
3392 1 1.606152502901022 4.403699018965685 9.765523226968051 1 1 0
293 1 4.5527386765752125 2.3121358930885205 7.753045295364185 0 1 0
3556 1 5.71297726233015 4.5804990140472555 8.669159319086814 0 1 0
2276 1 8.29776851025284 3.642070679206954 8.673201552490935 0 1 0
2350 1 9.966679812913377 3.023857519506673 5.648794220120077 1 0 0
2047 1 12.68096655715697 2.862491251159656 6.70492592555632 0 0 1
2949 1 15.879094170568582 4.020605209213202 9.04040120445532 0 0 0
4129 1 21.095551599233072 3.2222436242959587 10.4575388363481 0 0 1
28 1 20.079346680701814 5.901597123232 7.28469111056132 0 1 0
341 1 23.834334178040564 3.907237966439558 7.235860897413949 0 0 0
1223 1 22.900625679313677 6.3632179171531815 7.383548631257456 1 0 0
3787 1 24.33432054593244 0.0707647515703187 8.281372456835706 1 1 0
2030 1 26.674488370867355 3.6572888998685977 8.674821841240334 -1 0 1
2346 1 29.985136981052563 4.8552152734777465 6.878588973649532 -1 1 0
3546 1 27.48006076821222 2.8613659264995657 6.2398203170356314 0 1 0
1246 1 33.03021446940288 3.462854810396658 9.591104868549596 -1 0 0
3751 1 32.02972859120108 5.653386991393665 8.59403470667092 0 1 1
2612 1 37.280561658447866 3.8712479724945696 8.180192722542088 0 1 0
452 1 41.322575910547016 5.6408665823486475 6.732381005467508 -1 0 0
1072 1 39.3677039118345 2.8029526510529723 9.896117259436028 0 0 0
2 1 44.11504643295822 4.292736605127335 6.210169650649196 0 1 0
837 1 41.487657099310724 4.326412591803456 9.269052695597162 0 0 1
3971 1 46.50634919819616 3.786081693516243 8.74601781315372 -1 1 1
3226 1 2.158766314370603 7.548477948120898 6.9815094494903 0 0 0
3190 1 3.8861373245582245 8.260478322103053 9.127986266774482 1 0 1
353 1 6.191811377295573 7.288459632598687 8.206801423793895 1 0 0
3520 1 10.515037106565813 5.168168528848598 7.955293117653904 1 1 1
2102 1 10.591486003694527 8.040654100341058 9.835045961124212 0 0 0
3566 1 14.586325432556526 7.743302157581589 8.07907451460015 1 0 1
3023 1 12.912371932832839 9.56494126864086 9.26231827761034 1 1 0
2823 1 16.523136441863276 6.106552699311148 6.5281824670544895 1 0 0
2381 1 18.263327169173944 8.49569984122753 6.792717627432006 1 0 0
2133 1 24.10574071542582 7.918588315959161 9.167239815204917 0 1 0
543 1 26.622045764494814 6.360093262578231 8.932084158521516 0 0 -1
3547 1 28.474911410528527 7.030607998967046 6.6619695365896145 0 1 1
2553 1 34.356393030847386 6.523285181918159 7.162086289363321 0 1 0
1306 1 36.759613131851935 6.708516162124981 8.8448649586818 1 0 0
3039 1 39.065754829442355 9.617905104139226 6.170842557631424 0 1 0
1040 1 39.3317864627539 7.771824979816033 8.340327240463106 0 0 0
260 1 44.61461006481754 7.364230877684775 3.9163840389025397 -1 0 0
3873 1 45.736725245173815 6.427647551927225 6.711767287027316 -1 0 1
2684 1 50.056932692395506 7.335340617301257 8.18139595299178 0 0 0
2820 1 48.009072527929064 9.08624842541848 8.938565552052742 -1 0 0
3235 1 0.5802589281771264 10.160643888260202 7.989110397551192 1 1 0
2670 1 3.4239342447754995 11.479470047613535 8.584016601281672 0 1 0
2375 1 8.038668617715105 10.8211507077116 7.487537989151064 0 0 0
2107 1 7.917952230173343 8.830424095584814 9.582800672440786 0 0 0
231 1 11.987802243887211 10.70330260864125 6.664044311468007 1 0 0
2254 1 15.926707286011904 10.161821386516719 7.152214333403705 0 0 0
1122 1 19.810179662934342 9.654481161292399 8.754091767850504 0 1 0
1823 1 23.886690506688208 11.067848198457982 6.7833286250858515 0 0 1
2278 1 25.097034053768894 10.645276417081824 9.456092708561618 0 1 0
2767 1 27.445046478539926 12.412570957161632 8.32934106355479 0 1 0
356 1 29.396416701173234 9.923206546617852 7.236395911091561 0 0 0
876 1 32.03500346164381 10.854327905509738 7.467965834113351 0 0 0
1863 1 34.038341792460756 9.050327092523649 8.060668172410118 0 0 1
2941 1 36.80416847503949 9.92827882308157 8.339798954981193 -1 0 0
1927 1 41.3104556609823 11.434206126588103 6.477407717798121 0 0 0
2230 1 43.74488562931299 10.99854370001594 8.145212586890912 -1 0 0
3502 1 46.7127005115927 10.394373289664001 6.674114880413869 0 1 0
4054 1 3.067587583692528 14.1050402779076 8.756591707669749 0 0 1
1249 1 5.82850947986887 15.04093731061356 6.271828972311832 1 0 1
2208 1 5.309896764068644 11.914310275898965 6.560190901272683 1 1 0
3889 1 8.962683977436562 13.082824104774547 8.972554574284644 0 0 1
3711 1 11.901941345526698 13.02241380472307 8.618491951736992 0 0 1
2438 1 15.792740044977705 15.040535333841817 7.034180662649979 1 1 0
3928 1 17.188975221764878 13.87894107313501 9.018340141155107 0 0 1
1397 1 19.25249849159655 12.27946564577636 7.936392999576359 0 0 0
2727 1 22.27104778843073 13.363809327819833 7.425857845592026 1 0 0
1894 1 22.88212965033214 16.068053036894625 8.688212326024692 1 -1 0
3616 1 24.61283578985974 15.33090239746107 6.21897434595811 0 0 1
1987 1 27.46614367924658 14.549687885050723 10.473806776526338 0 0 1
1055 1 29.497068200571846 14.054178192758213 7.928362524776292 1 1 1
3024 1 31.643510633305628 13.109977017742459 9.115592792570135 0 1 0
3539 1 39.30619303661736 14.189647353809686 6.818765240561924 0 1 1
2873 1 40.30639624415309 12.468543380601215 8.967028491909586 0 1 0
2542 1 43.491668813262436 15.825719259721048 7.950337318673824 0 1 0
2816 1 46.53288647359281 13.220579041940583 7.215152858883569 -1 1 0
2822 1 44.594487019358084 13.413087922271057 9.352337034788185 -1 1 1
2062 1 48.91026786367817 13.634723004049688 8.274627431303132 0 0 0
2831 1 -0.3691345500106047 14.49866575037013 6.2172640766918255 0 0 0
3397 1 2.4469493732425027 14.667566371921556 6.191087131605593 1 0 0
1385 1 3.99420319267204 17.415695171424666 6.368437634704989 0 0 0
539 1 8.146320731425886 15.041268022825726 7.767683488998678 1 -1 0
2750 1 9.455129723150137 17.290903211643208 9.292898879572236 0 1 1
1663 1 13.115353507916327 15.183005823841388 7.731536626463752 0 0 0
3018 1 16.99592517053838 17.70883445074344 6.951830314044253 0 0 0
2256 1 24.398174383139747 17.789080412743136 10.016670445079626 0 1 0
2968 1 29.41274102208512 16.89880998636288 8.027013418100042 -1 1 0
2469 1 33.81204740731734 14.49700739945975 8.609971547213153 1 1 0
217 1 32.155570223835454 17.087272523680173 9.0251533112792 -1 1 0
3322 1 37.65392255284101 16.002892399412545 8.590023781514498 0 0 0
1729 1 42.05465789750525 18.129130105036502 8.825593367559947 0 0 1
4033 1 45.39397305800176 16.6529585767642 5.75242260197069 0 0 1
1478 1 49.36666963434412 17.6120347636628 7.597671914821756 -1 1 0
1668 1 1.2766823859893173 18.61247805389815 6.0556109112253615 1 0 0
949 1 5.365067355562331 18.711676490477423 8.444141356001367 0 0 0
3 1 6.455007458544997 19.979191876083874 6.195890811859513 0 -1 1
299 1 13.812119568194955 20.27526206901636 6.683387140151141 0 0 0
2128 1 13.779419767299649 19.292563844034767 9.446997442053929 1 0 0
2348 1 16.39015612397218 18.97949787492082 9.597189703723568 0 0 0
1571 1 19.46693593424076 21.725452778280463 7.707303861704233 1 0 1
267 1 20.965845933647408 19.737753543212023 9.373440668978244 1 0 0
3157 1 23.949689963318374 20.22204731272247 8.980943917477095 0 0 1
911 1 27.360796770394185 17.726557341917676 9.68879197757472 1 0 0
1722 1 34.134673249573424 20.301418040469567 9.192987006178642 0 0 0
218 1 36.85592201070523 20.718789058038915 9.487144925660228 1 0 0
1169 1 37.960368345483175 19.166748667582223 7.6428806166455665 0 0 0
2597 1 40.64370083034409 19.662450125558674 6.852033542170059 -1 1 0
3690 1 41.37546335851289 22.422208585773276 6.548737095420263 0 0 0
1174 1 46.8863699179427 18.91457012409656 7.0892311194122595 -1 0 0
2269 1 0.28139869870525747 22.97986667578828 5.675295417060647 0 0 0
455 1 3.257822841688221 23.237303270909745 8.435143526781115 1 0 0
32 1 8.08881257805057 22.249787550192014 7.273922183776337 0 0 0
4148 1 10.78566797207205 22.55803229471725 7.567561081734276 1 0 1
582 1 11.07502545235129 22.329182879057473 10.344617018275928 1 0 0
2700 1 15.170096566233441 23.33317174900397 9.871077667312036 0 0 0
655 1 17.672258824929514 21.455939760864823 9.655406464473167 0 0 0
2817 1 14.97621485093144 22.66706740211406 7.227259519730894 0 0 0
859 1 21.462772410592756 23.871562060550286 8.528498037674577 0 -1 0
3708 1 20.372209213362158 13.659938739707844 -0.15004095455403765 -1 0 1
3305 1 27.24284638634446 20.745774029723204 9.300869084210307 0 0 0
1577 1 25.07975298195576 22.400131025454357 10.68460633890101 -1 0 1
3510 1 12.461511012117963 18.09391692002397 15.505888095136088 0 0 1
3283 1 29.76283876088696 22.09866504341971 9.637180285447075 0 1 0
2268 1 32.52127349072788 22.931185117414273 9.475561855444672 0 1 0
1258 1 38.682409461113394 22.623114432237415 8.470091170689898 -1 0 0
1590 1 43.94108670946042 22.43092983601728 10.045735442305471 0 0 0
3946 1 29.886899188244136 4.245304293420029 15.83764439667365 -1 2 1
3974 1 46.93337478863869 23.963779336799327 7.4489716167044655 0 1 1
1896 1 48.426990918903215 22.84789375172214 4.965108258235992 0 0 1
2379 1 0.6657111977860211 0.8544313484568997 11.656499106106004 1 1 0
1595 1 3.283669610839889 1.8774257760321666 11.525209935805636 0 0 1
2486 1 43.99423288996512 0.5914606228121324 14.56717526271593 -1 1 0
1064 1 1.2061779307802207 24.280859392849745 15.332127964786023 0 0 0
1251 1 10.991480797109197 0.10430217221645699 10.042501848512337 0 0 0
306 1 11.871568784171275 1.3969361689464568 12.274830506529332 0 0 -1
1013 1 14.124883798322244 2.989356057862285 11.139698816036248 1 0 0
225 1 15.470109864429928 0.5036339787712918 10.062864027867702 0 0 0
1294 1 18.85923110087686 2.4997579651745547 12.587521559561504 0 0 0
4016 1 24.614983696629267 1.052919360616925 11.810101903973862 0 1 1
1006 1 24.198261194813853 3.2191678665058774 9.960746221751668 0 0 1