
# Create simulation box of size 50 x 50 x 50 Angstrom
#
lattice	            sc 1
Lattice spacing in x,y,z = 1.0000000 1.0000000 1.0000000
region 	            all block 0 50 0 50 0 50 units box
create_box          1 all
Created orthogonal box = (0.0000000 0.0000000 0.0000000) to (50.000000 50.000000 50.000000)
  1 by 2 by 3 MPI processor grid

# fill box with 4175 randomly distributed atoms
#
create_atoms        1 random 4175 63782 all
Created 4175 atoms
  create_atoms CPU = 0.001 seconds
mass                1 18.015

# Define potential
#
pair_style          sw
pair_coeff          * * ML_mW.sw mW
Reading sw potential file ML_mW.sw with DATE: 2019-02-27

# Run minimization
#
minimize            1.0e-8 1.0e-8 10000 1000
WARNING: Using 'neigh_modify every 1 delay 0 check yes' setting during minimization (../min.cpp:187)
Neighbor list info ...
  update every 1 steps, delay 0 steps, check yes
  max neighbors/atom: 2000, page size: 100000
  master list distance cutoff = 6.0032907
  ghost atom cutoff = 6.0032907
  binsize = 3.0016454, bins = 17 17 17
  1 neighbor lists, perpetual/occasional/extra = 1 0 0
  (1) pair sw, perpetual
      attributes: full, newton on
      pair build: full/bin/atomonly
      stencil: full/bin/3d
      bin: standard
Per MPI rank memory allocation (min/avg/max) = 4.255 | 4.258 | 4.261 Mbytes
Step Temp E_pair E_mol TotEng Press 
       0            0    7792709.3            0    7792709.3    5898794.3 
     630            0   -45180.336            0   -45180.336   -154.07449 
Loop time of 1.16964 on 6 procs for 630 steps with 4175 atoms

97.3% CPU use with 6 MPI tasks x no OpenMP threads

Minimization stats:
  Stopping criterion = max force evaluations
  Energy initial, next-to-last, final = 
      7792709.32924461  -45180.0188663597   -45180.336116598
  Force two-norm initial, final = 2.0191930e+08 4.9721331
  Force max component initial, final = 1.0948746e+08 0.73126211
  Final line search alpha, max atom move = 0.053306038 0.038980685
  Iterations, force evaluations = 630 1000

MPI task timing breakdown:
Section |  min time  |  avg time  |  max time  |%varavg| %total
---------------------------------------------------------------
Pair    | 0.87131    | 0.99063    | 1.0863     |   7.0 | 84.70
Neigh   | 0.023745   | 0.024765   | 0.026112   |   0.5 |  2.12
Comm    | 0.036304   | 0.1329     | 0.25375    |  19.2 | 11.36
Output  | 0          | 0          | 0          |   0.0 |  0.00
Modify  | 0          | 0          | 0          |   0.0 |  0.00
Other   |            | 0.02135    |            |       |  1.82

Nlocal:        695.833 ave         704 max         685 min
Histogram: 1 1 0 0 1 0 0 1 0 2
Nghost:        1494.17 ave        1515 max        1468 min
Histogram: 1 1 0 0 0 0 1 1 1 1
Neighs:        0.00000 ave           0 max           0 min
Histogram: 6 0 0 0 0 0 0 0 0 0
FullNghs:      19997.0 ave       20462 max       19320 min
Histogram: 1 1 0 0 0 0 0 2 0 2

Total # of neighbors = 119982
Ave neighs/atom = 28.738204
Neighbor list builds = 26
Dangerous builds = 0

# Add velocity/set timestep
#
velocity            all create ${TEMP} 120598 rot yes dist gaussian
velocity            all create 230 120598 rot yes dist gaussian
timestep            5.0

# Define output
#
compute	            1 all msd
thermo	            100
thermo_style        custom step temp press vol etotal ke pe c_1[4] density

# Neighbor lists
#
neigh_modify        delay 0 every 1 check yes

# Set fixes
#
fix                 1 all momentum 10 linear 1 1 1 rescale
fix                 2 all nve
fix                 3 all temp/csvr ${TEMP} ${TEMP} 500.0 928347
fix                 3 all temp/csvr 230 ${TEMP} 500.0 928347
fix                 3 all temp/csvr 230 230 500.0 928347
fix                 4 all press/berendsen iso ${PRES} ${PRES} 1000.0 modulus 20000
fix                 4 all press/berendsen iso -550 ${PRES} 1000.0 modulus 20000
fix                 4 all press/berendsen iso -550 -550 1000.0 modulus 20000

# Run 0.5 ns equilibration
#
dump                1 all custom 1000 eq.${NAME}.dump id type x y z vx vy vz
dump                1 all custom 1000 eq.liquid_density_MLmW.dump id type x y z vx vy vz
run                 100000
Per MPI rank memory allocation (min/avg/max) = 3.506 | 3.508 | 3.511 Mbytes
Step Temp Press Volume TotEng KinEng PotEng c_1[4] Density 
     630          230    892.42114       125000   -42318.699    2861.6373   -45180.336 2.7295415e-33   0.99914793 
     700     146.2925   -464.59645    125988.79   -41432.989    1820.1568   -43253.146   0.27590057   0.99130637 
     800    180.69734   -658.87715    126254.17   -40623.026    2248.2185   -42871.244   0.63906875   0.98922268 
     900    201.32339   -418.70426    126438.06   -40165.673    2504.8457   -42670.519    1.0937117   0.98778399 
    1000    210.10282   -763.64347    126366.27   -39867.302    2614.0786    -42481.38    1.5468884   0.98834513 
    1100     224.2357   -696.84524    126383.74   -39664.686    2789.9184   -42454.604    1.9730841   0.98820854 
    1200    223.39357   -238.22311    126842.53   -39709.918    2779.4408   -42489.359    2.3290127   0.98463416 
    1300    226.20091   -402.34706     127078.9   -39708.571    2814.3694    -42522.94    2.6304107   0.98280277 
    1400    223.19416    -491.3591    127050.62   -39722.859    2776.9596   -42499.818    3.0752547    0.9830215 
    1500    225.28697   -463.31847    127279.56   -39649.463    2802.9982   -42452.461    3.3569783   0.98125333 
    1600    226.62436   -598.34917    127524.72   -39548.317    2819.6378   -42367.955    3.7728746   0.97936692 
    1700    228.90395   -439.96124    127579.53   -39568.067    2848.0003   -42416.068    4.1307311   0.97894615 
    1800    227.00505   -349.08431    127895.92   -39667.963    2824.3744   -42492.338    4.5226201   0.97652444 
    1900    230.74321   -586.03824    127741.22   -39668.418    2870.8842   -42539.302    4.8427146   0.97770708 
    2000    230.92814   -603.42878    128059.43   -39637.443    2873.1851   -42510.628    5.2016835   0.97527761 
    2100    233.15257   -657.79536    128356.76   -39593.297    2900.8612   -42494.158    5.6482348   0.97301839 
    2200    230.93942   -454.73332    128343.37   -39637.057    2873.3254   -42510.382    6.1325216   0.97311995 
    2300    231.20838   -410.46375    128505.41   -39632.808    2876.6719    -42509.48    6.4066422   0.97189285 
    2400    232.67762   -499.94935    128776.37    -39640.78    2894.9519   -42535.732    6.6626265   0.96984787 
    2500     230.8516   -485.74819    128742.83   -39600.691    2872.2327   -42472.924    7.0250777   0.97010055 
    2600    231.81655   -544.58771    128759.99    -39541.67    2884.2386   -42425.909    7.2988474   0.96997124 
    2700    233.43072   -596.45385    128454.02   -39571.754    2904.3219   -42476.076    7.6361777   0.97228166 
    2800    239.35006   -359.02088    128873.45    -39560.71    2977.9698    -42538.68    8.0812323   0.96911729 
    2900    233.21238   -509.55215    128910.67   -39653.926    2901.6053   -42555.532    8.3843365    0.9688375 
    3000     230.5576   -823.53296       128838   -39696.447    2868.5748   -42565.022    8.6590813   0.96938394 
    3100    233.02487   -553.72411    128899.29    -39680.61    2899.2724   -42579.883    8.8828878   0.96892303 
    3200    230.43252   -363.09242    128962.77     -39731.4    2867.0186   -42598.419    9.1593647    0.9684461 
    3300    231.26048   -555.66427    129134.74   -39738.281    2877.3201   -42615.601    9.3194652    0.9671564 
    3400    227.87482   -379.37978    129502.68   -39772.791     2835.196   -42607.987    9.6959366   0.96440856 
    3500    226.65454   -558.82009    129560.73   -39804.074    2820.0134   -42624.088    9.8140828   0.96397644 
    3600    227.67847   -557.18818    129390.76   -39851.814    2832.7531   -42684.567    10.053546   0.96524273 
    3700    228.54625   -524.40621    129250.45   -39912.979    2843.5498   -42756.529    10.351398   0.96629057 
    3800    228.72205   -610.50895    129317.64   -39860.925    2845.7372   -42706.662    10.607717   0.96578851 
    3900    226.79943   -588.83515    129458.59    -39882.52    2821.8161   -42704.336    10.853326   0.96473697 
    4000    233.64626   -560.94117    129691.24   -39886.174    2907.0036   -42793.177    11.096371   0.96300635 
    4100    227.53935   -611.92835    129858.26   -39880.239    2831.0221   -42711.261    11.458534    0.9617678 
    4200     228.6701   -455.91274    129690.38   -39906.997    2845.0908   -42752.088    11.745224   0.96301279 
    4300    225.61057   -550.19335    129677.55   -39918.739    2807.0245   -42725.763     11.94918   0.96310805 
    4400    226.43704   -631.91161    129701.66   -39930.947    2817.3073   -42748.254    12.282387   0.96292902 
    4500    228.21817   -474.42571    129691.98   -39950.438     2839.468   -42789.905    12.515278   0.96300091 
    4600    226.31008    -639.5446    129767.41   -39998.868    2815.7277   -42814.596     12.73153   0.96244113 
    4700    226.30665   -588.39878    129965.69   -39911.159     2815.685   -42726.844    12.975841   0.96097281 
    4800    227.52949   -820.05162    129876.03   -39965.588    2830.8994   -42796.487    13.194848   0.96163622 
    4900    234.81983   -542.81245     129804.2   -39843.608    2921.6051   -42765.213    13.435541   0.96216836 
    5000    237.04859   -508.67913    129842.53   -39792.041    2949.3351   -42741.377     13.48226   0.96188433 
    5100     232.8955   -567.92292    129836.45   -39859.395    2897.6627   -42757.058    13.824064   0.96192936 
    5200    231.20989    -585.7056    129811.02   -39909.682    2876.6906   -42786.373    14.024635   0.96211779 
    5300     229.3729   -345.05206    129958.32   -39885.399    2853.8349   -42739.234    14.317902   0.96102725 
    5400    231.59659   -702.21218     129916.1   -39935.945    2881.5019   -42817.447    14.574659   0.96133959 
    5500    228.29943    -539.4832    129741.56   -39945.714    2840.4789   -42786.193    14.761778    0.9626329 
    5600    229.10299    -577.5783    129824.55   -39945.723    2850.4768     -42796.2    15.053321   0.96201752 
    5700     229.1344   -532.78596     129666.7   -39928.699    2850.8675   -42779.566    15.289004    0.9631886 
    5800    226.79818   -577.97068    129650.97   -39969.914    2821.8005   -42791.714    15.424518   0.96330551 
    5900    228.93206   -489.08852    129745.64   -40008.284      2848.35   -42856.634    15.762152   0.96260257 
    6000    228.47643   -385.71504    129736.11   -40016.905    2842.6812   -42859.586     15.86943   0.96267328 
    6100    232.16555   -468.70653    129803.94   -39979.053    2888.5809   -42867.634    16.012881   0.96217023 
    6200    228.25343    -647.1353    129942.29   -40049.382    2839.9066   -42889.289    16.187828   0.96114581 
    6300    227.95458   -481.18378    129868.43   -40003.337    2836.1884   -42839.526    16.346253   0.96169246 
    6400     234.2408    -476.1487    130021.11   -39990.039    2914.4008    -42904.44    16.494302   0.96056318 
    6500    231.80443   -556.68893    130108.79   -39934.208    2884.0878   -42818.296    16.940856   0.95991583 
    6600    229.42975   -522.76285    130036.18   -40012.603    2854.5423   -42867.146    17.007039   0.96045187 
    6700    227.14344   -680.58369    130009.78   -40068.711    2826.0962   -42894.807    17.210833    0.9606469 
    6800    228.93363   -679.12727    129970.81   -39970.454    2848.3696   -42818.824    17.575384   0.96093495 
    6900    234.07425   -780.99192    129678.65   -39907.359    2912.3286   -42819.687    17.757493   0.96309984 
    7000    233.30579   -475.29411    129615.33   -39903.787    2902.7676   -42806.554    17.793248   0.96357037 
    7100    234.23432   -458.18248    129883.84   -39927.882    2914.3203   -42842.202    18.058807   0.96157835 
    7200    232.45001   -589.76005    130066.46   -40009.447      2892.12   -42901.567     18.22211   0.96022824 
    7300    232.55278   -609.06875    130155.95   -40092.539    2893.3986   -42985.938    18.327576   0.95956805 
    7400    228.05073   -478.58049    129951.26   -40145.427    2837.3847   -42982.812    18.353937   0.96107948 
    7500    230.55118   -563.13765    129809.47   -40109.094     2868.495   -42977.589    18.671072   0.96212927 
    7600    222.54878   -636.33066    129732.89     -40200.1    2768.9299    -42969.03     18.88673   0.96269718 
    7700     228.5107   -537.09794    130030.88   -40085.986    2843.1075   -42929.093    18.801696   0.96049104 
    7800    230.05444   -615.58646    129841.63   -40068.266    2862.3146   -42930.581    18.893721   0.96189096 
    7900    227.81937   -539.14481    129800.43   -40129.268     2834.506   -42963.774    19.243606    0.9621963 
    8000    228.17496   -412.99296    129892.35   -40092.226    2838.9303   -42931.156    19.469252   0.96151535 
    8100    225.47608   -562.38208    129865.67   -40160.792    2805.3512   -42966.144    19.608367   0.96171288 
    8200    225.17855   -383.46673    130017.21   -40175.948    2801.6492   -42977.598    19.858467   0.96059196 
    8300    222.80079   -432.75681     130153.1   -40149.154    2772.0654   -42921.219    20.080564   0.95958905 
    8400    224.03152   -530.56096    130279.68    -40081.19    2787.3781   -42868.568    20.394272   0.95865674 
    8500    230.56691   -691.06873    130088.79   -40016.903    2868.6907   -42885.594    20.426282   0.96006341 
    8600     228.6968   -436.76383    130192.73   -40025.799     2845.423   -42871.222    20.504336   0.95929698 
    8700    230.57612   -645.68342    130087.06   -40002.526    2868.8053   -42871.331    20.774544   0.96007621 
    8800    230.78056   -565.77317       130453   -40028.447    2871.3489   -42899.796    20.982976   0.95738305 
    8900    227.13701    -503.0473     130324.7   -40121.369    2826.0162   -42947.386    21.119924   0.95832554 
    9000     227.1343   -374.90104    130365.69    -40089.11    2825.9825   -42915.093     21.41053   0.95802421 
    9100    225.83895   -428.43479    130312.73   -40166.001    2809.8659   -42975.867    21.556543   0.95841361 
    9200    229.50083   -691.46264    130152.05   -40071.058    2855.4267   -42926.485    21.759431   0.95959678 
    9300    229.86693   -676.87077    130169.65   -40124.936    2859.9816   -42984.918    22.044407   0.95946707 
    9400    228.58232   -374.58882    130228.19   -40090.703    2843.9986   -42934.702    22.228537   0.95903573 
    9500    230.21206   -544.19807    130113.87   -40116.694    2864.2757    -42980.97    22.261843   0.95987835 
    9600    232.32341   -760.91775    130363.45   -40083.505    2890.5448    -42974.05    22.312138   0.95804069 
    9700    230.86365   -547.04866    130515.29   -40017.621    2872.3827   -42890.004    22.443405   0.95692611 
    9800     231.1812   -584.96868    130559.31   -40101.366    2876.3337     -42977.7    22.569813   0.95660352 
    9900    223.35405   -536.15626    130720.43    -40185.12     2778.949   -42964.069    22.983578   0.95542443 
   10000    230.27839   -564.97579    130844.89    -40196.64     2865.101   -43061.741     23.10959   0.95451563 
   10100    230.16366   -675.79113    130934.95   -40165.236    2863.6735    -43028.91    23.257467    0.9538591 
   10200    221.97867   -653.10193    130903.01   -40210.803    2761.8366    -42972.64    23.586586   0.95409184 
   10300    227.28453   -475.92534     130961.6   -40186.456    2827.8517   -43014.307    23.601899     0.953665 
   10400    228.30944   -637.80235     130814.9    -40110.17    2840.6035   -42950.773    23.854133   0.95473448 
   10500    226.71581   -501.55281    130845.82   -40082.732    2820.7757   -42903.508    24.067155   0.95450886 
   10600    237.78569   -436.80737     131058.1   -40009.907    2958.5061   -42968.413    24.248343   0.95296278 
   10700    233.98058   -361.27008    131234.55   -40011.208    2911.1632   -42922.371     24.53605   0.95168147 
   10800    233.69472   -643.20396     131431.2    -40011.31    2907.6066   -42918.916    24.692791   0.95025755 
   10900     230.5574    -585.1956    131149.23   -40052.638    2868.5724   -42921.211    24.619854   0.95230058 
   11000    232.90512   -661.44008    131145.62   -40049.708    2897.7824    -42947.49     24.93179   0.95232685 
   11100    231.68254   -556.94812    131146.95   -40079.645    2882.5713   -42962.216    24.996575   0.95231716 
   11200    229.75344    -593.9645     131304.8   -40060.618    2858.5696   -42919.187    25.123733   0.95117235 
   11300    231.47279   -661.42172    131146.96   -40059.056    2879.9615   -42939.018    25.414729   0.95231708 
   11400    229.70338    -566.2421    131260.85   -40057.741    2857.9467   -42915.688    25.608511   0.95149079 
   11500    230.85868   -601.88635    131145.67   -40093.999    2872.3209    -42966.32    25.806717   0.95232649 
   11600    229.33224   -611.11996    131128.38   -40099.219     2853.329   -42952.548    26.195875   0.95245203 
   11700     234.6182    -653.2036    131000.41   -39981.687    2919.0965   -42900.783    26.231095   0.95338244 
   11800    229.43518   -540.61769    131136.38   -40045.154    2854.6099   -42899.764    26.556231   0.95239392 
   11900    234.17281   -610.06526    131059.86   -40053.328    2913.5549   -42966.883    26.840727   0.95294996 
   12000    233.31667   -380.59948    131203.55   -40066.907    2902.9029    -42969.81    26.892671   0.95190631 
   12100    232.41329    -597.7945    131012.25   -40020.966    2891.6632    -42912.63    26.888752   0.95329627 
   12200    226.53971   -627.70335    130938.09   -40019.136    2818.5846    -42837.72    27.404979   0.95383624 
   12300    227.55804   -555.69034    130874.08   -40039.355    2831.2547    -42870.61    27.506462   0.95430275 
   12400    229.37369   -446.85959    130724.04   -40025.624    2853.8448   -42879.469    27.706919   0.95539802 
   12500    224.73467   -574.70802    130918.49   -40129.906    2796.1266   -42926.032    27.931104   0.95397898 
   12600    235.17351   -537.80132    131009.05   -40035.492    2926.0056   -42961.498    27.961558   0.95331956 
   12700    231.46676   -682.90184    131002.75   -40020.622    2879.8865   -42900.509    28.363373   0.95336545 
   12800     237.0958   -348.81604    130974.45   -40014.499    2949.9225   -42964.421    28.573331   0.95357139 
   12900    233.26843    -414.0364    130927.57   -40086.691    2902.3027   -42988.994    28.777971   0.95391287 
   13000    229.37269   -600.10642     130870.8   -40029.129    2853.8324   -42882.962    28.710663   0.95432666 
   13100    232.63043   -496.76873    130681.02   -40031.017    2894.3648   -42925.382    28.757842   0.95571254 
   13200    236.43509    -525.7076    130612.69   -39929.333     2941.702   -42871.035    28.873613   0.95621256 
   13300    233.63321   -741.24253    130695.22   -39973.391    2906.8413   -42880.232    29.193781   0.95560874 
   13400    232.59658   -631.88012    130630.88   -40059.339    2893.9437   -42953.283    29.340962   0.95607936 
   13500    231.54412    -333.2573    130633.45   -40107.537     2880.849   -42988.386    29.542882    0.9560606 
   13600     229.9891   -559.57547    130560.08   -40147.291    2861.5016   -43008.792     29.65166   0.95659782 
   13700    230.69253   -490.50471    130500.38   -40145.921    2870.2536   -43016.175    29.744721   0.95703549 
   13800    230.54098   -602.97991    130739.53   -40047.203    2868.3681   -42915.571    30.000157   0.95528487 
   13900    229.57045   -695.75481    130490.72   -40084.914    2856.2929   -42941.207     30.11723   0.95710628 
   14000    229.24639   -542.25605    130462.23    -40085.29     2852.261   -42937.551    30.350648   0.95731531 
   14100    224.28417   -547.77988    130491.44   -40083.801    2790.5214   -42874.323    30.600395     0.957101 
   14200    231.88721    -464.0497    130578.13    -40117.52    2885.1177   -43002.638    30.727457   0.95646561 
   14300    230.22525   -454.85336    130464.93   -40170.919    2864.4398   -43035.359    30.913362   0.95729552 
   14400    230.26644   -536.38592    130674.38   -40143.232    2864.9523   -43008.185    31.056832   0.95576115 
   14500    232.93878   -655.70398    130735.65   -40091.259    2898.2013   -42989.461    31.249533   0.95531316 
   14600    232.41098   -561.94256    130527.69   -40111.175    2891.6344   -43002.809     31.36648    0.9568352 
   14700    229.99394   -506.12147    130738.79   -40147.711    2861.5619   -43009.273    31.636055   0.95529024 
   14800    229.28071   -484.36911    130875.47   -40183.724     2852.688   -43036.412    31.663551   0.95429262 
   14900    224.36244   -521.65885    130598.98   -40268.217    2791.4953   -43059.712    31.731932   0.95631293 
   15000    224.35695   -421.40833    130691.95   -40258.502     2791.427   -43049.929    31.878887   0.95563264 
   15100    227.06491   -645.78263    130844.79   -40282.395    2825.1192   -43107.514    32.175049   0.95451637 
   15200    226.14628   -544.20107    130816.68    -40198.35    2813.6896   -43012.039     32.33193   0.95472146 
   15300    229.75693   -427.54079    130999.72   -40202.785     2858.613   -43061.398    32.520453   0.95338749 
   15400    229.77464    -638.3286    130963.53    -40198.62    2858.8333   -43057.453    32.785781   0.95365092 
   15500    225.05328   -708.98002    130994.93   -40173.938    2800.0906   -42974.028    32.836153   0.95342231 
   15600    230.81217   -493.63241    130782.84    -40117.95    2871.7422   -42989.692    32.739249   0.95496847 
   15700    226.17542   -527.16133    130831.63   -40215.759    2814.0522   -43029.811    32.901163   0.95461237 
   15800    228.83335   -678.60298     130817.1   -40194.948    2847.1219    -43042.07    33.032952   0.95471836 
   15900    227.10922   -513.89684    130659.24   -40237.083    2825.6705   -43062.753    33.277113   0.95587187 
   16000    228.43991   -527.01403    130886.56   -40161.896    2842.2268   -43004.123    33.523471   0.95421171 
   16100    230.94578   -561.34914     130968.2   -40106.623    2873.4046   -42980.027    33.839527   0.95361693 
   16200    230.44817   -549.28771    131167.35   -40181.875    2867.2134   -43049.089    33.901871   0.95216906 
   16300     228.7243   -561.69685    131170.01   -40201.331    2845.7651   -43047.096    33.919272   0.95214977 
   16400    230.57299   -700.78879    131025.89   -40090.542    2868.7664   -42959.309    34.001524   0.95319708 
   16500    231.40577   -607.21578    130794.69   -40072.274    2879.1277   -42951.402    34.025673   0.95488194 
   16600     229.3145   -446.78758    130755.21   -40051.493    2853.1083   -42904.602    34.259449   0.95517025 
   16700    227.49161   -508.57335    130909.16   -40074.352    2830.4282   -42904.781    34.459315   0.95404703 
   16800    227.48012   -605.92603    130558.07    -40071.84    2830.2852   -42902.126    34.642281   0.95661257 
   16900    230.03763   -596.27511    130678.71   -40026.496    2862.1055   -42888.602      34.9564   0.95572945 
   17000    232.32816   -477.38229    130887.54   -40038.326     2890.604    -42928.93    35.157802   0.95420457 
   17100    232.71133   -557.62373    130934.56   -39952.013    2895.3713   -42847.384    35.308261   0.95386196 
   17200    234.73228   -732.29375    130808.65    -39983.87    2920.5158   -42904.386    35.434667   0.95478003 
   17300    231.01849     -581.266    130645.72   -40063.892    2874.3092   -42938.202    35.674597   0.95597077 
   17400    233.40338   -573.84676    130722.09   -40096.009    2903.9818    -42999.99    35.792884   0.95541227 
   17500    231.38501   -456.49083     130815.6   -40083.357    2878.8695   -42962.226     36.05003   0.95472933 
   17600    236.13506   -470.75553    130923.17   -40078.223     2937.969   -43016.192    36.173192   0.95394491 
   17700    231.87926    -515.0366     130943.2   -40102.239    2885.0188   -42987.258    36.192368     0.953799 
   17800    224.82676   -688.46323    130792.14   -40100.401    2797.2723   -42897.673    36.512165   0.95490057 
   17900    231.76636   -455.46169    130706.22   -40070.726    2883.6141    -42954.34    36.644494   0.95552826 
   18000     234.9821   -292.44751    130944.93   -40013.317     2923.624   -42936.941    36.918984   0.95378642 
   18100     230.6638    -718.0262    130936.84   -40146.199    2869.8961   -43016.095    36.920261   0.95384529 
   18200    228.05295   -677.87054    130946.22   -40151.419    2837.4122   -42988.831    37.305027   0.95377696 
   18300    237.46978   -332.15624    131137.84   -40049.115    2954.5755   -43003.691    37.440723   0.95238332 
   18400    229.38176   -558.02228    130975.63   -40124.314    2853.9452   -42978.259    37.491196   0.95356283 
   18500    230.14036   -475.98571    131165.92   -40082.881    2863.3836   -42946.264    37.735529   0.95217946 
   18600    232.29598   -445.32525    131219.02   -40141.397    2890.2036     -43031.6     37.95472   0.95179412 
   18700    236.19418   -578.03645    131620.12   -40111.684    2938.7047   -43050.388     38.19825    0.9488936 
   18800    236.13482   -413.46519    131440.82   -40094.028    2937.9661   -43031.994    38.287458   0.95018798 
   18900    232.18742   -635.92612    131212.64   -40139.323    2888.8529   -43028.176    38.556733   0.95184036 
   19000    235.52895   -539.76667    131258.06   -40103.442    2930.4279    -43033.87    38.727075   0.95151103 
   19100    233.51535   -408.47036    131202.67   -40162.762    2905.3749   -43068.137    38.773855   0.95191275 
   19200    232.66122   -527.71971    131081.41   -40122.509    2894.7479   -43017.257    38.857024   0.95279335 
   19300    234.77932   -588.96102    130915.14   -40074.567    2921.1011   -42995.669    38.877539   0.95400344 
   19400    232.72022   -627.48153    130977.54    -40091.37     2895.482   -42986.852    39.027618    0.9535489 
   19500    229.64119   -623.21097    131091.89     -40069.3     2857.173   -42926.473    39.189389   0.95271715 
   19600    229.78689   -719.72834    131221.59   -40117.322    2858.9858   -42976.308    39.486137   0.95177548 
   19700    233.14107   -531.25114    131360.49   -40089.561    2900.7181   -42990.279      39.7852   0.95076905 
   19800    228.68416   -477.44503    131304.66   -40123.167    2845.2657   -42968.433    39.991341   0.95117335 
   19900    231.03225   -484.66217    131443.37   -40134.141    2874.4804   -43008.621    40.209221   0.95016958 
   20000    228.89421   -621.38177    131343.12   -40186.609    2847.8792   -43034.488    40.141506   0.95089478 
   20100    230.56743   -788.26925    131275.18   -40157.019    2868.6971   -43025.716    40.310018   0.95138693 
   20200    230.08438   -542.58791    131403.91   -40223.417    2862.6871   -43086.104    40.534741   0.95045488 
   20300    226.30351   -479.67562    131416.81   -40263.376    2815.6459   -43079.022    40.623044   0.95036162 
   20400    226.63799   -416.01299    131430.35   -40266.244    2819.8074   -43086.051    41.037591   0.95026368 
   20500    230.06025   -515.68389     131324.7    -40244.69    2862.3869   -43107.077    41.211568    0.9510282 
   20600    227.35473   -536.44815    131206.09   -40282.366    2828.7251   -43111.091    41.375009    0.9518879 
   20700    228.19293   -593.12305    131332.32   -40217.565    2839.1539   -43056.719    41.364907   0.95097303 
   20800    231.01167    -582.0557    131346.42   -40227.844    2874.2244   -43102.068    41.541358   0.95087089 
   20900    228.20095   -483.99054    131175.83   -40270.002    2839.2536   -43109.256     41.80561    0.9521075 
   21000    227.77453   -576.64119    131269.93   -40361.525    2833.9482   -43195.473     42.26667   0.95142497 
   21100    228.16481   -645.17535    131128.16   -40391.344     2838.804   -43230.148    42.643455    0.9524536 
   21200    227.10183   -575.76197     131198.3   -40362.565    2825.5785   -43188.143    42.773096    0.9519444 
   21300    230.72097   -496.91647    131073.87   -40379.453    2870.6076   -43250.061    42.842288   0.95284811 
   21400    226.33148   -390.14304    131405.35   -40346.099    2815.9939   -43162.093    43.249545   0.95044452 
   21500    230.43464   -340.58227    131288.75   -40319.336     2867.045   -43186.381    43.386502   0.95128857 
   21600    231.63665   -590.03613     131404.2   -40279.852    2882.0003   -43161.852    43.632497   0.95045281 
   21700    235.32408     -557.626    131585.24   -40256.867     2927.879   -43184.746    43.805117   0.94914515 
   21800    232.25181   -704.41091    131602.45   -40242.996    2889.6541    -43132.65    43.973076   0.94902098 
   21900    231.58455   -690.32336    131338.03   -40275.231    2881.3521   -43156.583     44.12751   0.95093165 
   22000    228.10102   -472.70916    131468.29   -40316.641    2838.0103   -43154.652    44.364926   0.94998948 
   22100        233.4   -636.88006    131310.94   -40250.796    2903.9397   -43154.735    44.419955   0.95112785 
   22200    230.65201   -391.20624    131254.83   -40289.645    2869.7496   -43159.395    44.632466   0.95153448 
   22300    227.69968    -552.2094    131354.55   -40268.819    2833.0169   -43101.836    44.789299   0.95081208 
   22400    234.31896   -499.17967    131399.02   -40238.253    2915.3734   -43153.626    44.833634   0.95049029 
   22500    234.72978   -549.40087    131413.37   -40240.673    2920.4847   -43161.158     44.92524    0.9503865 
   22600    234.56169   -554.74789    131539.14   -40213.599    2918.3934   -43131.992    45.016267   0.94947781 
   22700    232.91784   -532.90197    131663.51   -40224.845    2897.9408   -43122.785    45.224291    0.9485809 
   22800     230.6325    -747.5305    131558.75   -40208.042    2869.5067   -43077.549    45.218372   0.94933622 
   22900    232.34578   -515.59457     131662.6   -40246.751    2890.8232   -43137.574    45.500576   0.94858743 
   23000    234.05043   -785.77013    131711.35   -40233.398    2912.0323   -43145.431    45.855683   0.94823633 
   23100    232.23661   -531.71579    131517.88   -40353.291    2889.4649   -43242.756    45.939349   0.94963129 
   23200    231.65902   -544.81046    131335.28   -40284.644    2882.2786   -43166.923    45.912728   0.95095155 
   23300    230.18751   -455.67648    131503.48   -40325.048    2863.9703   -43189.018    46.098944   0.94973528 
   23400    232.56814   -528.68581    131501.18    -40246.48    2893.5898    -43140.07    46.077046   0.94975189 
   23500    232.21511   -619.10686    131463.65   -40272.865    2889.1974   -43162.063    46.282179   0.95002302 
   23600    229.31181   -647.92895    131765.08   -40249.075    2853.0749    -43102.15    46.425988   0.94784968 
   23700    230.88117    -567.4365    131662.72   -40302.659    2872.6006    -43175.26    46.692167    0.9485866 
   23800    226.98322   -591.38412    131729.97   -40364.087    2824.1028    -43188.19    46.699189   0.94810229 
   23900    224.49611   -634.63872    131914.87   -40355.379    2793.1584   -43148.538      46.8608   0.94677344 
   24000    227.36065   -629.90124     131702.6   -40278.856    2828.7988   -43107.655    46.797492   0.94829938 
   24100    230.86407   -562.11266    131757.74   -40275.973    2872.3879   -43148.361    46.969895   0.94790253 
   24200    228.05736    -543.9102    131613.87   -40326.729    2837.4672   -43164.196    46.995081   0.94893865 
   24300    225.30998   -407.72718    131710.58   -40308.533    2803.2846   -43111.818    47.027911   0.94824187 
   24400    227.48215   -659.78294    131777.08   -40349.314    2830.3104   -43179.624    47.150382   0.94776335 
   24500    233.30172   -412.69437    131936.51   -40311.503    2902.7169    -43214.22    47.522581   0.94661815 
   24600    231.84467   -377.72601    132091.98   -40292.334    2884.5885   -43176.923     47.82355   0.94550396 
   24700    225.50525   -578.04375    132197.54   -40324.116     2805.714    -43129.83    48.255155   0.94474895 
   24800    226.98086   -486.34848    132324.25   -40322.659    2824.0735   -43146.732    48.299467    0.9438443 
   24900    231.71766   -551.05598    132197.52   -40289.398    2883.0082   -43172.406    48.317244   0.94474911 
   25000    231.72131   -442.82095    132136.77   -40267.744    2883.0537   -43150.797    48.349375    0.9451835 
   25100    233.98174    -384.1071    132412.03   -40268.643    2911.1777    -43179.82    48.604157   0.94321862 
   25200    227.25092   -447.99994    132236.25   -40322.448    2827.4335   -43149.881    48.693602   0.94447243 
   25300    229.41539   -672.92673    132371.74   -40332.279    2854.3636   -43186.642    48.995928   0.94350573 
   25400     226.5142   -601.92987    132264.34   -40323.634    2818.2673   -43141.902    49.075307   0.94427183 
   25500    228.35256   -520.08233    132106.04   -40252.822      2841.14   -43093.962    49.313433   0.94540336 
   25600    227.61661   -599.12991    131855.15   -40321.884    2831.9834   -43153.868    49.265968   0.94720221 
   25700    228.01007   -672.99338    132133.18   -40327.814    2836.8787   -43164.693    49.566826   0.94520915 
   25800    226.28622   -532.02855    132195.04   -40301.455    2815.4307   -43116.886    49.785025   0.94476683 
   25900    234.33966   -588.32475    132182.03   -40258.024    2915.6309   -43173.654    50.032994   0.94485984 
   26000    235.53501   -627.77339    132121.57   -40199.883    2930.5033   -43130.386    49.954187   0.94529221 
   26100    232.04098   -299.18333    132115.97   -40291.448     2887.031   -43178.479    50.370539   0.94533228 
   26200    228.22917   -670.56963    132203.11   -40274.649    2839.6048   -43114.253     50.38127   0.94470914 
   26300    232.97308   -676.60216    131869.05   -40233.532     2898.628    -43132.16    50.293433   0.94710235 
   26400    233.71096   -612.98333     131765.7   -40224.568    2907.8086   -43132.376    50.118222   0.94784527 
   26500    227.61909   -562.51854    131706.45     -40273.3    2832.0142   -43105.314    50.176576   0.94827162 
   26600    226.21494    -651.9957    131893.63   -40309.899    2814.5439   -43124.443    50.518739   0.94692587 
   26700    225.24685   -578.66006    131882.57   -40334.253    2802.4991   -43136.752    50.515567   0.94700531 
   26800    222.95733    -718.0218    131999.87   -40249.789    2774.0131   -43023.802    50.756167   0.94616371 
   26900    230.30389   -584.45813    131958.29   -40260.111    2865.4182   -43125.529    50.775571   0.94646185 
   27000    230.56306    -512.9521    131966.41    -40291.65    2868.6428   -43160.293    51.049748   0.94640364 
   27100    229.18939   -537.37874    131972.54   -40301.221    2851.5517   -43152.773    51.169934   0.94635967 
   27200    228.18618   -534.41276    132029.73    -40319.25    2839.0699    -43158.32    51.481423   0.94594973 
   27300      229.358   -417.95206    132029.23   -40333.757    2853.6495   -43187.407    51.687507   0.94595333 
   27400    228.31583   -588.04848    131894.56   -40271.383    2840.6829   -43112.066    51.814101    0.9469192 
   27500    227.32809   -407.92401    131971.41   -40197.877    2828.3937   -43026.271    51.935508   0.94636777 
   27600     230.2739   -485.32589    132030.81   -40225.665    2865.0451    -43090.71    52.087501   0.94594204 
   27700    228.81781   -826.40152    131875.12   -40239.446    2846.9285   -43086.374    51.947692   0.94705881 
   27800    229.61588   -467.67752    131831.02   -40182.006    2856.8581   -43038.864    52.172341   0.94737558 
   27900    230.23713   -613.82051    131717.11   -40186.812    2864.5876   -43051.399    52.118137   0.94819491 
   28000    228.49045    -655.5131    131779.69   -40217.642    2842.8556   -43060.498    52.231959   0.94774459 
   28100    228.82037    -582.2525    131783.97   -40191.659    2846.9605   -43038.619    52.634662   0.94771386 
   28200    229.46596    -668.5416     131787.9   -40230.509    2854.9928   -43085.502    52.873267   0.94768555 
   28300    225.85042   -413.80679    131851.26   -40226.129    2810.0086   -43036.138    52.941121   0.94723018 
   28400    228.42617   -458.66974    132097.08   -40270.204    2842.0558    -43112.26    52.871391   0.94546745 
   28500     225.5749    -369.7364    131998.14   -40282.786    2806.5806   -43089.366    52.856372   0.94617611 
   28600    228.08701    -604.6258    132004.69   -40239.078     2837.836   -43076.914    52.959302   0.94612917 
   28700    227.17595   -745.31637     131960.8   -40253.165    2826.5007   -43079.665    53.131301   0.94644384 
   28800    227.25521   -522.12705    131941.37   -40212.668    2827.4869   -43040.155    53.222085   0.94658328 
   28900    230.43209   -531.72499    132201.83   -40168.637    2867.0133   -43035.651    53.688136   0.94471832 
   29000    230.09216   -570.66213    132157.24    -40252.04    2862.7839   -43114.824    53.771563   0.94503708 
   29100    228.51209   -580.09076     132058.6   -40202.346    2843.1248    -43045.47    53.811227   0.94574297 
   29200    229.60707   -496.88292    131994.49   -40164.046    2856.7485   -43020.794    54.088028   0.94620232 
   29300    229.22828   -542.85427    132165.44   -40219.203    2852.0357   -43071.239    54.336459   0.94497847 
   29400    224.52006   -532.41466    132224.31   -40262.266    2793.4564   -43055.722    54.672732   0.94455772 
   29500    229.12319   -455.98832    132182.81   -40300.581    2850.7281   -43151.309    54.879991   0.94485429 
   29600    228.88126   -550.97887    132004.58   -40217.715    2847.7181   -43065.433    55.027481   0.94613002 
   29700    229.60126   -620.22444    132070.81   -40268.462    2856.6762   -43125.138    55.082055   0.94565556 
   29800    230.28637   -512.47711    131924.66   -40249.274    2865.2002   -43114.474    54.944042   0.94670318 
   29900     229.7032   -459.74679    131760.95   -40290.447    2857.9446   -43148.391    55.089761   0.94787939 
   30000    231.61497   -714.09819    131934.33   -40277.668    2881.7305   -43159.398    55.414207   0.94663373 
   30100    230.03955   -547.32946     131931.3   -40282.989    2862.1294   -43145.118    55.638673   0.94665549 
   30200    225.10638   -641.20995    131881.98   -40277.915    2800.7514   -43078.667    55.621596    0.9470095 
   30300    227.02685   -539.74106    131953.11   -40230.055    2824.6456     -43054.7     55.89428   0.94649904 
   30400     229.1854   -595.69841    131993.22   -40209.088    2851.5021    -43060.59    56.032198   0.94621144 
   30500    232.35581   -616.25403     131971.7    -40217.84     2890.948   -43108.788    55.781953   0.94636568 
   30600    232.71404    -508.7942     132093.2   -40216.572    2895.4051   -43111.977    56.103881   0.94549526 
   30700    232.86765   -634.32201    131844.53   -40243.303    2897.3162    -43140.62      56.3109   0.94727849 
   30800    233.55896   -484.36099    131842.39   -40190.747    2905.9175   -43096.664    56.297729    0.9472939 
   30900    229.44617   -349.09792    132060.23    -40316.86    2854.7466   -43171.606    56.372445    0.9457313 
   31000    225.80633    -613.9202    131758.96   -40358.088      2809.46   -43167.548    56.411056   0.94789373 
   31100    228.87767   -512.14885    131650.66   -40350.599    2847.6734   -43198.272     56.70728   0.94867352 
   31200    227.67668   -708.78372    131844.52   -40361.553    2832.7308   -43194.284    56.986341   0.94727861 
   31300    233.47339   -490.30215    131893.24   -40314.984    2904.8528   -43219.836     57.32811   0.94692866 
   31400    227.89695   -369.27423    132009.65   -40273.389    2835.4713    -43108.86    57.505439   0.94609366 
   31500    229.43075   -580.00913    132204.16    -40320.74    2854.5547   -43175.294    57.703068    0.9447017 
   31600    230.76472   -603.97102    132150.72   -40249.933    2871.1518   -43121.085    58.020129   0.94508373 
   31700    230.80626   -737.20384    132332.78   -40292.265    2871.6687   -43163.933      58.2135   0.94378345 
   31800     233.5532   -524.40901    132142.27   -40232.771    2905.8459   -43138.616    58.485288   0.94514415 
   31900     233.1425   -540.90808    132145.57   -40241.353     2900.736   -43142.089    58.571483   0.94512051 
   32000    236.82628   -505.90061    132029.05   -40240.895    2946.5692   -43187.464    58.728357   0.94595463 
   32100     234.9709   -556.99774     132168.2   -40255.217    2923.4847   -43178.701    58.917796   0.94495873 
   32200    228.09983   -540.37058    132016.64   -40255.122    2837.9956   -43093.118    59.114579   0.94604359 
   32300    234.18453   -499.60322    132149.65   -40241.418    2913.7008   -43155.119    59.204533   0.94509137 
   32400    227.69294   -849.14354    131938.24   -40310.549    2832.9331   -43143.482    59.016023    0.9466057 
   32500    226.23309   -434.23934    131995.97   -40312.937    2814.7698   -43127.707    59.165356    0.9461917 
   32600    234.84224   -531.21141    132003.33   -40252.708    2921.8839   -43174.591    59.423908   0.94613895 
   32700    230.17304   -436.63902    131814.24       -40320    2863.7902    -43183.79    59.727419   0.94749623 
   32800    226.91688   -427.95356    131795.08    -40353.62    2823.2774   -43176.897    59.939942   0.94763392 
   32900    228.47738   -578.78079    131747.07   -40347.877    2842.6929    -43190.57     59.96297   0.94797924 
   33000    227.18724   -591.82336    132014.08   -40386.055    2826.6411   -43212.697    59.997899   0.94606189 
   33100    229.79588   -641.87834    132103.07   -40311.778    2859.0977   -43170.876    60.223347   0.94542457 
   33200    232.01809   -693.98921    131624.01   -40360.905    2886.7462   -43247.651    60.353409   0.94886554 
   33300     230.9849   -448.40496    131669.23   -40288.785    2873.8913   -43162.676    60.417254   0.94853973 
   33400    227.72861    -487.0046     131723.7    -40379.24    2833.3769   -43212.617    60.461331   0.94814748 
   33500    230.92085   -585.02048    131757.75   -40349.684    2873.0944   -43222.779     60.48604   0.94790243 
   33600    225.29962     -557.775    131751.52   -40325.385    2803.1556   -43128.541    60.794665   0.94794723 
   33700    223.45179   -502.38261    131763.37   -40321.479    2780.1651   -43101.644    60.698375   0.94786197 
   33800    225.11449   -536.02578    131754.44   -40300.753    2800.8523   -43101.606     61.06461   0.94792623 
   33900    232.79445   -475.09432    131784.04   -40303.634    2896.4056   -43200.039    61.157965   0.94771331 
   34000    233.65296   -472.61391     131873.8   -40260.672     2907.087   -43167.759    61.331638   0.94706829 
   34100    230.98438   -698.94346    131936.67   -40285.877    2873.8848   -43159.762    61.480702   0.94661698 
   34200    224.94741   -518.01433    131845.16   -40299.611    2798.7734   -43098.384     61.70246   0.94727402 
   34300    222.95606   -559.20955    131920.24   -40356.191    2773.9973   -43130.188    61.698708    0.9467349 
   34400     230.0426   -691.15803    131953.71   -40278.208    2862.1672   -43140.376    61.682276   0.94649474 
   34500    230.37721   -417.30143    131892.84    -40296.93    2866.3305    -43163.26    61.720442   0.94693153 
   34600    229.42568   -669.72639    131838.64   -40294.265    2854.4917   -43148.756    61.983848   0.94732086 
   34700    228.51553   -606.33145    132030.19   -40380.314    2843.1676   -43223.482    62.094829   0.94594646 
   34800    229.90044   -493.59516    132101.43   -40374.701    2860.3986   -43235.099     62.19561    0.9454363 
   34900    225.03325   -452.50354    132025.79   -40384.653    2799.8414   -43184.495    62.179615   0.94597801 
   35000    223.44807    -489.5172    132029.13   -40451.297    2780.1188   -43231.416    62.519031   0.94595408 
   35100    228.58707   -636.94019    132181.58   -40388.723    2844.0577    -43232.78    62.577568   0.94486302 
   35200     228.6323     -572.125    132334.73   -40405.633    2844.6205   -43250.253    62.803895   0.94376954 
   35300    233.07592   -799.19695    132144.57   -40391.543    2899.9075   -43291.451    62.796465    0.9451277 
   35400    227.15425   -460.76386    131985.35   -40402.506    2826.2308   -43228.736    63.059211   0.94626782 
   35500    226.68274   -439.39116    131947.96   -40267.256    2820.3643   -43087.621    63.334027     0.946536 
   35600    231.83157   -541.94463     131937.2   -40303.052    2884.4255   -43187.477    63.363332   0.94661318 
   35700    227.22686   -382.21946    131946.37   -40253.426    2827.1341    -43080.56    63.467309   0.94654737 
   35800    229.53978   -762.16316    131993.85    -40297.36    2855.9113   -43153.271    63.356914   0.94620687 
   35900    234.89177   -641.81986    131821.13   -40256.268    2922.5002   -43178.768    63.533695   0.94744665 
   36000    233.10706   -486.66315    131768.68   -40234.973    2900.2951   -43135.268    63.453109   0.94782381 
   36100    233.25248    -762.9097    131794.24   -40273.257    2902.1043   -43175.362    63.595468   0.94764001 
   36200      229.049   -556.80728    131850.51    -40302.29     2849.805   -43152.095    63.890736   0.94723559 
   36300    227.93634   -766.48319     131774.3   -40366.047    2835.9614   -43202.009    63.943957    0.9477834 
   36400    233.56027   -590.58385    131561.22   -40318.542    2905.9338   -43224.475    63.933933   0.94931847 
   36500     229.5602   -522.89586    131556.37   -40307.871    2856.1653   -43164.036    63.796508   0.94935346 
   36600    228.98018   -508.05752    131695.69   -40436.157    2848.9488   -43285.105    63.951592   0.94834911 
   36700    228.10564    -507.5567    131855.38   -40367.818    2838.0679   -43205.886    64.304067   0.94720058 
   36800    228.13266   -483.47487    131805.43   -40378.288     2838.404   -43216.692    64.433018   0.94755954 
   36900    228.30751   -456.05416    131843.91   -40392.089    2840.5795   -43232.669     64.49942     0.947283 
   37000    228.58603   -567.06067     132056.8   -40333.653    2844.0448   -43177.698    64.741741   0.94575583 
   37100    231.90585    -591.1473    131939.05   -40322.316    2885.3496   -43207.665      64.6482   0.94659992 
   37200    226.88535   -557.75505    131889.89   -40382.091    2822.8851   -43204.977    64.892992   0.94695273 
   37300    229.48383   -555.73515     131770.7   -40395.016    2855.2151   -43250.231    65.127318   0.94780928 
   37400    229.68327   -539.74224    131756.57   -40424.144    2857.6966    -43281.84     65.07975   0.94791091 
   37500    227.67354   -438.06636    131784.28   -40434.967    2832.6917   -43267.659    65.304255   0.94771158 
   37600    230.88009   -570.52286    131890.48   -40370.008    2872.5872   -43242.596    65.327382   0.94694847 
   37700    229.80277   -546.02139    131846.62   -40382.596    2859.1834   -43241.779    65.411522   0.94726351 
   37800     222.3541   -559.43738    131967.08   -40474.112    2766.5077   -43240.619    65.680462   0.94639886 
   37900     225.8649   -622.87137    131828.54    -40424.16    2810.1888   -43234.348    65.824247   0.94739342 
   38000    230.25579   -429.36574    131733.13   -40399.306    2864.8198   -43264.126    66.131538   0.94807955 
   38100    227.81189    -629.4204    131675.88   -40345.773    2834.4131   -43180.186    66.301862    0.9484918 
   38200     229.7886   -461.05512    131706.47   -40358.152     2859.007   -43217.159    66.603011   0.94827151 
   38300     231.4453   -524.46448    131837.37   -40302.726    2879.6195   -43182.345    66.734724   0.94732995 
   38400    228.54249   -482.58856    132046.74   -40348.173     2843.503   -43191.676    66.827177   0.94582791 
   38500    229.38318   -487.09884    131923.76   -40368.686    2853.9628   -43222.649    66.824895   0.94670961 
   38600    228.78594   -412.57466    132204.63   -40315.958    2846.5321    -43162.49    66.880744   0.94469831 
   38700    231.26717   -571.87674    132267.23   -40335.417    2877.4033    -43212.82     67.02043   0.94425122 
   38800    232.36463   -622.45977    132066.87    -40360.72    2891.0577   -43251.778     67.24548   0.94568371 
   38900    229.50529   -622.19491    132015.77   -40327.189    2855.4821   -43182.671    67.511778   0.94604978 
   39000    227.44976   -478.29382    131884.89   -40369.915    2829.9074   -43199.822    67.614839   0.94698861 
   39100    230.20413   -545.99206    131873.05   -40330.228     2864.177   -43194.405    67.808768   0.94707364 
   39200    230.38352   -603.13182    131651.79    -40371.13     2866.409   -43237.539     67.99169   0.94866538 
   39300    228.80198   -599.33569     131816.4    -40370.31    2846.7316   -43217.042    67.969894   0.94748065 
   39400    231.37737   -579.23783    131888.95   -40324.275    2878.7744    -43203.05    67.978194   0.94695951 
   39500    229.44101   -773.97615    131936.98   -40285.441    2854.6823   -43140.124    67.983148   0.94661472 
   39600     231.4174   -534.86719     131811.5   -40326.218    2879.2724    -43205.49    68.053839   0.94751587 
   39700    228.21259   -664.32131    131757.93   -40266.263    2839.3985   -43105.661     68.23458   0.94790116 
   39800    232.76456   -583.18556     131719.2   -40336.375    2896.0337   -43232.409    68.422234   0.94817988 
   39900    226.55086   -332.44098    131963.35   -40383.797    2818.7234    -43202.52    68.535146   0.94642557 
   40000    221.20552   -505.38639    132039.13   -40402.061    2752.2173   -43154.278     68.53336   0.94588242 
   40100    227.90515   -569.31135    131999.43   -40309.706    2835.5733    -43145.28    68.800917   0.94616693 
   40200    227.74691   -698.11601    131929.13     -40317.9    2833.6045   -43151.504    68.832375   0.94667107 
   40300    233.26401   -596.43837    131758.23   -40293.744    2902.2478   -43195.992    68.955416   0.94789899 
   40400    235.01852   -650.71332    131869.75   -40201.159    2924.0773   -43125.236    69.180352   0.94709735 
   40500    231.33252   -476.68516    131736.02    -40210.84    2878.2163   -43089.057    69.280868   0.94805877 
   40600    232.79019   -478.82663    131869.87   -40261.784    2896.3526   -43158.137    69.571628   0.94709647 
   40700    231.13907   -575.49412    131902.09   -40324.642    2875.8095   -43200.451    69.724634   0.94686516 
   40800    225.48441   -539.56079    131936.37   -40383.933    2805.4547   -43189.387    69.952055    0.9466191 
   40900    227.93207    -432.5821       131935   -40393.859    2835.9083   -43229.767    70.141413   0.94662899 
   41000    230.59838   -675.48812    131717.86   -40327.833    2869.0823   -43196.915    70.330489   0.94818948 
   41100    231.13587   -470.62048    131913.75   -40293.807    2875.7697   -43169.577    70.467557   0.94678144 
   41200    231.87574   -399.39577    132100.07   -40300.788     2884.975   -43185.763    70.575315   0.94544604 
   41300    222.59723   -718.49024    132109.34   -40458.322    2769.5328   -43227.855    70.786933   0.94537971 
   41400    230.21702   -636.15021    131915.82   -40400.141    2864.3374   -43264.478    71.125497    0.9467666 
   41500    228.76052   -352.08684     131925.9   -40390.523    2846.2158   -43236.739    71.172573   0.94669429 
   41600     231.5127   -633.59743     132159.5   -40360.811    2880.4581   -43241.269    71.212107   0.94502092 
   41700    231.73443   -423.40268    132021.66   -40342.333    2883.2168    -43225.55    71.172411   0.94600761 
   41800     228.2578   -761.45523    131962.09   -40355.601    2839.9609   -43195.562    71.194158   0.94643466 
   41900    226.82378   -707.62483    131961.77   -40340.357     2822.119   -43162.476    71.490514   0.94643689 
   42000    231.04656   -575.75933    131865.65   -40332.022    2874.6585   -43206.681    71.558664   0.94712679 
   42100    230.45595   -540.14061     131960.2   -40336.455    2867.3101   -43203.765    71.644877   0.94644817 
   42200    231.34194   -615.85423    131826.99   -40282.567    2878.3336   -43160.901    71.751233   0.94740459 
   42300    232.66023   -659.68996    131677.21   -40247.105    2894.7355   -43141.841    71.544725   0.94848223 
   42400    231.04956    -595.3364    131712.38    -40274.13    2874.6958   -43148.826    71.987402   0.94822897 
   42500      235.209   -521.94659    131685.05   -40260.112    2926.4471   -43186.559    72.521341   0.94842572 
   42600     228.2635   -464.73895     131650.3   -40270.382    2840.0319   -43110.414    72.786332   0.94867609 
   42700    231.23886   -650.29732    131628.98   -40281.575    2877.0511   -43158.626    72.824349   0.94882972 
   42800    231.14187    -751.3878    131677.24   -40223.299    2875.8443   -43099.143    72.875495   0.94848201 
   42900    229.50452   -556.47608    131670.64   -40302.705    2855.4726   -43158.178    73.161113   0.94852957 
   43000    231.00636   -468.30637    131758.24   -40339.499    2874.1582   -43213.657     73.03713   0.94789893 
   43100    227.57736    -579.7088    131842.85   -40305.553     2831.495   -43137.048    73.279025   0.94729056 
   43200     228.5872   -624.68928     131923.3   -40256.419    2844.0594   -43100.478    73.519175   0.94671289 
   43300     231.2618   -430.70082    131948.25   -40265.338    2877.3365   -43142.674    73.566563   0.94653389 
   43400    234.76926   -592.50179    132197.52   -40228.838    2920.9759   -43149.814    74.031716   0.94474913 
   43500    236.65103   -524.76784    132006.06   -40256.469    2944.3887   -43200.857     74.08561   0.94611934 
   43600    235.35947   -451.13944    132026.62   -40154.582    2928.3192   -43082.901    74.263939   0.94597204 
   43700    235.57732   -578.62561    132132.17   -40200.591    2931.0298    -43131.62    74.678964   0.94521639 
   43800    234.01461   -502.08088    132158.51   -40211.371    2911.5867   -43122.957    74.703607   0.94502798 
   43900    233.80886   -479.01144    132254.39   -40268.756    2909.0268   -43177.783    74.777971   0.94434287 
   44000     223.8639   -557.88999     132254.7   -40307.779    2785.2926   -43093.072    75.045307   0.94434065 
   44100    230.24227   -430.89948    132179.34   -40324.467    2864.6516   -43189.119    74.968528   0.94487905 
   44200    228.11723   -589.02031     132118.6   -40367.317     2838.212   -43205.529    75.092001   0.94531345 
   44300    229.52342   -732.18596    132126.68   -40376.798    2855.7077   -43232.506    74.989818   0.94525565 
   44400    228.11907   -540.14953     132129.5   -40337.894     2838.235   -43176.129     75.01587   0.94523546 
   44500    229.56101   -551.19948    132047.24   -40361.668    2856.1754   -43217.843    75.319234   0.94582434 
   44600    223.13159   -770.57205    132074.12   -40422.035    2776.1811   -43198.216    75.406505   0.94563186 
   44700    229.55374   -452.75542    131843.31   -40399.589     2856.085   -43255.674    75.574665   0.94728729 
   44800    231.12111   -398.15675     132008.4   -40359.489     2875.586   -43235.075    75.899042   0.94610261 
   44900    234.23507   -798.40227    132087.27   -40331.105    2914.3296   -43245.434      75.8262   0.94553772 
   45000    234.22779   -435.22061    132230.06   -40334.419     2914.239   -43248.658    76.261098   0.94451665 
   45100    230.84189   -462.00724    132263.67   -40271.353    2872.1119   -43143.465    76.340793   0.94427661 
   45200    225.45354   -843.62409    131948.94   -40332.102    2805.0706   -43137.173    76.193258   0.94652893 
   45300    226.68947   -667.11619    131526.18   -40350.721    2820.4479   -43171.169    76.250333   0.94957131 
   45400    231.21363   -617.23715    131391.75   -40321.244    2876.7371   -43197.981    76.293436   0.95054286 
   45500    235.38773    -609.0636    131325.24   -40335.943    2928.6708   -43264.614    76.316195    0.9510243 
   45600    228.24971    -526.8317    131451.12   -40331.487    2839.8603   -43171.348    76.638151   0.95011358 
   45700    227.27912   -718.48961    131393.72   -40337.457    2827.7844   -43165.241    76.814165   0.95052865 
   45800     232.5749   -367.68592    131806.45    -40277.35    2893.6739   -43171.024    76.959925   0.94755219 
   45900    233.29334   -605.82022    131925.71   -40212.737    2902.6127   -43115.349    77.281113    0.9466956 
   46000    238.01805   -528.76591    131902.68   -40190.741     2961.397   -43152.138    77.643686   0.94686093 
   46100    234.53282   -599.82231    131842.58   -40141.771    2918.0342   -43059.805    77.570039    0.9472925 
   46200    234.22839   -602.20909    131679.24     -40139.3    2914.2464   -43053.546    77.615044   0.94846761 
   46300     235.4423   -670.48696    131711.07   -40161.035    2929.3499   -43090.385    77.567353   0.94823841 
   46400    237.63641   -583.53911    131509.61   -40226.454    2956.6488   -43183.103    77.877827   0.94969101 
   46500    232.64179   -609.46612    131760.66   -40230.854    2894.5061    -43125.36     78.15271   0.94788147 
   46600    234.51927   -506.33605    131608.55   -40220.273    2917.8656   -43138.139    78.211018   0.94897705 
   46700    229.27054   -567.05866    131759.07   -40298.558    2852.5614    -43151.12    78.049086   0.94789296 
   46800    230.32794   -439.96527    131609.63   -40346.273    2865.7175   -43211.991    78.286408   0.94896921 
   46900    234.77317   -605.08813    131838.91   -40271.158    2921.0246   -43192.183    78.825446   0.94731892 
   47000    232.40515   -581.54472    131801.28   -40264.633    2891.5619   -43156.195    78.705849   0.94758934 
   47100    231.20222   -613.63523    131946.89   -40235.668    2876.5952   -43112.264    79.030313   0.94654365 
   47200     230.2894   -567.60965    131835.32   -40281.437     2865.238   -43146.675    79.139878   0.94734472 
   47300    227.37955   -633.64967    131798.11   -40300.193    2829.0338   -43129.227    79.585726   0.94761214 
   47400    231.59521    -557.5357    131882.46   -40245.148    2881.4847   -43126.633    79.795703   0.94700608 
   47500    232.77222   -526.56563    131935.07   -40179.031    2896.1289    -43075.16    79.889101   0.94662843 
   47600    233.18406   -656.87021    131962.76   -40135.682     2901.253   -43036.935     80.01841   0.94642981 
   47700    234.14371   -652.43002    132106.42   -40189.159    2913.1929   -43102.352    80.128506    0.9454006 
   47800    235.20245   -311.29428    131997.63    -40200.08    2926.3656   -43126.446    80.501607   0.94617982 
   47900    227.84392   -554.97599    132025.11   -40283.763    2834.8115   -43118.575    80.597904   0.94598286 
   48000    228.92565    -631.7734    132025.63   -40295.943    2848.2703   -43144.213    80.693784   0.94597912 
   48100    230.66284    -466.1835    131826.98   -40284.658    2869.8842   -43154.543    80.677278    0.9474046 
   48200    227.52186   -662.35173    132090.38   -40307.895    2830.8045     -43138.7    80.813862   0.94551541 
   48300    228.81253   -556.16158     131932.5   -40295.389    2846.8629   -43142.251    81.261295   0.94664693 
   48400    231.79959   -635.25226    131843.41   -40219.899    2884.0276   -43103.927    81.358882   0.94728654 
   48500    232.58808    -517.5474    131767.23   -40271.288    2893.8379   -43165.126    81.522188   0.94783424 
   48600    230.67823   -487.27424    131702.36   -40280.744    2870.0758    -43150.82    81.689379   0.94830109 
   48700    234.11382   -557.19522    131919.09   -40238.766    2912.8211   -43151.587    81.768242   0.94674315 
   48800    230.38874   -676.49179    131754.93   -40275.068    2866.4739   -43141.542    81.824521   0.94792274 
   48900     228.7644   -683.43912    131666.68   -40270.001     2846.264   -43116.265    81.887544   0.94855806 
   49000    230.30975   -477.86482    131718.41   -40307.939    2865.4911    -43173.43    82.230669    0.9481855 
   49100    228.18134   -665.83003    131999.74   -40312.165    2839.0096   -43151.174    82.290288   0.94616466 
   49200    227.99088   -553.04048    132138.52   -40340.764      2836.64   -43177.404    82.380748   0.94517096 
   49300    232.71907   -659.07048    132024.36   -40272.507    2895.4677   -43167.975    82.484505   0.94598826 
   49400    233.60332   -574.92808     132074.9   -40249.614    2906.4694   -43156.083    82.696598   0.94562627 
   49500    233.39058   -588.86669    131942.12   -40268.651    2903.8225   -43172.473    82.988971   0.94657789 
   49600    229.77901   -447.35924    132186.89   -40277.688    2858.8877   -43136.575    83.119386   0.94482508 
   49700     230.8903   -668.24646    132019.33   -40284.558    2872.7143   -43157.272    83.082732   0.94602429 
   49800    226.94446   -624.00973    131669.92   -40332.096    2823.6206   -43155.717    83.069103   0.94853471 
   49900    228.33668   -503.34849     131764.6   -40208.011    2840.9424   -43048.954    83.449588   0.94785318 
   50000    232.61376    -375.8385    131973.36    -40228.28    2894.1574   -43122.437    83.545329   0.94635381 
   50100    231.78435   -547.85539    132015.79   -40251.303     2883.838   -43135.141    83.799719   0.94604963 
   50200    229.23772   -657.33761    132037.42   -40302.478     2852.153   -43154.631    83.500742   0.94589468 
   50300    228.51347   -432.35961    132000.99   -40267.954     2843.142   -43111.096    83.647581   0.94615569 
   50400    226.36532    -644.9887    131785.31   -40300.354     2816.415   -43116.769    83.853231   0.94770417 
   50500     228.5477   -625.32588    131733.54   -40355.378    2843.5679   -43198.946    83.876875    0.9480766 
   50600    227.86306   -693.89808    131628.57   -40361.529    2835.0496   -43196.579    83.922169   0.94883267 
   50700    228.09413   -587.00839    131615.25   -40377.567    2837.9246   -43215.491    84.134549   0.94892873 
   50800    231.95451   -425.15438    131592.11   -40388.091    2885.9551   -43274.047    83.978261   0.94909561 
   50900    231.29133   -594.28193    131494.15   -40308.026    2877.7039    -43185.73    84.088476   0.94980262 
   51000    229.00175   -659.35456    131625.78   -40350.537    2849.2172   -43199.754     84.14214    0.9488528 
   51100     230.6816   -572.05309    131671.35   -40371.939    2870.1176   -43242.057    84.466002   0.94852441 
   51200     227.9616   -537.38705    131890.35   -40351.484    2836.2757    -43187.76    84.728697   0.94694943 
   51300    224.88986   -506.48981    131877.43   -40417.039    2798.0575   -43215.096    84.519925   0.94704223 
   51400    224.58892   -637.77763    131818.07   -40408.008    2794.3132   -43202.322    84.807147   0.94746866 
   51500    224.74797   -492.95301    131869.73   -40389.423     2796.292   -43185.715     84.76829   0.94709748 
   51600    229.62156   -633.23773    131869.18   -40319.416    2856.9287   -43176.344    84.916239   0.94710142 
   51700    234.14837    -615.0259    131630.52   -40310.362    2913.2509   -43223.613    85.252462   0.94881862 
   51800    233.21715   -642.42285    131807.76   -40356.813    2901.6647   -43258.478    85.298941    0.9475428 
   51900    230.07547   -407.02337    131977.33   -40409.061    2862.5763   -43271.637    85.045018    0.9463253 
   52000    226.19137   -448.03781    131879.22    -40436.95    2814.2507   -43251.201    85.289286   0.94702934 
   52100    229.44001   -644.17023    131860.26   -40379.461    2854.6699   -43234.131    85.159722    0.9471655 
   52200    225.24827   -594.83388    131610.18   -40396.403    2802.5167    -43198.92    85.622385   0.94896531 
   52300    224.69172   -520.12221    131552.53   -40368.698    2795.5922    -43164.29    86.040275   0.94938113 
   52400    226.28577    -565.5202    131554.13   -40314.222    2815.4251   -43129.647    86.219126   0.94936957 
   52500    230.86488   -411.28337    131621.74    -40310.85    2872.3981   -43183.248    86.211793   0.94888192 
   52600    228.09935   -637.43796    131753.26   -40334.537    2837.9896   -43172.527    86.491733   0.94793474 
   52700    229.06278   -591.12408     131550.3    -40342.53    2849.9764   -43192.506    86.482068   0.94939722 
   52800    230.99702   -393.71031    131701.66   -40292.276    2874.0421   -43166.318    86.704152   0.94830615 
   52900    223.03891   -422.81326    131880.21   -40265.484    2775.0281   -43040.512    86.975084   0.94702223 
   53000    230.41633   -594.04358    131801.19   -40246.248    2866.8172   -43113.066    87.190889   0.94759002 
   53100    226.37016   -664.28388    131796.71    -40295.59    2816.4751   -43112.066    87.556638   0.94762226 
   53200      229.576   -533.49004    131653.49   -40303.754     2856.362   -43160.116    87.689837   0.94865307 
   53300    232.23884   -545.26734    131632.24   -40304.975    2889.4927   -43194.468    87.880383   0.94880622 
   53400     227.8514   -505.41406     131607.8   -40380.963    2834.9046   -43215.868    88.063844   0.94898246 
   53500    229.65058   -477.61145    131599.67   -40390.029    2857.2898   -43247.319    88.035566   0.94904107 
   53600    231.14785   -662.70634    131746.08    -40410.99    2875.9187   -43286.909    88.013133   0.94798638 
   53700    224.33816   -470.77389    131715.46   -40439.155    2791.1932   -43230.348    88.317366   0.94820679 
   53800      230.871   -628.27597     131917.3   -40317.575    2872.4742   -43190.049    88.788774   0.94675593 
   53900    233.37682    -426.5993    131856.72   -40370.545    2903.6513   -43274.196    88.980023   0.94719096 
   54000    228.23327   -373.12888    131961.86   -40358.506    2839.6557   -43198.162     88.90246   0.94643631 
   54100    226.61511   -642.70889    132143.56   -40383.936    2819.5229   -43203.459    89.411005    0.9451349 
   54200    230.86462   -473.45006    131905.65   -40356.586    2872.3948   -43228.981    89.370155   0.94683959 
   54300    231.12191   -465.25607    131855.27   -40337.976     2875.596   -43213.572    89.608752   0.94720135 
   54400    225.79472   -605.69462    131929.97   -40352.943    2809.3156   -43162.259    89.866305   0.94666503 
   54500     232.0658   -586.62112    131927.78   -40335.837    2887.3397   -43223.177    89.943236   0.94668079 
   54600    232.09008    -390.0012    131828.12   -40246.862    2887.6418   -43134.504    90.410666   0.94739642 
   54700    232.38331    -747.9698    132157.67   -40242.483    2891.2901   -43133.773    90.653816     0.945034 
   54800    231.53901   -395.84211    132161.39   -40308.685    2880.7855   -43189.471    91.009586   0.94500739 
   54900    227.69524   -598.41396    132283.01   -40342.015    2832.9617   -43174.977    91.029019   0.94413855 
   55000    223.06114   -662.98793    132320.53   -40407.963    2775.3047   -43183.267     91.16433   0.94387088 
   55100    227.73096   -528.62037    132374.81   -40376.634    2833.4061    -43210.04    91.618999   0.94348383 
   55200    227.67854   -529.54302    132368.39    -40390.64    2832.7539   -43223.394    91.521459   0.94352954 
   55300    232.02031   -369.27335     132350.6   -40358.233    2886.7737   -43245.006    91.552953   0.94365641 
   55400    232.17854    -452.7999    132324.44   -40323.202    2888.7424   -43211.945    91.716151   0.94384295 
   55500    231.72987   -624.92812    131959.82   -40273.348    2883.1601   -43156.508    91.640743   0.94645089 
   55600    233.89713   -460.51692    131944.75   -40316.674    2910.1249   -43226.799    91.389943   0.94655902 
   55700     230.6308   -503.74657    132136.05   -40322.966    2869.4856   -43192.452    91.615851   0.94518859 
   55800     227.2036   -547.57177    132262.87   -40330.868    2826.8448   -43157.713    91.851901   0.94428232 
   55900    235.14279   -434.70098    132341.68   -40315.672    2925.6233   -43241.295    92.148313   0.94371998 
   56000    230.88909    -552.9817    132135.39   -40315.818    2872.6992   -43188.517    92.348848   0.94519337 
   56100    234.66198   -820.04522    132231.45   -40294.874    2919.6411   -43214.515    92.429885   0.94450671 
   56200    230.37654   -827.49279    131979.93   -40296.976    2866.3221   -43163.298    92.650356   0.94630667 
   56300    232.74151   -435.98785    132186.82   -40310.487    2895.7469   -43206.234    92.755346   0.94482558 
   56400    228.93605    -433.5201    132017.16    -40297.15    2848.3997    -43145.55    92.686969   0.94603986 
   56500    224.80254    -641.7079    131885.88   -40390.574     2796.971   -43187.545    92.848029   0.94698149 
   56600    225.70491    -595.6609    132170.56   -40382.111    2808.1982   -43190.309    93.065945   0.94494185 
   56700     226.3313   -444.13952    132107.07   -40420.052    2815.9917   -43236.044    93.370283   0.94539596 
   56800    236.37225   -578.43597    132191.61   -40336.137    2940.9201   -43277.057    93.303263   0.94479134 
   56900    230.36762    -553.3619    132154.83   -40318.691    2866.2111   -43184.902    93.546703   0.94505432 
   57000    235.38186   -485.58353    132170.39   -40260.636    2928.5979   -43189.234     93.79978   0.94494304 
   57100    231.05917   -613.18309    132111.83   -40325.007    2874.8153   -43199.823    93.917127   0.94536193 
   57200    226.08107   -394.10993    132235.28   -40372.176    2812.8783   -43185.055    94.261081   0.94447933 
   57300    229.66091   -419.42757    132265.97   -40419.953    2857.4184   -43277.372     94.28673    0.9442602 
   57400     222.7003    -576.0153    132095.77   -40436.127    2770.8151   -43206.942    94.630856   0.94547683 
   57500    225.33809   -618.35704     132234.9   -40458.352    2803.6342   -43261.986    94.667581   0.94448208 
   57600    227.18455   -568.72658    132203.53   -40416.585    2826.6077   -43243.192    94.418089   0.94470617 
   57700    225.19234   -553.35063    132375.43   -40466.106    2801.8208   -43267.926    94.526934    0.9434794 
   57800    224.89257   -486.07982       132271   -40508.505    2798.0911   -43306.597    94.360319   0.94422429 
   57900    224.45333   -573.93976    132155.95    -40483.42    2792.6261   -43276.046    94.522125   0.94504628 
   58000    228.74049    -452.0232    132074.08   -40484.117    2845.9666   -43330.084     94.44414   0.94563211 
   58100    228.24407   -569.70671    132085.78   -40390.416    2839.7901   -43230.206    94.988676   0.94554832 
   58200    230.92463    -559.9096    132203.26   -40329.986    2873.1414   -43203.127    95.093941   0.94470812 
   58300    235.94527   -524.78782    132144.64   -40274.486    2935.6077   -43210.093    95.108394   0.94512717 
   58400      233.998   -629.28813    132202.96   -40282.659      2911.38   -43194.039    95.413375   0.94471024 
   58500    234.59216   -507.28636    132320.05    -40293.08    2918.7725   -43211.852    95.652646   0.94387426 
   58600    232.19491   -492.65835    132281.82   -40257.794    2888.9461    -43146.74    95.784784   0.94414704 
   58700    230.19116   -634.80706    132113.45   -40269.014    2864.0156    -43133.03    95.818753   0.94535033 
   58800     230.3874   -604.08213    131987.94   -40316.198    2866.4573   -43182.655      96.0226   0.94624925 
   58900    228.14151   -429.03189    132085.71   -40352.918    2838.5141   -43191.432    96.391247   0.94554882 
   59000    226.66416   -619.66811    132051.71   -40343.152    2820.1331   -43163.285    96.297274    0.9457923 
   59100    233.34917   -516.18152     132026.3   -40338.246    2903.3073   -43241.553    96.215171   0.94597432 
   59200    229.79735   -639.24308    131990.95   -40352.303    2859.1159   -43211.419    96.295123   0.94622772 
   59300    229.10779   -548.35851    132041.94   -40345.362    2850.5365   -43195.898     96.13949   0.94586231 
   59400    225.46245   -486.73736    132248.05   -40399.988    2805.1815    -43205.17    96.663897   0.94438815 
   59500    229.50213   -542.57274    132361.21   -40378.986    2855.4428   -43234.429    96.926938   0.94358076 
   59600    226.52403   -440.28995    132463.88   -40369.745    2818.3896   -43188.134    96.992462   0.94284943 
   59700    226.69385   -456.39877    132487.38   -40389.342    2820.5025   -43209.845    97.141997   0.94268216 
   59800    228.10772   -642.94017    132542.96   -40388.438    2838.0936   -43226.532    97.605037   0.94228689 
   59900    226.98658   -608.45532    132303.86   -40368.242    2824.1446   -43192.386    97.578107   0.94398979 
   60000    225.86467   -637.62413    132207.12    -40412.59    2810.1859   -43222.776    97.420059    0.9446805 
   60100    229.17276   -484.63903    132284.62   -40368.696    2851.3449   -43220.041    97.408495   0.94412705 
   60200     229.0349   -548.57936    132134.77   -40354.946    2849.6296   -43204.576    97.165199   0.94519779 
   60300    231.00046    -467.3156    131973.34   -40309.852    2874.0849   -43183.937    97.442222   0.94635397 
   60400    228.40169   -577.02712    132045.36   -40257.358    2841.7512   -43099.109    97.919009   0.94583781 
   60500    230.02343   -585.97099    132157.98   -40285.164    2861.9288   -43147.092     98.01169   0.94503178 
   60600    230.72764   -564.03575    132195.47   -40349.234    2870.6904   -43219.925    98.331449   0.94476375 
   60700    232.23423   -712.68035    132073.53   -40369.235    2889.4353    -43258.67    98.509655   0.94563603 
   60800    225.32683   -528.17538    131989.85   -40325.048    2803.4942   -43128.542    98.608564   0.94623558 
   60900    231.59283   -565.78233    131933.43   -40315.814    2881.4551   -43197.269    98.717301    0.9466402 
   61000    234.77853   -472.10455    132051.52   -40353.014    2921.0913   -43274.105    98.880836   0.94579369 
   61100    230.88425   -393.69146     132064.8   -40386.847     2872.639   -43259.486    98.838782   0.94569858 
   61200    226.07877   -645.29448    131931.31   -40388.372    2812.8497   -43201.221    98.620196    0.9466554 
   61300    227.06411   -446.73128    131733.95   -40366.793    2825.1092   -43191.903    98.634077   0.94807365 
   61400    228.50322   -462.00882    131793.51   -40387.263    2843.0145   -43230.278    98.946877   0.94764526 
   61500    227.15135   -762.45681    131724.46   -40376.294    2826.1947   -43202.489    98.944305   0.94814201 
   61600    227.24152   -477.57056    131542.56   -40315.831    2827.3166   -43143.147    99.031859   0.94945312 
   61700    227.13845   -376.50245    131628.66   -40382.596    2826.0341    -43208.63    99.174506   0.94883203 
   61800    224.41984   -536.67115    131712.63   -40443.831    2792.2094    -43236.04    99.184958   0.94822715 
   61900    226.76653   -462.01267    131735.55   -40374.359    2821.4068   -43195.766    99.291776    0.9480622 
   62000    233.80891   -625.66936    131756.32   -40333.371    2909.0273   -43242.398    99.324544   0.94791273 
   62100    229.47771   -637.91254    131721.11   -40357.005     2855.139   -43212.144    98.903064   0.94816607 
   62200    231.52075   -374.52579    131903.16   -40314.563    2880.5583   -43195.122    99.398843   0.94685743 
   62300    224.38779   -476.06012    131885.69   -40337.315    2791.8107   -43129.126    99.508346   0.94698285 
   62400    230.44369   -473.76113    131915.27   -40275.761    2867.1576   -43142.919    99.640242   0.94677054 
   62500    231.47049   -532.65942    131925.84   -40290.788    2879.9329   -43170.721    99.767087   0.94669466 
   62600    232.55086    -542.9203    131896.63   -40297.797    2893.3749   -43191.172    99.856613   0.94690431 
   62700    230.98408   -537.55595    131908.66   -40320.631    2873.8811   -43194.512    99.801334   0.94681796 
   62800    224.24215   -623.17891    131900.83   -40305.233    2789.9986   -43095.232    99.901807   0.94687419 
   62900    231.99214   -724.03437    131737.05   -40260.726    2886.4232   -43147.149     100.2144   0.94805138 
   63000    231.89622   -528.64691    131750.44   -40214.153    2885.2299   -43099.383     100.4411   0.94795501 
   63100    232.82233   -595.91821     131818.1   -40197.116    2896.7524   -43093.868    100.58274   0.94746843 
   63200    228.05204   -481.07913     131714.3   -40229.247     2837.401   -43066.648    100.67147   0.94821514 
   63300    230.88887   -456.52213    131747.87   -40253.101    2872.6965   -43125.798    100.88494   0.94797353 
   63400    231.80797   -439.49349    131894.41   -40169.935    2884.1319   -43054.067     101.1474   0.94692025 
   63500    223.77033   -704.41211    131746.22   -40255.713    2784.1284   -43039.842    101.24488   0.94798535 
   63600    229.88309   -510.04192     131687.9   -40249.231    2860.1827   -43109.414    101.62124    0.9484052 
   63700     225.4177   -662.91938     131616.8   -40255.039    2804.6248   -43059.664    102.11883   0.94891758 
   63800    228.36655   -614.37872    131722.85   -40358.587     2841.314   -43199.901    101.95503   0.94815356 
   63900    225.90678   -607.06802    131783.87   -40347.289    2810.7098   -43157.999    102.02052   0.94771456 
   64000    227.59459   -533.99457    131549.34   -40341.272    2831.7094   -43172.981     101.9971   0.94940417 
   64100    230.31946   -679.96653    131396.53   -40253.978     2865.612    -43119.59    101.56075   0.95050829 
   64200    231.40915   -436.86103    131288.53   -40248.315    2879.1697   -43127.484    101.45737   0.95129018 
   64300    236.27963   -428.05846    131484.45   -40148.131    2939.7678   -43087.898    102.08498   0.94987274 
   64400    233.06372   -552.72078    131454.82   -40176.542    2899.7558   -43076.298      102.402    0.9500868 
   64500    233.49335   -526.80799     131298.9   -40172.846    2905.1011   -43077.947    102.73064   0.95121509 
   64600    230.31081   -598.01144    131477.42   -40227.185    2865.5043   -43092.689    103.01483   0.94992354 
   64700    228.20161   -521.93327    131464.08    -40262.84    2839.2619   -43102.102    103.46048   0.95001992 
   64800    231.44215   -501.11122    131445.53    -40268.41    2879.5804   -43147.991    103.16016   0.95015396 
   64900     229.8838   -540.33035    131336.85   -40241.986    2860.1915   -43102.178    103.12424   0.95094021 
   65000    233.43794   -412.13847    131349.49   -40189.153    2904.4118   -43093.565    103.37591   0.95084868 
   65100    228.69298   -467.14483    131257.37   -40218.593    2845.3754   -43063.969    103.05604   0.95151604 
   65200    230.46988   -484.93066    131328.71    -40220.66    2867.4835   -43088.143    103.48163   0.95099914 
   65300    231.43483   -542.55291    131272.41   -40221.929    2879.4892   -43101.418     103.5798   0.95140697 
   65400    237.37638   -644.99853    131270.21   -40151.894    2953.4134   -43105.307    103.99959   0.95142297 
   65500    228.68764   -563.30119    131167.33   -40204.289    2845.3091   -43049.598    103.89384   0.95216923 
   65600    224.26255    -699.6515    131149.29    -40233.21    2790.2524   -43023.462    104.26486   0.95230017 
   65700    231.56326    -580.6445    131036.33   -40294.456    2881.0872   -43175.543    104.05767   0.95312111 
   65800    226.35381   -424.44587    131190.39   -40300.639    2816.2717    -43116.91    104.39268   0.95200183 
   65900    232.42683   -586.98257    131073.09   -40284.179    2891.8317    -43176.01    104.47035   0.95285381 
   66000    229.30942   -505.38789     130935.8   -40199.337    2853.0451   -43052.382    104.34787   0.95385289 
   66100     235.9373   -452.05194    130979.42   -40160.771    2935.5085   -43096.279    104.70914   0.95353523 
   66200    234.01803   -418.12293    131031.55    -40126.74    2911.6292   -43038.369    104.66407   0.95315584 
   66300    233.60316   -594.15448    131088.13   -40159.154    2906.4674   -43065.621    104.94199   0.95274447 
   66400    231.18325   -555.50528    130916.13   -40221.181    2876.3592    -43097.54    105.05416   0.95399617 
   66500    226.89183   -447.29602    131022.23   -40242.026    2822.9657   -43064.991    105.18225    0.9532237 
   66600    228.75276    -491.5843    130822.89    -40258.51    2846.1192   -43104.629    105.27589    0.9546761 
   66700    226.56331   -486.45693    130828.18   -40256.168    2818.8783   -43075.046    105.24228   0.95463754 
   66800    230.55239   -460.86752    131001.24   -40186.102    2868.5101   -43054.612    105.56502   0.95337637 
[...]
   84600    228.12575   -502.69353    131971.63   -40463.068     2838.318   -43301.386    130.23096   0.94636618 
   84700    225.44278   -602.06642    132040.64   -40473.941    2804.9368   -43278.878    130.17483   0.94587157 
   84800    230.10278   -556.35772    132050.57   -40427.646    2862.9161   -43290.562    130.17418    0.9458005 
   84900    229.58928   -420.37153    132044.19   -40409.828    2856.5271   -43266.355    130.53452   0.94584618 
   85000    230.78125   -564.94195    132139.15   -40353.136    2871.3576   -43224.493    130.68704   0.94516642 
   85100    229.64753   -463.98218    131976.49   -40357.369    2857.2519    -43214.62    130.73414   0.94633133 
   85200    228.58282   -445.88883    131945.24   -40355.675    2844.0049    -43199.68    131.00991   0.94655546 
   85300    229.58717   -547.01944    131934.38   -40394.475    2856.5009   -43250.976    131.33708   0.94663344 
   85400    228.04268   -573.73579     132051.9   -40379.693    2837.2845   -43216.978    131.64667   0.94579091 
   85500     229.3227   -709.88441    131860.91   -40332.587    2853.2103   -43185.797     131.5883   0.94716082 
   85600    228.47317   -595.05696    131809.88   -40310.901    2842.6406   -43153.542    131.61342   0.94752756 
   85700    230.42977   -696.12942    131927.98   -40360.202    2866.9844   -43227.187    131.37845   0.94667932 
   85800    232.69418   -483.19577    131896.38   -40360.335     2895.158   -43255.493    131.49396   0.94690613 
   85900    235.44351   -676.86174    131943.99   -40250.813    2929.3649   -43180.178    131.69172   0.94656447 
   86000    231.53137   -548.27253    131882.19   -40313.767    2880.6905   -43194.457    131.85328   0.94700805 
   86100    231.53283    -657.6687    131975.16   -40303.209    2880.7085   -43183.917    132.03333   0.94634089 
   86200    229.62729    -666.3445    132045.49   -40273.775    2857.0001   -43130.775    132.19748   0.94583684 
   86300    230.94268   -685.15579     132097.8   -40305.722    2873.3661   -43179.088    132.08246   0.94546231 
   86400    229.43439   -484.20474    131844.19   -40332.032    2854.6001   -43186.632    131.90079   0.94728094 
   86500    234.13714   -507.08248    132082.09   -40315.856    2913.1112   -43228.967     132.3864   0.94557477 
   86600    231.76021    -670.6977    131998.35   -40264.054    2883.5376   -43147.592     132.6114   0.94617467 
   86700    232.63619   -434.91359    131925.26   -40268.794    2894.4365    -43163.23    132.43918   0.94669888 
   86800    227.71349   -442.25699     132039.5   -40358.384    2833.1888   -43191.573    132.27565   0.94587978 
   86900    233.73978   -605.28157    132115.69   -40319.552    2908.1673   -43227.719     132.6182   0.94533427 
   87000    232.64958   -386.54471    131862.41   -40336.152     2894.603   -43230.755    132.40738   0.94715009 
   87100      231.385   -479.53408    131865.19   -40358.637    2878.8693   -43237.506    132.33588   0.94713013 
   87200    227.55687   -627.37276    131736.72   -40350.351      2831.24   -43181.591     132.8561   0.94805372 
   87300    232.82181   -485.39052    131617.26   -40349.293    2896.7459   -43246.039    132.64483    0.9489142 
   87400    228.52166   -563.76803    131676.56   -40366.456    2843.2439     -43209.7    132.76898   0.94848689 
   87500    224.93345   -599.49223    131782.81   -40387.327    2798.5998   -43185.927    132.89703    0.9477222 
   87600    230.31767   -595.54638    131465.77   -40383.765    2865.5897   -43249.355    132.64812   0.95000769 
   87700    231.58113   -473.40231    131536.09   -40393.007    2881.3095   -43274.317    132.79391   0.94949978 
   87800    228.61386   -355.79399    131707.44   -40370.559     2844.391    -43214.95    133.00764   0.94826451 
   87900    227.62995   -469.84188    131937.14   -40373.677    2832.1494   -43205.827    133.04923   0.94661363 
   88000    225.47621   -427.61383    131770.47   -40382.345    2805.3528   -43187.698    133.31017   0.94781091 
   88100    229.46639    -507.0007    131887.21   -40315.041    2854.9981   -43170.039    133.39676   0.94697199 
   88200     229.8214   -530.50719     131816.8   -40291.819    2859.4151   -43151.234    133.26673   0.94747781 
   88300    229.33718   -651.93999    131922.76    -40326.65    2853.3905   -43180.041    133.97713    0.9467168 
   88400    226.69821   -605.55491    131862.37   -40425.851    2820.5567   -43246.408    133.62409   0.94715037 
   88500      231.018   -548.09922    131624.95   -40308.191    2874.3032   -43182.494    133.76489   0.94885881 
   88600     231.2398   -750.15588    131500.78   -40263.885    2877.0628   -43140.948    134.04301   0.94975479 
   88700    231.69928   -525.16241    131382.99     -40245.5    2882.7795    -43128.28    134.28111   0.95060628 
   88800    234.07635   -703.94149    131346.56   -40188.838    2912.3548   -43101.193     134.2293   0.95086988 
   88900    234.51421    -602.9119    131280.94   -40238.759    2917.8027   -43156.562    134.21867    0.9513452 
   89000    230.97698   -612.95098    131237.32   -40215.056    2873.7928   -43088.849    134.41193   0.95166138 
   89100    225.39219   -575.50104    131298.05   -40306.508    2804.3073   -43110.815    134.70205   0.95122119 
   89200     231.3179   -514.65773    131250.86    -40344.59    2878.0345   -43222.625    134.98111    0.9515632 
   89300    230.22642   -498.39038    131521.61   -40358.546    2864.4543   -43223.001    135.23813   0.94960436 
   89400    230.51784   -403.17954    131689.45   -40389.916    2868.0802   -43257.996    135.82836   0.94839409 
   89500    226.55596   -576.84209    131821.15   -40432.936    2818.7868   -43251.723    136.22789   0.94744652 
   89600    227.09449   -684.07211    131813.08   -40494.027    2825.4872   -43319.515    136.35077   0.94750457 
   89700      223.141   -519.21364    131543.31   -40474.989    2776.2982   -43251.287    136.42987   0.94944771 
   89800    230.69575   -599.60204    131697.77   -40436.806    2870.2937   -43307.099    136.54136   0.94833414 
   89900    223.53404   -410.93093    131667.53   -40478.858    2781.1884   -43260.047    136.81895   0.94855191 
   90000    228.69363   -529.19212    131778.11   -40383.163    2845.3835   -43228.547    136.94973     0.947756 
   90100    225.60772   -294.16262    131858.86   -40384.581    2806.9889    -43191.57     137.1106   0.94717558 
   90200    224.72871   -490.78756    132062.98   -40417.135    2796.0524   -43213.187    137.56188   0.94571161 
   90300    228.25397   -655.43416    131799.57   -40438.262    2839.9133   -43278.175    137.75055   0.94760165 
   90400    224.05298   -446.00199    131819.88   -40413.912     2787.645   -43201.557    137.65935   0.94745564 
   90500    229.86799   -696.04084    131734.62   -40383.517    2859.9949   -43243.512    137.52643   0.94806887 
   90600    232.49172   -630.08282    131777.65   -40288.517     2892.639   -43181.156     138.0121   0.94775926 
   90700    235.07416   -705.85843     131923.1   -40302.652    2924.7694   -43227.422    137.97713   0.94671436 
   90800       232.56   -526.09354    131816.86   -40341.049    2893.4886   -43234.538    138.02222   0.94747734 
   90900    226.89625    -635.4933    131797.64   -40433.834    2823.0207   -43256.855    138.27368   0.94761556 
   91000    225.59603   -556.82094    131874.29   -40447.777    2806.8435   -43254.621    138.37153   0.94706472 
   91100    228.93524   -470.81733    131825.29   -40429.233    2848.3896   -43277.622    138.52147   0.94741678 
   91200    226.18629   -484.14147    131753.07   -40393.118    2814.1875   -43207.305    138.68043   0.94793611 
   91300    229.03119   -584.31089    131929.52   -40300.542    2849.5834   -43150.125    138.92706   0.94666829 
   91400    233.41677   -556.55218    131889.73   -40291.256    2904.1483   -43195.405    139.25697   0.94695387 
   91500    232.05075   -490.66632    132053.32   -40311.356    2887.1525   -43198.508    139.41584    0.9457808 
   91600    229.12341   -549.85011    132097.08    -40356.13    2850.7308   -43206.861    139.53959   0.94546745 
   91700    228.88237    -370.5785     131945.8   -40444.057    2847.7318   -43291.789    139.87264   0.94655144 
   91800    231.95679    -613.2202    132110.91   -40398.143    2885.9835   -43284.127    139.94582   0.94536848 
   91900    225.42721   -501.96537    131905.29   -40391.503    2804.7431   -43196.246    139.74957   0.94684218 
   92000    227.11237   -645.50641    132008.82   -40400.708    2825.7097   -43226.418    139.99279   0.94609962 
   92100    225.34644   -634.72048    131976.03    -40426.88    2803.7381   -43230.618    140.04465   0.94633465 
   92200     230.4626   -577.01197    131836.88   -40366.378    2867.3929   -43233.771    139.97008   0.94733347 
   92300    229.64252   -494.47474    131753.88   -40280.862    2857.1895   -43138.052    140.14052   0.94793027 
   92400     233.8594   -628.23532    131946.47   -40285.176    2909.6556   -43194.832    140.01879   0.94654664 
   92500    228.72512   -561.81021    131878.06   -40328.475    2845.7754    -43174.25    139.87006   0.94703768 
   92600    234.35235   -690.78488    131804.98   -40306.496    2915.7887   -43222.285    140.01698   0.94756277 
   92700    231.45068    -548.6426    131722.63   -40295.312    2879.6865   -43174.999     140.0317   0.94815514 
   92800    233.85775   -495.50783    132034.49   -40339.969     2909.635   -43249.604    140.32134   0.94591564 
   92900    227.34566   -520.27234    131892.48   -40307.113    2828.6122   -43135.726    140.41183   0.94693411 
   93000    227.50841   -541.72821    131808.42   -40329.004    2830.6371   -43159.641    140.66134   0.94753806 
   93100     229.5069   -432.18242    132045.16   -40256.634    2855.5021   -43112.137    140.93834   0.94583922 
   93200    234.23301   -510.22779    132077.82   -40279.122     2914.304   -43193.426    140.94047   0.94560531 
   93300    230.04413   -486.60311    132114.42   -40309.025    2862.1863   -43171.212    141.37102   0.94534339 
   93400    229.95199    -475.8808    132097.13   -40344.705    2861.0399   -43205.745    141.27636   0.94546707 
   93500    227.32144   -593.15668    132292.29   -40385.616    2828.3108   -43213.927    141.53973    0.9440723 
   93600     230.9154   -439.78576    132376.05   -40461.504    2873.0266   -43334.531    141.64886   0.94347496 
   93700    226.83893   -542.56085    132298.52   -40428.959    2822.3076   -43251.267    141.47642   0.94402787 
   93800    226.33245   -600.05935     132454.4   -40389.125     2816.006   -43205.131    142.06225   0.94291688 
   93900    230.07984   -530.66521    132247.43   -40380.779    2862.6306    -43243.41    142.19501   0.94439255 
   94000    230.94056   -616.94648    132199.32   -40396.899    2873.3396   -43270.239     141.9164   0.94473623 
   94100    226.58703   -434.83972    132356.22   -40402.612    2819.1734   -43221.785    141.99351    0.9436163 
   94200    228.39425   -482.26932    132227.04   -40400.144    2841.6587   -43241.803    142.06594   0.94453818 
   94300    232.60915   -429.93129    132193.17   -40359.753       2894.1   -43253.853    142.49975   0.94478024 
   94400    227.63577    -590.6716    132317.71   -40355.048    2832.2217    -43187.27    142.82091     0.943891 
   94500    233.82407   -592.04506    132000.65   -40303.652     2909.216   -43212.868    142.63941   0.94615813 
   94600    231.94655   -589.84197    131842.55   -40364.833    2885.8561   -43250.689    142.47159   0.94729278 
   94700    228.01496   -583.42243    131701.95   -40422.608    2836.9396   -43259.548    142.58839   0.94830406 
   94800    230.69695   -553.32839    131450.32   -40424.553    2870.3087   -43294.861    142.21403   0.95011931 
   94900    230.54175   -352.81124    131689.49   -40388.041    2868.3776   -43256.419    142.65026   0.94839374 
   95000       230.53   -490.08328    131605.76   -40364.197    2868.2314   -43232.428    143.01648   0.94899717 
   95100    233.89719   -397.53693    131836.28   -40348.953    2910.1257   -43259.079    143.21787    0.9473378 
   95200    230.78842   -523.85733    132077.43   -40376.142    2871.4467   -43247.589     143.6642   0.94560812 
   95300      233.478   -634.27885    132197.64   -40286.735    2904.9102   -43191.645    143.74936   0.94474828 
   95400    231.25186   -639.49509    132113.46   -40348.784    2877.2128   -43225.997    143.94039   0.94535027 
   95500    232.72649   -476.02914    132098.16   -40349.077      2895.56   -43244.637     144.1018   0.94545971 
   95600    231.54411   -568.74491    131917.72    -40346.22    2880.8489   -43227.069    143.98083   0.94675297 
   95700    234.03651   -641.09668    131834.62   -40409.167    2911.8592   -43321.026    143.90099   0.94734972 
   95800    225.31156   -622.14372    131613.48   -40458.611    2803.3042   -43261.915    144.07899   0.94894148 
   95900    234.49867   -615.03894    131548.69   -40391.485    2917.6093   -43309.094    144.16985   0.94940885 
   96000    228.65955   -527.57826    131481.35   -40459.159    2844.9596   -43304.119    144.35341    0.9498951 
   96100    228.21346   -598.53081    131760.45   -40401.664    2839.4093   -43241.073    144.49983   0.94788297 
   96200    227.34552   -481.97679     131863.3   -40435.102    2828.6105   -43263.713    145.04887   0.94714371 
   96300    227.82797   -324.39346    131975.01   -40385.068    2834.6131   -43219.682    144.80598   0.94634197 
   96400    230.77862   -495.72063    132040.48   -40360.069    2871.3247   -43231.393    144.91197   0.94587275 
   96500    229.98451   -698.58875    132043.53   -40412.309    2861.4445   -43273.753    145.17456   0.94585089 
   96600    229.09638    -636.1537    131909.44   -40408.331    2850.3945   -43258.726    145.41627    0.9468124 
   96700     226.5247   -541.32901    131975.52   -40482.229     2818.398   -43300.627    145.65131   0.94633829 
   96800    223.06013   -631.00406     131980.9   -40544.911    2775.2921   -43320.203    145.75983   0.94629976 
   96900     228.1241   -434.33012    132036.47   -40485.232    2838.2976    -43323.53    145.75038   0.94590148 
   97000    231.22343   -466.99476    132239.32   -40484.573     2876.859   -43361.432    146.06677   0.94445048 
   97100    225.32466   -591.64889    132286.11   -40464.983    2803.4671    -43268.45    146.26601   0.94411644 
   97200    225.46843   -521.97133    132294.09   -40461.099    2805.2559   -43266.355      146.715   0.94405949 
   97300    224.68125   -495.22254    132350.68   -40440.317    2795.4619   -43235.779       147.05   0.94365581 
   97400    228.70435   -533.09972     132365.1   -40440.618     2845.517   -43286.135    146.93015   0.94355302 
   97500    230.03614   -438.51383       132313   -40339.072    2862.0869   -43201.159    146.86728   0.94392458 
   97600    230.64357   -508.25167    132585.95   -40416.311    2869.6445   -43285.956    147.08639   0.94198136 
   97700    233.23671   -651.06199    132720.31   -40355.571    2901.9081   -43257.479    147.34518    0.9410277 
   97800    225.40414   -714.89341    132672.96   -40344.744     2804.456     -43149.2    147.17817   0.94136354 
   97900    235.54984     -469.818    132466.74   -40313.915    2930.6879   -43244.603    147.57134   0.94282905 
   98000    230.57716   -540.27295    132515.47   -40341.298    2868.8182   -43210.116     147.6586   0.94248235 
   98100     230.2412   -575.17293    132411.35   -40430.946    2864.6383   -43295.584    148.07211   0.94322348 
   98200      227.755   -648.88172    132256.92   -40406.292    2833.7052   -43239.997    148.06947   0.94432478 
   98300     227.7673   -633.77679     132313.6   -40426.834    2833.8583   -43260.692     148.1657   0.94392029 
   98400    229.33751   -424.77161    132347.09   -40444.886    2853.3946    -43298.28    148.50084    0.9436814 
   98500     229.3883   -548.77736    132178.46   -40455.423    2854.0265    -43309.45    148.33099   0.94488538 
   98600     233.0444   -737.77452    132008.86   -40482.498    2899.5153   -43382.013    148.32936   0.94609929 
   98700    226.75513   -661.34646    132065.81   -40546.782    2821.2649   -43368.047    148.25512   0.94569129 
   98800    225.92455   -675.03993    132135.35   -40521.506    2810.9309   -43332.437    148.06277    0.9451936 
   98900    229.48929   -583.47585    132178.99    -40524.63    2855.2831   -43379.913    148.54883   0.94488159 
   99000    222.92084   -531.33162    132180.51   -40572.416    2773.5591   -43345.975    148.50939   0.94487069 
   99100     227.3167   -521.24724    132284.12   -40489.593    2828.2519   -43317.845    148.80828   0.94413067 
   99200    227.45094   -614.90129    132305.22   -40478.637    2829.9221   -43308.559    149.22343    0.9439801 
   99300    233.49294   -405.36386    132219.13   -40436.097    2905.0961   -43341.193    149.30729   0.94459471 
   99400    229.76081   -504.72463    132443.24   -40393.944    2858.6613   -43252.605    149.56623   0.94299632 
   99500    231.29679   -534.20795    132443.88    -40272.58    2877.7718   -43150.352    149.40879   0.94299176 
   99600    231.89291   -443.33596    132401.49   -40299.277    2885.1886   -43184.466    149.23551   0.94329369 
   99700    231.77258   -550.63831    132372.73     -40308.9    2883.6915   -43192.592    149.27597   0.94349865 
   99800     235.5563   -601.36115    132362.05   -40326.404    2930.7681   -43257.172     149.5174   0.94357475 
   99900    234.22488    -540.4595    132478.34   -40393.348    2914.2029   -43307.551    150.44643    0.9427465 
  100000    228.98343    -715.0237    132476.59   -40409.042    2848.9892   -43258.032    151.17086   0.94275897 
  100100    230.15438   -551.58533    132775.35     -40323.9     2863.558   -43187.458    151.48928   0.94063762 
  100200    233.08741   -579.27273    132665.92   -40334.886    2900.0506   -43234.936    151.41395   0.94141351 
  100300    236.81537   -569.55408    132652.44   -40319.931    2946.4335   -43266.365    151.32174   0.94150921 
  100400    230.71735   -667.81495    132555.48    -40360.22    2870.5625   -43230.783    151.36832   0.94219784 
  100500    233.93107   -808.43693    132460.39   -40280.823    2910.5473    -43191.37    151.46915   0.94287426 
  100600    229.44577   -363.97328    132561.19   -40369.538    2854.7415    -43224.28    151.88351   0.94215729 
  100630    234.28536    -616.1334    132553.95   -40351.993    2914.9553   -43266.948    151.79767   0.94220872 
Loop time of 83.9148 on 6 procs for 100000 steps with 4175 atoms

Performance: 514.808 ns/day, 0.047 hours/ns, 1191.684 timesteps/s
98.6% CPU use with 6 MPI tasks x no OpenMP threads

MPI task timing breakdown:
Section |  min time  |  avg time  |  max time  |%varavg| %total
---------------------------------------------------------------
Pair    | 65.549     | 67.987     | 69.858     |  17.4 | 81.02
Neigh   | 5.3377     | 5.3598     | 5.3774     |   0.7 |  6.39
Comm    | 6.0558     | 7.932      | 10.394     |  51.1 |  9.45
Output  | 0.16331    | 0.16421    | 0.16832    |   0.5 |  0.20
Modify  | 1.7765     | 1.8106     | 1.8399     |   1.6 |  2.16
Other   |            | 0.6614     |            |       |  0.79

Nlocal:        695.833 ave         701 max         686 min
Histogram: 1 0 1 0 0 0 1 0 0 3
Nghost:        1452.17 ave        1459 max        1442 min
Histogram: 1 0 0 0 1 0 1 2 0 1
Neighs:        0.00000 ave           0 max           0 min
Histogram: 6 0 0 0 0 0 0 0 0 0
FullNghs:      19151.3 ave       19376 max       18800 min
Histogram: 1 0 0 0 0 1 2 0 1 1

Total # of neighbors = 114908
Ave neighs/atom = 27.522874
Neighbor list builds = 5749
Dangerous builds = 0

undump              1
unfix               2
unfix               3
unfix               4


################################################
#######         Run Simulation         #########
################################################

reset_timestep      0
log                 log.run_${NAME}
log                 log.run_liquid_density_MLmW
