LAMMPS data file via write_data, version 29 Oct 2020, timestep = 800000

4175 atoms
1 atom types

-0.7858263399568806 50.78582633995815 xlo xhi
-0.7858263399568806 50.78582633995815 ylo yhi
-0.7858263399568806 50.78582633995815 zlo zhi

Masses

1 18.015

Atoms # atomic

3546 1 1.9342063327631558 1.020961917470326 0.5760214585494217 0 1 1
541 1 4.261959828528256 1.6797270998448206 2.013051316568667 0 0 0
2062 1 6.403858871442554 0.9667178331008242 0.13402131938773276 1 0 1
4157 1 12.188342770579967 1.7127511649110478 2.267779552758195 0 1 1
2816 1 39.133493781905585 -0.6703713037183789 3.118903454091562 -1 1 0
569 1 15.86705134715621 8.069947045114692 -0.5882174386070255 0 0 0
668 1 32.09712719592754 24.2867223772842 8.69336623533976 0 0 0
600 1 21.301229626279476 1.0769922659193574 0.8781567721380281 0 0 0
2768 1 26.371417455442398 1.1336307861463728 -0.11857537551445063 0 1 0
1689 1 29.810503672354987 0.12167125115292465 -0.3757440817921056 0 0 1
1419 1 30.16167895625618 1.4476854740911733 2.108629161121621 0 0 1
2655 1 35.013955553900246 1.0907879530170672 -0.34665704847850265 0 1 0
3809 1 29.79985856184874 8.941698812839158 -0.3429347612463857 0 1 1
11 1 39.631064322890026 -0.5139682366020586 0.42902636460913035 0 0 0
2001 1 40.346875639486115 2.212317477236725 0.37350685500557645 0 0 1
394 1 44.97586858643841 1.1483609634814151 0.4998747407978388 0 0 0
2630 1 47.39562204142361 2.6550165251328597 0.8713595207663465 0 1 0
1974 1 -0.23188037428101171 2.0831280752363464 1.639616252432507 1 0 1
1983 1 0.0748852924386968 4.8276733427040925 0.685311486896663 1 0 1
1543 1 4.805971391793933 4.699061184474498 1.9364227288013156 0 0 1
330 1 8.650665289036139 2.6933001799197305 -0.029987812175237716 0 0 0
4153 1 38.22386132124875 12.914708585925595 -0.10862744677112679 0 0 1
2215 1 9.727388216406693 2.8495847591740167 2.3834318364685725 0 1 0
3599 1 12.962905316403774 4.691690083161857 -0.697119850547235 0 1 1
3569 1 17.001380676851205 3.7312022961246285 1.396362597417184 0 1 1
3760 1 19.19939333703429 4.891259010343927 2.152122408265855 0 1 1
283 1 31.210144039135482 3.9860604705485727 1.9972827431115414 0 0 0
1514 1 1.9738311374775388 13.675782422457331 -0.4605335337742823 1 0 1
1766 1 38.10669225987553 3.8680700867533773 0.7128174193174153 0 0 1
420 1 35.89631662267871 2.4064759245630194 1.865343296427123 0 0 0
1997 1 42.95262650960079 2.4551401339924164 1.578444925280699 0 0 1
4120 1 43.2299618204496 5.249909013368185 1.3002669472188955 0 1 1
292 1 47.318902490967105 5.15233701791099 1.0399697078081969 0 0 0
2047 1 2.2145414588534935 5.864514335024372 2.223760085608841 0 0 1
372 1 2.065770160545204 8.56345747734148 1.367178916513212 1 0 0
401 1 6.289217427477163 5.6229075327747315 -0.2522939721729821 1 0 0
219 1 6.532044363801714 8.41614980987336 0.7159192951375297 0 0 0
4 1 10.81546890746904 5.914350234152191 0.33501518543321973 0 0 0
1778 1 11.049104730967207 8.637727392951911 -0.1172298717632061 0 0 1
251 1 15.025570703098454 5.7642829183472575 0.6895756059955405 0 0 0
3109 1 37.43514666494298 -0.28472433903380756 9.471791256163675 0 1 0
1537 1 20.37979812178629 6.868671821704183 0.6821347715833439 0 0 1
2069 1 22.669966383440837 8.132345957181501 1.5950199997467491 0 0 1
192 1 24.65604353723925 6.670482757323028 2.2869380854733428 0 0 0
1786 1 26.084168812378355 6.43408086365475 -0.3467217009377468 0 0 1
1501 1 28.124660798054666 7.404567518167465 1.315969019104041 0 0 1
1567 1 38.302849188523396 6.442470029562003 1.8095332634740129 0 0 1
1544 1 20.172759449123447 21.40406709950884 -0.021136370962425377 0 0 1
1688 1 40.56427698967208 8.356985238978698 1.1203926386858245 -1 0 1
1874 1 44.9486389537653 7.638073771348086 1.5780467385946202 0 0 1
2302 1 18.819357527329633 -0.4023078552341382 4.201573488052276 0 1 0
447 1 49.66380038978194 6.092868704562619 2.4040820189773777 -1 0 0
2559 1 3.2237588804186723 16.384140343039075 -0.48166832404817256 0 0 0
2486 1 0.23274909349923667 10.163147071070705 2.452225459930195 0 1 0
2640 1 4.317026918366441 10.050964901285802 1.13569781484082 1 1 0
2422 1 12.545014080393981 2.081716286669075 -0.5072085319370234 0 1 0
341 1 12.877562330095287 9.242113885205109 2.1050559067061565 1 0 0
1905 1 21.410138462054014 12.141908197579712 -0.5634229987546505 0 0 1
1584 1 18.422990613565688 8.848765065015588 0.2210793847041741 0 0 1
2021 1 23.536360927538283 10.451330522969508 0.11951797710577794 0 0 1
2003 1 25.797131776642416 11.469208988951076 0.8254554592441166 0 0 1
67 1 31.80984193285627 10.742810258881393 0.8458704797447016 0 0 0
6 1 26.605199863854317 23.259645335970532 0.24486388303166895 0 0 0
2274 1 33.68233734403273 -0.08665422071312201 12.684707728622167 0 1 0
268 1 36.44838848514439 8.887488304773155 0.46897485844352227 0 0 0
69 1 38.47385268957528 10.406338968953728 1.2368345783658312 0 0 0
10 1 42.82819896327587 8.987799322555935 2.5892282627359084 0 0 0
1851 1 43.781979225041724 11.366481100782838 1.021946645534973 0 0 1
1809 1 46.27603420174617 12.241623331665258 1.9433421277655807 0 0 1
1855 1 49.17596179994764 9.141235771497675 2.0172757768357568 -1 0 1
1307 1 38.44057978669093 22.217352844015785 14.354337308045897 0 0 0
549 1 -0.32118651141664784 12.465180497763887 0.9307301831390191 0 0 0
91 1 31.79905888804647 21.87509729171961 15.766980518868014 0 0 0
2805 1 8.496251151033459 24.951584823937335 13.753333182269733 0 0 0
1907 1 6.614031872841217 13.415240648731025 0.25551717053469925 0 0 1
198 1 5.59859500417268 14.964648642038489 2.203655610243781 0 0 0
189 1 8.958636230810756 12.040781325951095 1.3344085432442832 0 0 0
656 1 10.797976028197171 14.159669593750356 1.2204326683536006 0 0 0
4018 1 13.08168722952342 14.563411710922994 -0.14235863453189856 0 1 1
1996 1 15.465206245800122 12.978942659084224 -0.345913986857498 0 0 1
678 1 17.495682442652395 15.044308148150366 0.7602089475399783 0 0 0
1417 1 21.087516528280258 13.02907377577128 2.109160799971667 0 0 1
60 1 17.387091193410072 24.667908867650365 9.635336525599138 0 0 0
2085 1 26.05741116963976 14.165388380034685 1.5556007208322558 0 0 1
534 1 28.632504717521268 14.10654764697959 2.8846504432015636 0 0 0
1632 1 31.549772269244148 13.283522446540701 0.01606359024455306 0 0 1
1459 1 31.320431620419033 15.080184632492433 2.1627704525581253 0 0 1
1478 1 35.73168086295931 14.116434825805046 1.0214320551378346 0 0 1
2726 1 49.80921461754767 -0.337710138230136 5.603925660033644 0 1 0
1813 1 40.56390074624102 14.34588520410239 0.1498761545932361 0 0 1
108 1 42.125933529616816 13.176508573025728 2.2693897112513053 0 0 0
361 1 46.892524381010944 14.969896420387407 1.9182871334376248 0 0 0
1760 1 48.16592749265254 12.035578959177709 -0.006417039653740075 0 0 1
1948 1 3.086554722283549 16.5526894869564 2.2011390842103498 1 0 1
1861 1 9.287518800904886 16.2118551399462 0.44568418671373755 0 0 1
2633 1 15.20316023633616 16.70526948154213 0.6594872789182717 0 0 0
1443 1 20.774307878678204 17.588742843773172 1.1472689188422085 0 0 1
1385 1 25.165446632733016 18.28632425629835 0.9072109375239397 0 0 0
939 1 39.102485425340106 24.83670373032609 14.123391525993746 0 0 0
2712 1 29.975414798329055 17.401086758964105 1.7172759749056001 0 0 0
1726 1 34.312397922144896 17.93631171726512 2.208355553450853 0 0 1
1557 1 36.367501020145895 16.803381432920286 0.8513617286211961 0 0 1
303 1 39.15205041085083 16.38373263109834 1.2430437103716643 0 0 0
1879 1 40.6590558526714 18.59078784017466 0.5417322859632714 0 0 1
490 1 43.48880630187135 18.14197361146762 1.0838844841109567 0 0 0
460 1 45.69167260640859 16.838832927724063 0.05771624778676787 0 0 0
1968 1 49.958195729068024 15.126072803325588 1.7496468741633713 0 0 1
409 1 1.852993957934928 20.910015476026288 -0.3436396721612147 0 0 0
3594 1 -0.32440409515022245 21.217920353512493 1.5635039063809888 1 0 1
609 1 4.190981754175115 20.296289128732358 0.3902854025027589 1 0 0
2411 1 11.627485022615652 19.866276986076258 1.2068452364391142 0 0 0
199 1 42.79016093111909 24.69927944464022 7.319152224134825 0 0 0
512 1 13.645933283201591 21.47916183388175 0.08179875510853518 0 0 0
2075 1 15.872717274653269 20.673257423159225 1.7026831069870898 0 0 1
2042 1 21.36771075486936 20.591080096874244 2.365767849426154 0 0 1
1765 1 27.05519179467619 19.85355855357202 2.314097211295301 0 0 1
2509 1 28.879099648769216 21.55463810182497 0.8184738414717023 0 0 0
271 1 31.979266870082537 19.308832552992413 1.180901950342765 0 0 0
2729 1 32.845027849062376 21.859397527700754 2.163909972198961 0 0 0
2798 1 37.596595039866784 21.592113731737676 0.9977996362796624 0 0 0
1938 1 40.18404636702962 21.03399039840526 1.7350323346285021 0 0 1
170 1 9.54308209577831 24.739616412280647 5.881654066158537 0 0 0
2765 1 44.02094766147911 21.918697124146735 1.2908543866520836 0 0 0
218 1 5.458808878301648 22.288426603584792 1.983384677862285 1 0 0
38 1 6.680606602578173 23.978870323091183 0.03632542780928005 0 0 0
1721 1 10.978880347258302 23.272747904203975 1.2488098279725186 0 0 1
32 1 48.558051496233475 24.466873391182684 10.02234286356557 -1 0 0
1847 1 13.890427427646426 24.384296017199738 0.3597278707757492 0 0 1
374 1 32.131716264814656 -0.09287865475912083 10.33292352400152 0 0 0
1794 1 17.589517187427816 22.216265833963597 3.167199346799487 0 0 1
2454 1 25.047049772497385 -0.6064701450265098 10.401969557678635 0 1 0
596 1 21.28545300235595 24.21643514851507 0.6119373025809589 0 0 0
495 1 22.48280416741489 23.036051562014173 2.7311554119145236 0 0 0
660 1 25.0272696468049 24.195638856541258 2.251693056342855 0 0 0
540 1 10.517126700466157 18.378309299007697 -0.7722152050563127 0 0 0
205 1 30.48245615184964 23.254263981052436 2.435250268216632 0 0 0
464 1 47.309064003955214 12.350214367992681 15.81994796149338 0 0 0
525 1 36.139549002968764 23.961560581960494 0.33372658695783786 0 0 0
1412 1 41.82292233050832 23.41246065932973 1.2977528626430876 0 0 1
3606 1 46.309022538521646 23.567612837599068 1.5467498698665563 0 0 1
1488 1 48.73791574677659 22.566019319816473 0.5195161596913676 0 0 1
2564 1 1.8011365037323204 0.8089381817664405 5.8817014541492005 0 1 0
2254 1 4.15030928793987 0.6825951475961423 4.595985774882449 0 1 0
2005 1 8.43742189511994 1.7839401447664964 4.542241267336071 0 0 1
2313 1 16.478309804522986 -0.1924195267756047 3.2854958112004082 0 1 0
2578 1 19.83073916281768 2.0840927697056397 5.211350852295833 0 1 0
533 1 24.008124858660498 22.791791758786875 14.13989113631568 0 0 0
2164 1 47.91566166044733 22.358664464361937 14.315713909554596 0 0 0
354 1 27.28501445138579 1.0618201476625153 2.4891215276935665 0 0 0
696 1 32.314991012342745 0.03658882616461112 3.552813668061934 0 0 0
2200 1 33.23212033901147 2.1595632199939203 5.152603660132986 0 1 0
654 1 35.45481341385316 0.9454212631685037 6.210560757070245 0 0 0
382 1 37.31975166431002 1.445647002787644 4.0694926713624975 0 0 0
4040 1 42.45226006396635 1.5117965647431033 4.456488839159782 0 1 1
35 1 45.204671684663325 2.735705140359817 4.9675221834897325 0 0 0
664 1 47.73428955713547 1.7726120581753593 3.680932663698613 -1 0 0
3749 1 49.721150076373746 0.006654327128222781 2.7220068588016293 0 1 1
169 1 0.5554857054249032 2.8087199605768016 4.314147238428631 0 0 0
676 1 2.0363944335901483 5.41934548664082 4.943041630124201 0 0 0
1555 1 5.912360802776372 5.233345003233193 4.465038254731176 0 0 1
1792 1 5.9058682373650635 2.549366862727475 5.163629477618638 0 0 1
477 1 10.426568529167342 5.613860131393171 3.018922701780319 0 0 0
2629 1 13.61897589810667 3.0696572898145735 3.9959584806679214 0 1 0
2162 1 16.13091674268969 2.3631229418702246 3.613074845055241 0 1 0
2286 1 17.609136826764512 3.8206605509303833 5.788135163591159 0 1 0
1468 1 21.253974596747028 3.156982233273975 3.0521355735500415 0 0 1
649 1 23.127027692461326 5.091971639831461 5.936661931686541 0 0 0
2644 1 23.979452929080658 4.157446842683669 3.1908109368069493 0 1 0
486 1 26.181511502341266 2.818264194609664 4.145317372361047 0 0 0
3899 1 28.280591504672874 4.445866626079637 5.149172083837858 0 1 1
1910 1 33.7907485484794 3.963603327712037 3.3164107922222925 0 0 1
3860 1 38.61808450471432 3.3448462304353903 5.692519314656416 0 1 1
2029 1 44.94432211100526 5.549057036410853 5.244213172824899 0 0 1
380 1 49.62741088655743 2.8209808858823373 5.5962733354862175 -1 0 0
312 1 -0.05993978008578371 6.749378642565623 5.774270373459484 1 0 0
397 1 4.170560029623145 6.5250930789308255 6.082550609760509 0 0 0
1956 1 8.413900668900158 6.868416541963557 4.510289545709803 0 0 1
468 1 12.890871647231355 5.7516068237631615 4.420351493597419 0 0 0
2041 1 14.469531005286793 7.284896622695557 2.988172645225084 0 0 1
143 1 16.839495212537713 7.982449039133716 4.411012672363681 0 0 0
704 1 18.718855007270328 6.155180652759924 4.538706608274259 0 0 0
155 1 21.08967984973599 6.9931216252835915 5.501153668535635 0 0 0
225 1 25.620396328026068 8.03092471985352 4.254332819223816 0 0 0
2707 1 30.005076528765866 6.017944587104782 3.4146233189120263 0 1 0
106 1 31.713683176131855 7.71040626040662 4.7124798040946185 0 0 0
2365 1 34.11922714900358 6.506002683626776 4.667572951188582 0 1 0
472 1 36.21418336255715 8.043678208376328 3.46455036371575 0 0 0
489 1 39.86924376642416 5.679786744507177 4.195817724742659 0 0 0
71 1 42.6160427920919 6.1564488876251104 3.9120582515601 0 0 0
1933 1 46.81924107411058 7.12900527805229 3.66611013929493 -1 0 1
1926 1 49.04303023843838 5.566681393692397 5.0658680999137955 -1 0 1
370 1 -0.06608003159010001 9.218475463347962 4.949517643838969 0 0 0
496 1 5.084282799252736 10.316272123063543 3.958022306984329 0 0 0
297 1 7.3727861262654955 9.15348398533848 3.2956381680668496 0 0 0
553 1 9.302826159097728 10.940839316049573 3.9674244163610526 1 0 0
2316 1 12.09952552312217 11.139408109467917 4.006394506966016 0 0 0
15 1 17.821839688803987 10.129768935272926 2.681966533176783 0 0 0
430 1 20.21144233600189 11.340088940843437 3.7210616156987255 0 0 0
1916 1 21.803205390346903 9.258869675096866 4.133149443720073 0 0 1
555 1 24.004034160229835 10.27999147972661 5.341300296599772 0 0 0
197 1 27.037100753126186 9.810138837836584 2.533850548026232 0 0 0
89 1 28.87360181925933 11.480615464294658 3.7104148289791103 0 0 0
270 1 31.47651758171762 10.566295395037876 4.043919906987871 0 0 0
1701 1 34.336897002493444 10.546165892064648 2.6166028624898057 0 0 1
21 1 34.037890151271455 12.64614213021541 5.160579260470911 0 0 0
503 1 38.15886929658123 11.066438534338968 3.862191715076495 0 0 0
313 1 37.57560169595378 9.163785467866706 5.851064077523013 0 0 0
545 1 42.568492525442494 10.301546585659366 4.9162326706271635 0 0 0
450 1 44.99699909486033 11.5604600799271 5.36107198099086 0 0 0
636 1 47.06336690684131 10.029801188647511 3.751568750163605 0 0 0
364 1 0.5831870474873262 15.918293268907824 3.279585180767051 1 0 0
1321 1 5.616913176781005 13.127937124128835 4.3687178361996715 0 0 0
1960 1 8.432039096373607 13.284693070432036 5.356905190687918 0 0 1
187 1 13.630356102346894 13.148165429299304 2.7267744672513965 1 0 0
492 1 16.508264909722307 12.68084242318712 2.51744932839997 0 0 0
705 1 16.120637298729108 12.92914331068816 5.367190491281602 0 0 0
625 1 23.71994397978311 14.416100454120425 2.8829029477153747 0 0 0
587 1 24.4436019590399 13.20857855224768 5.160731418292358 0 0 0
714 1 32.26411433197282 15.005728260556547 4.688895923501057 0 0 0
433 1 36.23469939332891 12.98150203480768 3.300818226256083 0 0 0
652 1 40.69071947562135 12.18486483771839 4.34089562586768 0 0 0
337 1 45.0175716341862 14.468415072200953 5.4149759302462765 0 0 0
128 1 47.63251667195722 15.049163367300933 4.610830191949538 0 0 0
1423 1 -0.5360984366699914 18.041482051528515 4.458397296121995 1 0 1
127 1 7.629785620152019 16.959239948558317 2.576970324073587 0 0 0
62 1 9.155145715520986 15.736758942522556 4.41718995889744 0 0 0
13 1 11.75707598478986 15.389656556708783 3.586087465554388 0 0 0
3232 1 12.537079785472834 18.172326515062252 3.670657477346813 0 0 0
1888 1 13.840601255066327 14.357263637115638 5.649648414979743 0 0 1
3918 1 15.525958696103629 18.293611675224202 3.0050028124727706 0 1 1
442 1 19.698181459783235 15.29165937291054 2.444719939803778 0 0 0
501 1 18.96334832790403 16.4528956506414 4.943560768125546 0 0 0
153 1 23.182812330060756 17.192523115638544 2.0305221766953467 0 0 0
684 1 22.877568267510707 18.757628424835165 4.1251261852452945 0 0 0
230 1 28.10140351069238 15.494639479844658 5.085077669924492 0 0 0
298 1 28.796374962856397 18.441175713449276 4.188840735614292 0 0 0
253 1 34.34257442784214 16.90729372887395 4.77838850942228 0 0 0
1835 1 36.76961426683148 15.50603956638233 4.322143748726609 0 0 1
294 1 38.951362888705546 16.654136497632646 3.975330615641676 0 0 0
2053 1 43.686264145850444 15.595073840690752 3.0554865755027887 -1 0 1
63 1 41.871599756329346 16.8756471005111 4.79054735679893 0 0 0
1416 1 47.60900380976604 17.813991540079567 5.490567618230693 0 0 1
1586 1 49.575155159084915 18.837119927617575 2.4154124599406415 0 0 1
2335 1 1.6425916503118532 19.860936999834195 4.888183389759693 1 0 0
1066 1 3.4839744265134547 19.188431070258396 2.9977584745726245 0 0 1
607 1 6.102856532746787 18.87802312950416 4.353678681513347 0 0 0
2002 1 7.2229323791264886 21.326033025598164 3.5942113608645876 0 0 1
709 1 10.098545295365149 21.233089431077342 3.0604401597879782 0 0 0
335 1 17.42264213386172 18.602015432104377 4.909091546877099 0 0 0
521 1 19.32769060948473 20.596228893111242 4.268568900837255 0 0 0
105 1 24.740890646985246 20.495545578710296 5.559957894486871 0 0 0
273 1 29.089207201989336 20.047744929646885 6.238811152870292 0 0 0
2118 1 36.44739399612911 20.10422348170217 2.8483093130935404 0 0 0
2555 1 38.33740484356434 19.268213908540194 4.774199723353927 0 0 0
559 1 40.476694537629996 20.70995934089308 4.575034101386279 0 0 0
267 1 42.763002236177385 19.315057415436765 5.0414443681874115 0 0 0
329 1 44.397014595764844 19.92518119156129 2.9397293368523485 0 0 0
141 1 47.061662200995826 19.842982375374635 3.8192869093945303 0 0 0
2177 1 1.0728632753492786 22.448648000664225 3.6528084552329725 0 0 0
59 1 0.664629030759682 22.029235270151133 6.619148431849877 0 0 0
601 1 3.518425082716959 23.78384293812695 3.107801863221874 0 0 0
421 1 4.868189543228774 23.88772189174191 5.510774704687634 0 0 0
672 1 7.145252855616191 22.43753097788359 6.145748709686631 0 0 0
2862 1 42.524434674876076 22.74262653140432 14.669819753645395 0 0 0
191 1 11.54670066704841 23.124034588014815 4.758468390211456 0 0 0
78 1 13.518813992937705 24.433813446129818 3.17445936130893 0 0 0
2334 1 15.822756345420007 23.59005150289544 4.566388170843779 0 0 0
422 1 22.23254646406466 24.38653288068578 5.014690876944983 0 0 0
670 1 20.262839147714747 22.7823366301069 6.123899982203757 0 0 0
348 1 24.892856141024815 24.307093263490305 5.977067203908957 0 0 0
2795 1 28.992890757671212 22.62037275744955 4.755649479292381 0 0 0
1853 1 26.341978876991178 22.472312624721305 4.089322581529531 0 0 1
518 1 31.919188571747508 24.37261867032158 5.233861275945209 0 0 0
2 1 34.403222315282164 21.98444343008083 4.351117606651111 0 0 0
1753 1 36.07504921186475 24.11352852945972 4.6729357822548705 0 0 1
515 1 40.80599623958413 23.178139102683538 5.889390027803692 0 0 0
2582 1 41.35693598201634 24.719716636312445 3.498014248765714 0 0 0
214 1 47.90927895665426 24.163064787595765 5.922645379222527 -1 0 0
2717 1 2.1694529065807204 1.7805837741674182 8.496679073408735 0 1 0
502 1 4.811435277833748 0.8784532747875582 9.284817717132103 0 0 0
1740 1 10.044092056629584 2.139899922454643 6.8704545675962025 0 0 1
76 1 9.887978193314392 -0.04515032458678725 8.424647190258005 1 0 0
2780 1 31.164818719127496 24.640042979886 11.409310432969223 0 0 0
3336 1 12.75418407822193 2.133537941103319 6.55436369840899 0 1 0
497 1 17.253180663431714 1.2255155693732518 9.23401783257478 0 0 0
537 1 24.49996749109843 1.494005216533167 6.044164605129587 0 0 0
2793 1 25.788356271197582 1.4503810917161628 8.514297529949394 0 1 0
674 1 28.587145669934333 0.9802538409075496 8.044583482251676 0 0 0
506 1 33.104719424286316 2.1093411688162904 9.494873476146045 0 0 0
2174 1 35.955544635577525 2.0919939565911823 8.924293134520118 0 1 0
462 1 40.7887733221101 1.881844929559036 6.643853330032955 0 0 0
3900 1 45.4892796274204 1.5369010736554571 7.525515204738305 0 1 1
164 1 48.41648429978427 1.3267505926379637 7.755108309039578 0 0 0
172 1 4.532288987520506 4.9561412993081015 8.34696922137616 0 0 0
375 1 1.7660143144772635 4.410766397113468 9.028352558213706 0 0 0
2205 1 5.985899419664845 2.831603991294086 7.730644047638911 0 1 0
3422 1 8.662510606939094 4.016068927003831 8.23541767875679 0 1 0
584 1 13.88856404808966 3.6317363103174607 8.778379866786844 0 0 0
416 1 16.770253170287056 3.931420965624472 8.370544338532211 0 0 0
150 1 22.048243152484986 2.5172050756693944 6.873447886249898 0 0 0
461 1 29.419104814881766 3.370626403442343 7.255710158982451 0 0 0
140 1 32.40072465214749 3.5283316643288227 7.314199371235622 0 0 0
487 1 34.1996179814667 5.6891632003853285 7.068613468175878 0 0 0
121 1 36.5826911731524 4.53446636194358 7.603097571370347 0 0 0
614 1 42.1541636488718 3.6120165811266087 8.670005450169423 0 0 0
1898 1 43.25922114613509 5.820535812923914 7.457291851477862 0 0 1
665 1 0.30699058920338973 6.938847695306123 8.576715339798161 1 0 0
3 1 7.449974981521519 7.99671750770937 9.049912667879436 0 0 0
12 1 9.157055287759766 6.76749703181898 7.331816671786267 0 0 0
2496 1 13.375672619360884 6.293527757434366 8.713833851454739 0 1 0
626 1 11.791679585637032 7.218423401690776 6.650259539352587 0 0 0
115 1 15.769598925152128 7.6366143463310685 8.902683919375642 0 0 0
412 1 20.780306609255486 7.831685688839306 7.827538265408901 0 0 0
315 1 25.275742183961537 5.963261869271211 7.90312839902688 0 0 0
516 1 27.409537308576482 6.714415763543804 6.223870795074885 0 0 0
220 1 29.033885341421115 8.43411043849054 7.838552103359728 0 0 0
229 1 31.72765707990968 9.073411262077105 7.211084611067878 0 0 0
2528 1 33.55713636241596 7.726867180096281 9.035531405658007 0 1 0
353 1 38.67489356421889 5.727444883958437 9.320074181390465 0 0 0
3644 1 39.51057133141134 7.117136073653588 6.837842706298118 0 1 1
327 1 41.96461297831155 8.429693380527802 7.147687942066509 0 0 0
616 1 45.265686908200635 6.317716676718932 9.10676143248406 -1 0 0
1490 1 47.08841864659516 6.79360902226631 7.228238530592643 0 0 1
4134 1 1.7865037667690866 10.41579072639928 7.02611589035213 1 1 1
61 1 1.1485934184575766 9.264726772705467 9.431538584899881 0 0 0
37 1 4.3176130813984015 9.408294710977234 6.345641373607444 1 0 0
3603 1 5.620983506601609 9.920845846378212 8.820890092748987 0 0 0
238 1 10.688615218489433 10.978744901905038 8.632549491667772 0 0 0
193 1 12.185291463444408 9.912155439275564 6.556461767564305 0 0 0
286 1 16.893423684780615 9.257218532548803 7.024719932361905 0 0 0
998 1 14.867109049374486 11.310427570047809 7.127321634484849 0 0 0
333 1 19.433795005208 10.349694086863401 8.131236005428748 0 0 0
682 1 20.26059638000653 12.327698527293435 6.443668320475521 0 0 0
599 1 24.46804908108318 10.104915701650128 8.000556202397108 0 0 0
2750 1 27.559167004399196 10.608982636233513 8.506492866153422 0 1 0
25 1 31.66136254865786 11.773491901620075 7.062591867553901 0 0 0
1832 1 37.007889159053704 10.288008802973547 8.365827096222981 0 0 1
201 1 39.065542200540364 12.195533595843711 9.409267986006826 0 0 0
241 1 43.37991944376064 9.8014727043176 8.955424795864019 0 0 0
2056 1 45.622982547011546 10.887937323246643 7.7205279964652185 0 0 1
147 1 47.739790802251676 9.437903386798961 7.510912846954968 0 0 0
275 1 49.2001203758375 10.426050171507168 5.363893353825467 0 0 0
581 1 0.48415651328536313 14.735176630198328 5.832705579053304 1 0 0
2052 1 2.0285651289874846 12.999653755254291 7.42161905323322 0 0 1
642 1 4.637110777606062 14.168164093583647 6.845055808581851 0 0 0
36 1 6.215102318139758 12.703566637970312 8.285780274400976 0 0 0
827 1 8.958054764741272 13.236852563817834 8.192617756381152 0 0 0
316 1 18.157107552626666 14.228404534813999 6.538691989563107 0 0 0
452 1 22.397684642393394 13.874879218728278 7.294855078145327 0 0 0
239 1 26.49765177341307 14.2867416871374 6.689984709845272 0 0 0
434 1 27.245466061287356 13.785996256347996 9.57214357095231 0 0 0
2602 1 28.932831381783526 12.241635562422916 6.655277846406413 0 0 0
1619 1 30.3366721254162 15.129234378960849 6.468091822576087 0 0 1
629 1 34.558848402923175 14.082222444674334 9.51793915702586 0 0 0
151 1 35.75217536978245 12.668822895799714 7.29874460183245 0 0 0
2324 1 37.798581544518655 14.599891169402008 6.958165439039521 0 0 0
16 1 40.14761730092076 13.08739886863467 6.8427699514826505 0 0 0
1221 1 44.679295506409275 15.054803614194322 8.65062594566046 -1 0 0
222 1 46.292443013186045 13.010187738177171 9.28899790409087 0 0 0
245 1 49.30888986461687 13.365466076700542 5.9541424288047 -1 0 0
54 1 48.88913552270881 14.191007912715811 8.508625576987598 0 0 0
2817 1 0.7047508460654837 17.114694392667406 7.516225120102941 0 0 0
263 1 4.909395135450206 16.941881301060263 7.914878062538511 0 0 0
564 1 9.681074210421096 15.673217280031238 9.308175131201505 0 0 0
2502 1 9.539168383080222 17.25276216213058 6.693273624376846 0 1 0
528 1 13.659643107289641 16.417208928070185 7.743177335010529 0 0 0
34 1 12.305698102974295 18.440331579430904 6.469393395122005 0 0 0
563 1 15.90646979258267 17.38123320356448 9.08886279693488 0 0 0
2068 1 17.431686828933444 15.358894328073003 8.891981178047425 0 0 1
352 1 21.745119624880484 16.316047447204372 8.383132815926347 0 0 0
160 1 21.034264495875487 17.690234489761295 6.091571646517497 0 0 0
2410 1 24.0126716669142 16.621989612466397 9.400564420335437 0 0 0
435 1 26.679473454572722 16.869950308585757 8.467279078548037 0 0 0
132 1 31.02172621183254 18.165915404974406 7.392002776110209 0 0 0
296 1 30.81624653497978 15.833297265071128 9.282160296695618 0 0 0
188 1 33.77747459108588 18.117426234518312 7.1477919632207625 0 0 0
279 1 34.749144572050994 17.0916139097548 9.607971395035486 0 0 0
703 1 37.44838087135419 16.90660021852275 8.382354014455284 0 0 0
346 1 42.00472548841266 15.148847120897752 6.944017789142316 0 0 0
579 1 45.62756563954888 17.13902926647145 7.420319942025397 0 0 0
31 1 49.73102970233937 18.269965775069434 7.2212939317086775 -1 0 0
135 1 2.865924134497493 19.004309832895487 7.674198693558692 0 0 0
2985 1 4.496707455717525 20.96934916103654 9.506081175437599 0 0 0
154 1 7.057401359508554 18.05234364697378 6.944256060994574 0 0 0
2598 1 7.190553946978127 20.609500200821405 8.487260922037203 0 0 0
2386 1 12.494372254259083 21.34551661248919 6.597686602092239 0 0 0
731 1 16.85521607116366 19.91606949404325 7.7672573442178265 0 0 0
3754 1 19.761090680823674 20.06751833600814 7.381632808768982 0 0 1
408 1 26.01602589677833 21.603097030359294 8.897923121651276 0 0 0
177 1 26.56541805896724 19.43321024034445 7.195201355803374 0 0 0
26 1 30.93245319880553 20.140836573072104 9.178290966539894 0 0 0
688 1 34.52822129268182 20.793928051981254 7.005222705153017 0 0 0
2451 1 33.30873055553194 21.99335768235016 9.035734210616672 0 0 0
277 1 37.52022937079205 21.36457145594757 7.950748549691969 0 0 0
383 1 38.86187678132822 19.03519965585309 7.529869085791169 0 0 0
42 1 41.25855750990786 18.701937910073788 8.641584910502065 0 0 0
500 1 43.704380302991964 19.25312324516476 7.5708809405290936 0 0 0
377 1 47.42721470728597 21.4028270233636 6.198049526057519 -1 0 0
2755 1 49.85638420611643 20.977587742300923 7.426527389749996 -1 0 0
124 1 3.3398031317544135 22.86207605060376 7.505277232920841 0 0 0
2503 1 3.3938010940955836 3.3815165746007443 16.12547275308922 0 1 0
744 1 11.197809794733145 22.40668948500333 8.931513023764301 0 0 0
223 1 15.236215659982559 22.188069106227456 6.823043195005795 0 0 0
983 1 14.808977935878694 23.898547344679525 8.945192203237308 1 0 0
231 1 39.0255234257025 17.164662826058557 15.39043315168811 0 0 0
2535 1 22.80766900048916 21.71701832209919 7.187353586150945 0 0 0
1000 1 24.261986062956677 23.894193771616436 8.743334189495233 0 0 0
689 1 28.818613989358308 22.24035122493439 8.698531086688693 0 0 0
2137 1 29.934016389319147 24.24226042185989 7.001536210347512 0 0 0
558 1 19.259073614934138 -0.5440759559703616 14.354017006370528 0 0 0
287 1 38.12175358540098 23.65306077405033 6.526871960716943 0 0 0
2287 1 16.55389531763778 24.595388426915452 -0.499064720928259 0 0 0
947 1 45.646445132415266 21.287161258602108 8.322099713829155 -1 0 0
675 1 44.87589708614411 23.919415996849953 8.544895720887766 0 0 0
4133 1 0.5945383497340153 0.5625746814331407 10.224311717626843 1 1 1
546 1 4.700043824473627 1.2122045812862225 12.094816244645939 0 0 0
5 1 10.402089905564784 1.378896782407939 10.809583649898693 0 0 0
1167 1 15.423338761385644 1.0381541469638857 11.567054128363546 0 0 0
2394 1 19.95073099565937 1.0677208315117035 10.328751410628346 0 1 0
2101 1 50.07541034571311 17.397880258579765 -0.10891604186338266 0 0 1
2332 1 23.447987749098374 0.12800717599866063 12.501963376432506 0 1 0
258 1 29.443449437960435 0.5622405418361816 10.694495115628808 0 0 0
86 1 26.4590516479542 24.94737042995118 10.231458325067278 0 0 0
1370 1 35.54214661558045 19.392678762127748 16.319771477057355 0 0 0
131 1 50.75262211546713 24.323382408600835 5.597182465284439 0 0 0
567 1 37.05226613564854 2.730104739151812 11.480425512123649 0 0 0
202 1 40.93002948409671 0.11926454262217134 12.323142086049312 0 0 0
2430 1 39.703941866890474 2.8971650723928635 12.288288192283037 0 1 0
185 1 44.27341919862867 2.294744255976964 9.855968394230741 0 0 0
393 1 43.918603689441355 0.572769649938669 11.87142824760766 0 0 0
2203 1 49.60226454577705 1.2638341456145592 10.136957305647904 -1 1 0
726 1 2.5356352168173406 4.690085141006155 11.947912237895421 0 0 0
396 1 7.022568452987776 2.6131604199951033 12.723389219475076 0 0 0
2436 1 8.899692631954954 3.9881011965871593 10.905714834777982 0 1 0
591 1 10.460338330893824 5.736393063683583 12.221278261158675 0 0 0
632 1 12.910290677364655 2.4482354389301535 11.141154046360137 0 0 0
2242 1 16.849422726487727 5.358101307760799 12.957272807143035 0 1 0
328 1 17.46485915834981 5.62625065394863 10.242079228030759 0 0 0