
# Create simulation box of size 50 x 50 x 50 Angstrom
#
lattice	            sc 1
Lattice spacing in x,y,z = 1.0000000 1.0000000 1.0000000
region 	            all block 0 50 0 50 0 50 units box
create_box          1 all
Created orthogonal box = (0.0000000 0.0000000 0.0000000) to (50.000000 50.000000 50.000000)
  1 by 2 by 3 MPI processor grid

# fill box with 4175 randomly distributed atoms
#
create_atoms        1 random 4175 63782 all
Created 4175 atoms
  create_atoms CPU = 0.001 seconds
mass                1 18.015

# Define potential
#
pair_style          sw
pair_coeff          * * ML_mW.sw mW
Reading sw potential file ML_mW.sw with DATE: 2019-02-27

# Run minimization
#
minimize            1.0e-8 1.0e-8 10000 1000
WARNING: Using 'neigh_modify every 1 delay 0 check yes' setting during minimization (../min.cpp:187)
Neighbor list info ...
  update every 1 steps, delay 0 steps, check yes
  max neighbors/atom: 2000, page size: 100000
  master list distance cutoff = 6.0032907
  ghost atom cutoff = 6.0032907
  binsize = 3.0016454, bins = 17 17 17
  1 neighbor lists, perpetual/occasional/extra = 1 0 0
  (1) pair sw, perpetual
      attributes: full, newton on
      pair build: full/bin/atomonly
      stencil: full/bin/3d
      bin: standard
Per MPI rank memory allocation (min/avg/max) = 4.255 | 4.258 | 4.261 Mbytes
Step Temp E_pair E_mol TotEng Press 
       0            0    7792709.3            0    7792709.3    5898794.3 
     630            0   -45180.336            0   -45180.336   -154.07449 
Loop time of 1.15391 on 6 procs for 630 steps with 4175 atoms

99.4% CPU use with 6 MPI tasks x no OpenMP threads

Minimization stats:
  Stopping criterion = max force evaluations
  Energy initial, next-to-last, final = 
      7792709.32924461  -45180.0188663597   -45180.336116598
  Force two-norm initial, final = 2.0191930e+08 4.9721331
  Force max component initial, final = 1.0948746e+08 0.73126211
  Final line search alpha, max atom move = 0.053306038 0.038980685
  Iterations, force evaluations = 630 1000

MPI task timing breakdown:
Section |  min time  |  avg time  |  max time  |%varavg| %total
---------------------------------------------------------------
Pair    | 0.88807    | 0.98263    | 1.076      |   6.0 | 85.16
Neigh   | 0.023731   | 0.024415   | 0.025005   |   0.3 |  2.12
Comm    | 0.033478   | 0.12727    | 0.22279    |  16.8 | 11.03
Output  | 0          | 0          | 0          |   0.0 |  0.00
Modify  | 0          | 0          | 0          |   0.0 |  0.00
Other   |            | 0.01959    |            |       |  1.70

Nlocal:        695.833 ave         704 max         685 min
Histogram: 1 1 0 0 1 0 0 1 0 2
Nghost:        1494.17 ave        1515 max        1468 min
Histogram: 1 1 0 0 0 0 1 1 1 1
Neighs:        0.00000 ave           0 max           0 min
Histogram: 6 0 0 0 0 0 0 0 0 0
FullNghs:      19997.0 ave       20462 max       19320 min
Histogram: 1 1 0 0 0 0 0 2 0 2

Total # of neighbors = 119982
Ave neighs/atom = 28.738204
Neighbor list builds = 26
Dangerous builds = 0

# Add velocity/set timestep
#
velocity            all create ${TEMP} 120598 rot yes dist gaussian
velocity            all create 220 120598 rot yes dist gaussian
timestep            5.0

# Define output
#
compute	            1 all msd
thermo	            100
thermo_style        custom step temp press vol etotal ke pe c_1[4] density

# Neighbor lists
#
neigh_modify        delay 0 every 1 check yes

# Set fixes
#
fix                 1 all momentum 10 linear 1 1 1 rescale
fix                 2 all nve
fix                 3 all temp/csvr ${TEMP} ${TEMP} 500.0 928347
fix                 3 all temp/csvr 220 ${TEMP} 500.0 928347
fix                 3 all temp/csvr 220 220 500.0 928347
fix                 4 all press/berendsen iso ${PRES} ${PRES} 1000.0 modulus 20000
fix                 4 all press/berendsen iso -950 ${PRES} 1000.0 modulus 20000
fix                 4 all press/berendsen iso -950 -950 1000.0 modulus 20000

# Run 0.5 ns equilibration
#
dump                1 all custom 1000 eq.${NAME}.dump id type x y z vx vy vz
dump                1 all custom 1000 eq.liquid_density_MLmW.dump id type x y z vx vy vz
run                 100000
Per MPI rank memory allocation (min/avg/max) = 3.506 | 3.508 | 3.511 Mbytes
Step Temp Press Volume TotEng KinEng PotEng c_1[4] Density 
     630          220    846.92133       125000   -42443.118    2737.2183   -45180.336 2.7295415e-33   0.99914793 
     700    140.22275   -747.39383    126334.22   -41590.612    1744.6376    -43335.25   0.26307168   0.98859587 
     800     173.3178   -1012.4059    126843.02   -40813.903    2156.4029   -42970.306   0.59622499    0.9846304 
     900    189.64194   -862.80482     126848.3   -40371.399    2359.5063   -42730.905    1.0198794   0.98458936 
    1000    203.34336   -922.93621    127361.65   -40088.899    2529.9779   -42618.877    1.4592918   0.98062086 
    1100      214.807   -1059.9823    127311.05    -39917.64    2672.6074   -42590.247    1.7751149   0.98101058 
    1200    212.96039   -951.71716    127508.14   -39959.727    2649.6321   -42609.359    2.1700952   0.97949425 
    1300    214.63837   -1074.8104     127839.4   -39936.298    2670.5093   -42606.808    2.5919152   0.97695619 
    1400    214.75972   -605.93244    128411.55   -39956.641    2672.0192    -42628.66    2.9183915   0.97260328 
    1500     215.9625   -909.91453    128687.26   -39911.212    2686.9841   -42598.196    3.2982211    0.9705195 
    1600    222.15557   -904.88347    128849.54   -39822.727    2764.0377   -42586.765    3.5978788   0.96929714 
    1700    223.05132   -855.28483    129072.17   -39849.797    2775.1825   -42624.979    3.8776425   0.96762524 
    1800    220.47915    -927.1171    129047.24   -39934.856    2743.1798   -42678.036    4.1296267   0.96781216 
    1900     220.1854   -807.29848    129214.67   -39922.529    2739.5249   -42662.054    4.5180793   0.96655813 
    2000    215.25525   -790.77687    129463.98   -39885.974    2678.1845   -42564.158    4.8176943   0.96469683 
    2100    220.24359    -884.2068    129591.27   -39843.076    2740.2489   -42583.325    5.1467472   0.96374926 
    2200    223.84576   -893.23159    129789.36    -39868.39    2785.0668   -42653.457    5.4670686   0.96227832 
    2300    222.48764   -1047.6953    129989.98   -39853.414    2768.1692   -42621.583    5.7689087   0.96079325 
    2400    224.34877   -751.41558    129968.92   -39891.475    2791.3252     -42682.8    6.0676534   0.96094894 
    2500    226.55005   -932.65513    130128.09   -39874.596    2818.7133   -42693.309    6.4125899   0.95977349 
    2600    228.77773   -912.59793    130015.15   -39846.674    2846.4299   -42693.104    6.7601824   0.96060719 
    2700    226.90649   -858.14551    129981.29   -39880.857    2823.1481   -42704.005    6.9797202   0.96085743 
    2800    226.33556   -690.63096    129973.42   -39876.991    2816.0447   -42693.036    7.2200836   0.96091564 
    2900    222.98768    -982.2136    129984.61   -39963.967    2774.3907   -42738.357    7.5303642   0.96083292 
    3000    225.22037   -1002.6904     130136.6   -40025.822    2802.1696   -42827.991    7.7988956   0.95971071 
    3100    223.53936   -964.27554    130466.84   -40019.317    2781.2546   -42800.572    8.0608018   0.95728146 
    3200    223.08415   -946.82879     130589.6   -40069.029    2775.5909    -42844.62    8.2337335   0.95638157 
    3300    224.92237   -949.50676    130566.91   -40075.036    2798.4619   -42873.498    8.5241203    0.9565478 
    3400    226.24421   -911.69841     130582.4    -40126.44    2814.9081   -42941.348    8.7952277   0.95643433 
    3500    222.81158   -935.54249    130620.86   -40183.138    2772.1996   -42955.337    8.9626356   0.95615275 
    3600    219.46837   -760.83608    130659.44   -40235.736    2730.6038    -42966.34    9.2414043   0.95587041 
    3700     219.6493   -1097.4395    130691.79   -40313.937    2732.8549   -43046.792     9.623066   0.95563381 
    3800    218.85484   -1080.7048    130816.36   -40262.377    2722.9703   -42985.348    9.7144084   0.95472382 
    3900    219.36717   -1025.5616    130934.15   -40313.613    2729.3446   -43042.957    9.9091307   0.95386492 
    4000    218.87873   -982.01567    131126.76   -40298.383    2723.2675   -43021.651    9.8810123   0.95246376 
    4100    221.70301   -791.14854    131008.59   -40301.324     2758.407   -43059.731    10.078396   0.95332294 
    4200    223.82482   -959.09118    131139.73   -40319.462    2784.8063   -43104.268    10.295096   0.95236962 
    4300    218.98284   -1015.8554    131101.95   -40340.558    2724.5629   -43065.121    10.541049     0.952644 
    4400    218.94633   -1023.0193    131197.48   -40328.757    2724.1085   -43052.866    10.708219   0.95195042 
    4500    218.88985   -862.27276    131078.28   -40322.728    2723.4059   -43046.134    10.890127   0.95281606 
    4600    217.01967   -829.99062    131166.42   -40365.408    2700.1373   -43065.545    11.154594   0.95217577 
    4700    224.80948   -891.67208    131262.94   -40301.213    2797.0573    -43098.27    11.219145   0.95147566 
    4800    217.35852   -659.44605    131187.04   -40370.073    2704.3532   -43074.426    11.349666   0.95202617 
    4900    224.89594   -870.72939    131507.65   -40244.446    2798.1331   -43042.579    11.567443   0.94970516 
    5000    221.23941   -845.86374    131766.26   -40194.474    2752.6389   -42947.113    11.675138   0.94784124 
    5100    222.13259   -878.43158    131784.28   -40266.438    2763.7517   -43030.189    11.757425    0.9477116 
    5200    219.43668   -1011.3077    131914.14   -40357.506    2730.2095   -43087.716    12.000869   0.94677866 
    5300    222.39751      -894.95     132274.6   -40341.517    2767.0479   -43108.564     12.08903   0.94419862 
    5400     221.3239   -897.79569    132202.94   -40402.421      2753.69   -43156.111    12.183645   0.94471037 
    5500    219.00849   -1042.4225    132139.89   -40424.338     2724.882    -43149.22    12.367182   0.94516114 
    5600    217.47134   -825.29219    132323.22   -40443.478    2705.7569   -43149.235     12.50079   0.94385164 
    5700    221.60722   -917.77752    132256.24   -40449.028    2757.2152   -43206.243    12.651198   0.94432964 
    5800    217.42663   -1033.2956    132213.35   -40494.677    2705.2006   -43199.878    12.809155   0.94463598 
    5900    219.21935   -754.47627    132302.42   -40533.251    2727.5054   -43260.757    13.021301   0.94400005 
    6000    214.97958    -952.5956    132428.27    -40546.39    2674.7547   -43221.145    13.154337   0.94310292 
    6100    218.48943   -918.67815    132485.16   -40488.455    2718.4239   -43206.878    13.179581   0.94269796 
    6200    217.59329   -952.28917    132739.94   -40554.288    2707.2742   -43261.562    13.217742   0.94088854 
    6300    217.62136   -1050.5165    132734.28   -40526.782    2707.6234   -43234.405    13.317244   0.94092866 
    6400    223.17049   -796.35718    132664.75   -40531.516    2776.6652   -43308.181    13.418397   0.94142183 
    6500    219.63135   -1004.2726    132824.08   -40481.845    2732.6316   -43214.477    13.566323   0.94029252 
    6600    220.13435   -1024.8788    132791.53   -40557.598    2738.8898   -43296.488    13.708998     0.940523 
    6700    213.79141    -1070.743    132850.63   -40628.163    2659.9716   -43288.134    13.918055   0.94010463 
    6800    218.90149   -844.82807    133112.31   -40541.251    2723.5507   -43264.802    14.029055   0.93825653 
    6900    221.27427   -897.63131    133244.49   -40501.255    2753.0726   -43254.328    14.067581   0.93732577 
    7000    220.32015   -859.39396    133419.47   -40495.833    2741.2016   -43237.035    14.094145   0.93609644 
    7100     222.6858   -1107.0569    133449.84   -40513.351    2770.6348   -43283.986    14.257463   0.93588338 
    7200    220.00358   -1086.5271    133236.16   -40575.335    2737.2627   -43312.597    14.370553   0.93738434 
    7300    217.14733   -1138.0555    132999.35   -40639.726    2701.7256   -43341.451    14.475499   0.93905338 
    7400    216.86868   -910.30426    133015.43   -40649.425    2698.2587   -43347.684     14.68058   0.93893986 
    7500    219.90226   -904.18665    132918.43   -40620.542    2736.0022   -43356.544    14.840748    0.9396251 
    7600    217.06978   -967.88776    133089.12   -40695.707    2700.7608   -43396.468      14.9185   0.93841996 
    7700    217.60884    -776.0142    133166.73   -40581.443    2707.4676   -43288.911     15.04465   0.93787305 
    7800     223.1206   -1124.9737    133083.11   -40568.999    2776.0445   -43345.043    15.203282   0.93846234 
    7900    218.47003   -871.64528    133036.37   -40636.599    2718.1825   -43354.782    15.249866   0.93879209 
    8000     218.4446   -922.14738    133146.07   -40613.496    2717.8661   -43331.362    15.503583   0.93801861 
    8100    214.53878   -1207.8998     133000.5    -40692.44    2669.2703   -43361.711    15.470521   0.93904529 
    8200    214.97221    -971.8929    132827.82    -40722.37    2674.6629   -43397.033    15.553073   0.94026605 
    8300    217.80672   -914.05344    132968.93   -40716.297    2709.9297   -43426.227    15.707788   0.93926824 
    8400    220.49702   -988.43818    132917.38   -40676.568    2743.4021    -43419.97    15.675977   0.93963254 
    8500    222.14753   -963.41709    132846.14   -40621.471    2763.9377   -43385.409    15.776117   0.94013642 
    8600    219.70792    -980.5101    132771.03   -40647.827    2733.5842   -43381.411    15.757826   0.94066821 
    8700    221.10513   -958.03398    133026.25    -40622.14    2750.9682   -43373.108    15.900966   0.93886353 
    8800     224.9923   -771.96816    133304.85   -40654.279     2799.332   -43453.611    16.327825   0.93690132 
    8900    217.41191    -1005.178    133366.12   -40746.779    2705.0175   -43451.797     16.45696   0.93647091 
    9000    222.48055   -951.30512    133416.73   -40700.199     2768.081    -43468.28    16.451475   0.93611569 
    9100    214.37423   -892.96276    133354.26   -40776.799     2667.223   -43444.022     16.33888   0.93655417 
    9200    222.28219   -885.26822    133359.51   -40672.519     2765.613   -43438.132    16.539598   0.93651733 
    9300    218.48423    -991.1273    133415.12   -40721.439    2718.3592   -43439.798    16.733775   0.93612696 
    9400    219.18879    -883.6541    133702.46   -40692.894    2727.1253   -43420.019    16.706822   0.93411512 
    9500    216.02385    -1051.879    133711.78   -40711.918    2687.7474   -43399.666    16.979545   0.93405006 
    9600    221.56636   -1124.2381    133691.12   -40683.391    2756.7067   -43440.098    17.004037   0.93419436 
    9700    221.93145   -1032.9784    133665.62   -40610.945    2761.2491   -43372.194    17.096979   0.93437256 
    9800    218.59876   -1003.8013    133559.03   -40693.859    2719.7842   -43413.643    17.274724   0.93511827 
    9900    217.81931   -1001.7786    133424.91   -40773.363    2710.0863   -43483.449    17.349086   0.93605827 
   10000    215.62534   -951.94888    133305.47   -40775.385    2682.7891   -43458.174     17.32989   0.93689695 
   10100    222.33824   -884.58885     133331.2   -40731.465    2766.3103   -43497.775    17.372183   0.93671618 
   10200    215.41143   -858.18749    133138.39   -40788.359    2680.1277   -43468.486    17.549068   0.93807272 
   10300    219.28753    -909.3758    133407.23   -40762.232    2728.3538   -43490.586    17.751902   0.93618232 
   10400    221.79526   -888.62619    133343.28   -40702.254    2759.5547   -43461.809    17.829622   0.93663128 
   10500    223.08536   -1014.8588    133293.75   -40696.787     2775.606   -43472.393    17.930627   0.93697936 
   10600    225.34746   -917.68896    133370.08    -40638.34    2803.7509   -43442.091    18.129409   0.93644313 
   10700    223.02214   -964.48729    133437.08   -40634.768    2774.8194   -43409.587    18.096425   0.93597292 
   10800    222.15925   -950.07953    133374.51   -40629.218    2764.0834   -43393.302    18.059145     0.936412 
   10900    220.74228   -1009.6249    133331.29   -40656.918    2746.4536   -43403.371    18.111198   0.93671553 
   11000    221.97429   -1079.3739     133490.2   -40646.402    2761.7822   -43408.185    18.264081   0.93560046 
   11100     219.7313   -985.01457    133372.23   -40691.709    2733.8751   -43425.584     18.36175   0.93642801 
   11200    219.91409   -997.22342    133104.41   -40703.748    2736.1494   -43439.898     18.34328   0.93831216 
   11300    216.60149   -918.41651     132978.3   -40693.887    2694.9343   -43388.821    18.391755   0.93920202 
   11400    221.80817   -878.13045    133297.68   -40688.789    2759.7153   -43448.504    18.526888   0.93695174 
   11500    222.18431   -885.95608    133283.53   -40733.413    2764.3952   -43497.808    18.846476   0.93705117 
   11600    220.36122   -974.56266    133314.65    -40740.93    2741.7125   -43482.642    18.848668   0.93683248 
   11700    227.10091   -870.37287    133551.31   -40647.285    2825.5671   -43472.852    18.998443   0.93517233 
   11800    218.57834   -903.58027    133781.61   -40719.136    2719.5302   -43438.666    19.018559   0.93356245 
   11900    220.38148   -972.54667    133917.67   -40746.118    2741.9646   -43488.083    19.203174   0.93261395 
   12000    218.96499   -833.25202    133816.86   -40760.112    2724.3407   -43484.453    19.401856   0.93331655 
   12100    222.56029   -920.08708    133868.22   -40716.761    2769.0732   -43485.834    19.505728   0.93295849 
   12200    221.36155   -813.85516    133878.45   -40712.384    2754.1586   -43466.543    19.578231   0.93288722 
   12300    221.74535   -1002.7189    133837.97   -40740.306    2758.9338    -43499.24    19.595837   0.93316935 
   12400    222.54641   -830.57212    133859.27   -40734.291    2768.9005   -43503.191    19.718712   0.93302085 
   12500    220.70298   -923.12659    133994.48   -40829.312    2745.9647   -43575.276    19.898568   0.93207938 
   12600    220.75979   -1037.7099    133837.18   -40737.341    2746.6715   -43484.013    19.911002   0.93317488 
   12700    222.38321   -890.75793    133991.52   -40716.198      2766.87   -43483.068    19.822642   0.93209996 
   12800    222.09996   -1057.6487    133950.37   -40682.872    2763.3458   -43446.218    19.786484   0.93238632 
   12900    219.00336   -970.44042    133859.22    -40732.81    2724.8182   -43457.629    19.911803   0.93302118 
   13000    221.44988   -1002.8223    133911.95   -40679.851    2755.2575   -43435.109    20.087628   0.93265381 
   13100    224.14673   -951.17005    134052.39   -40683.618    2788.8115    -43472.43    20.240174   0.93167675 
   13200    224.99966   -948.02191    134095.24   -40609.376    2799.4235     -43408.8    20.231479   0.93137901 
   13300    223.74598   -932.24384    134048.24   -40666.186    2783.8254   -43450.012    20.292838    0.9317056 
   13400     219.3373   -951.84719    134139.86   -40758.442     2728.973   -43487.415    20.472935   0.93106921 
   13500     217.2857   -931.90302    134160.57   -40794.335    2703.4472   -43497.782    20.475787   0.93092549 
   13600    223.59701   -1133.1711    134021.16   -40825.611    2781.9719   -43607.582    20.510155    0.9318938 
   13700    218.35224   -1020.9639    133894.97   -40846.017     2716.717   -43562.734    20.619715   0.93277211 
   13800    223.64469   -951.44895    134133.42   -40775.182    2782.5651   -43557.747    20.729955   0.93111392 
   13900    224.65025    -1061.715    134111.25   -40824.399    2795.0762   -43619.475    20.689533   0.93126782 
   14000    219.41142   -903.12919    133949.48   -40804.888    2729.8952   -43534.783    20.946789   0.93239248 
   14100     222.4361   -995.58927    134285.88   -40808.659    2767.5279   -43576.187     21.16467   0.93005673 
   14200    217.34444   -1186.4655    134158.57   -40872.731     2704.178   -43576.909    21.097842   0.93093932 
   14300    217.82215   -936.01594    134139.35   -40932.521    2710.1216   -43642.643    21.132195   0.93107274 
   14400    219.07444   -1093.8177    134223.61    -40894.41    2725.7026   -43620.113    21.222918   0.93048827 
   14500    220.88908   -1022.8031    134273.33   -40854.757    2748.2802   -43603.037    21.179338   0.93014372 
   14600    220.67933     -1074.07    134190.29   -40860.336    2745.6704   -43606.007    21.313277   0.93071928 
   14700    218.89021   -825.94387    134270.61   -40902.657    2723.4103   -43626.068    21.383238   0.93016251 
   14800    217.99318   -1029.7751    134364.08   -40935.648    2712.2496   -43647.898    21.415002   0.92951545 
   14900    216.46729   -905.72589    134351.21   -41008.862    2693.2646   -43702.127     21.55298   0.92960454 
   15000    213.76357   -893.65037    134438.17   -40993.391    2659.6252   -43653.017    21.485666   0.92900319 
   15100    211.48036   -989.61389    134453.84   -41015.573    2631.2177    -43646.79    21.539497   0.92889496 
   15200    218.62912   -946.12715    134457.02   -40951.968    2720.1618    -43672.13     21.72176   0.92887297 
   15300    215.17824   -985.76294    134339.09   -40972.643    2677.2264    -43649.87     21.68118   0.92968841 
   15400    220.36262   -966.63857    134272.28   -40972.381      2741.73   -43714.111    21.828324   0.93015098 
   15500    217.06493   -933.16891    134228.12   -40961.545    2700.7004   -43662.245    21.584844   0.93045695 
   15600    220.19423    -915.9375    134224.79   -40888.793    2739.6349   -43628.428    21.656219   0.93048008 
   15700    216.72321   -1099.5787    134222.74   -40971.952    2696.4488   -43668.401    21.829908   0.93049428 
   15800    213.09193    -963.1676    134001.86   -40974.182    2651.2688    -43625.45     21.87618   0.93202807 
   15900    217.26816   -799.44596    134044.85   -41008.854     2703.229   -43712.083    22.001986   0.93172911 
   16000     216.7343   -1050.3707       134230   -40928.382    2696.5868   -43624.969    22.086701   0.93044394 
   16100     221.3428    -1017.712    133955.97   -40870.322    2753.9253   -43624.247    22.165282    0.9323473 
   16200    216.13144   -967.47465    134034.28   -40921.173     2689.086   -43610.259    22.330933   0.93180263 
   16300    215.35934   -814.00747    134195.06   -40931.292    2679.4796   -43610.771    22.188217   0.93068621 
   16400    218.07467   -944.97587    134343.35   -40829.234    2713.2635   -43542.498    22.370127   0.92965891 
   16500    224.82343   -970.11601    134369.18   -40833.319    2797.2309    -43630.55    22.392403   0.92948022 
   16600    224.43566   -999.11374    134491.96   -40837.174    2792.4063   -43629.581    22.447363   0.92863166 
   16700    219.31112    -892.9018    134480.36   -40871.085    2728.6473   -43599.733    22.486038   0.92871176 
   16800    225.20644   -925.72683     134385.9    -40874.77    2801.9963   -43676.766    22.457198   0.92936458 
   16900    225.64124   -881.02917    134430.58   -40837.444     2807.406    -43644.85    22.575611   0.92905566 
   17000    224.93392   -936.28237    134512.42   -40865.525    2798.6056   -43664.131    22.743624   0.92849039 
   17100    222.43265   -915.67453    134309.41     -40801.5     2767.485   -43568.985    22.861478    0.9298938 
   17200    222.96516   -933.71805    134351.86   -40824.942    2774.1104   -43599.052     22.82375   0.92959999 
   17300    225.03815   -972.31779    134319.52   -40904.351    2799.9024   -43704.253    22.754102   0.92982385 
   17400    217.84224    -976.5314    134399.09   -40938.833    2710.3716   -43649.205    22.956277   0.92927334 
   17500    221.25441   -962.56202    134457.75   -40928.515    2752.8255    -43681.34    23.103182   0.92886792 
   17600    222.61795   -991.19047    134642.19   -40908.703    2769.7906   -43678.494    23.014331   0.92759551 
   17700    224.86909   -976.43681    134500.58   -40943.747     2797.799   -43741.546    22.901685   0.92857213 
   17800    220.30411   -893.63219    134621.28   -40962.114     2741.002   -43703.116    22.999418   0.92773956 
   17900    225.06984   -1066.9564    134491.16   -40941.349    2800.2967   -43741.645    23.175821   0.92863718 
   18000    222.34921   -932.13202    134377.07   -40898.513    2766.4469    -43664.96    23.215729   0.92942564 
   18100    222.75805   -920.07193    134433.67   -41000.921    2771.5337   -43772.455    23.319238   0.92903429 
   18200    222.99267   -878.33858    134404.23   -41011.452    2774.4528   -43785.905    23.334737   0.92923778 
   18300    227.72233    -890.1248    134594.81   -40927.307    2833.2987   -43760.605    23.218677   0.92792202 
   18400    223.53102   -968.16935    134577.66   -40997.061    2781.1508   -43778.212    23.231342   0.92804031 
   18500    221.17528   -976.44073    134498.52   -40965.932     2751.841   -43717.773    23.321098   0.92858633 
   18600    222.56886    -1018.586    134513.93   -41027.122    2769.1798   -43796.302    23.450484   0.92847996 
   18700    218.92126   -1139.5929    134565.84   -40997.518    2723.7967   -43721.315    23.822329    0.9281218 
   18800    219.20725   -954.05606    134609.44    -40960.75     2727.355   -43688.105     23.84769   0.92782119 
   18900    224.93074   -996.70981    134635.64   -41003.138    2798.5661   -43801.704    23.706416   0.92764063 
   19000    222.01326   -860.78284    134644.42   -40986.057     2762.267   -43748.324    23.671542   0.92758017 
   19100    218.01598   -963.91896    134747.73   -41043.153    2712.5332   -43755.686    23.816332   0.92686898 
   19200    218.88861   -936.32095    134752.51   -41020.674    2723.3904   -43744.064    23.902869   0.92683609 
   19300    223.71737   -975.82781    134952.88   -40966.986    2783.4694   -43750.455     23.95806   0.92545996 
   19400    220.38697   -948.29899    134947.71   -40994.762    2742.0329   -43736.795    24.120367   0.92549544 
   19500    219.82544    -1047.793    135004.95   -40997.051    2735.0464   -43732.097    24.152031   0.92510307 
   19600    227.52644   -910.94728    135243.42   -41038.566    2830.8614   -43869.427    24.336205   0.92347184 
   19700    223.87765   -797.34658    135142.04   -41022.944    2785.4636   -43808.408    24.353432   0.92416462 
   19800    222.56388   -1041.4665    135171.16   -41055.642    2769.1178    -43824.76     24.31389    0.9239655 
   19900    224.34893   -992.89689     135233.4   -41066.211    2791.3272   -43857.538    24.477758   0.92354025 
   20000    223.51021   -962.04176    135005.99   -41109.585    2780.8919   -43890.477    24.503903   0.92509593 
   20100    223.20256   -923.00134    135034.18   -41070.034    2777.0642   -43847.099    24.484384    0.9249028 
   20200    216.79985   -852.72273    135050.62   -41111.444    2697.4024   -43808.847    24.601112    0.9247902 
   20300    213.25217    -1118.584    135100.09   -41134.898    2653.2624   -43788.161    24.470866    0.9244516 
   20400    217.87836   -838.77462    135093.07   -41114.639     2710.821    -43825.46    24.485759   0.92449961 
   20500     220.8366   -1084.3761    134845.93   -41085.647    2747.6272   -43833.274    24.556072   0.92619398 
   20600    216.42913   -889.97486     134947.7   -41123.689    2692.7898   -43816.478    24.670345   0.92549548 
   20700    222.61986   -1019.8564    134882.61   -41068.192    2769.8143   -43838.006    24.790667   0.92594213 
   20800    217.92868   -1028.4048    134919.24   -41068.766    2711.4471   -43780.213    24.816388   0.92569072 
   20900    216.17497   -896.25333    134789.63    -41113.15    2689.6276   -43802.778    24.823448   0.92658085 
   21000    214.53769   -839.08967    135048.35     -41196.8    2669.2567   -43866.057    24.785449   0.92480578 
   21100    216.09328   -873.34989    135061.52   -41213.387    2688.6112   -43901.998    24.819147   0.92471556 
   21200    219.91471   -917.52062    135227.48   -41180.888    2736.1571   -43917.045    25.015465   0.92358074 
   21300    218.88658   -929.89834    135183.56   -41187.189    2723.3652   -43910.554    25.021971   0.92388075 
   21400    217.83225   -1017.5672    135325.21   -41155.435    2710.2473   -43865.682    25.140204   0.92291374 
   21500    220.08104   -955.35448    135203.05   -41143.901    2738.2265   -43882.127    25.131742   0.92374761 
   21600    220.28094   -839.91528     135249.2   -41092.628    2740.7137   -43833.341    25.110014   0.92343241 
   21700    222.44755   -975.51102    135375.63   -41073.219    2767.6705   -43840.889    25.203023   0.92256999 
   21800    222.21767   -962.02987    135289.06   -41073.067    2764.8103   -43837.878    25.250989   0.92316033 
   21900    220.91601   -1066.7875    135190.14   -41104.689    2748.6152   -43853.304    25.230989    0.9238358 
   22000    217.47246   -991.98302    135207.67   -41135.016    2705.7708   -43840.787    25.333791     0.923716 
   22100    222.71278   -837.76221    135359.92    -41073.36    2770.9704    -43844.33    25.433237   0.92267705 
   22200    219.74547   -921.53756    135379.09   -41102.609    2734.0514   -43836.661    25.527972   0.92254638 
   22300    219.57139   -762.15746    135352.66   -41087.734    2731.8855    -43819.62    25.620853   0.92272656 
   22400    220.35734   -872.55499    135372.77   -41055.506    2741.6643    -43797.17    25.504215   0.92258945 
   22500    222.62535   -981.10421       135320   -41059.527    2769.8826   -43829.409    25.621204   0.92294926 
   22600     222.3546   -1024.9617    135311.56   -41030.472    2766.5139   -43796.986    25.680935   0.92300684 
   22700    220.83126   -917.25226    135184.52   -41044.424    2747.5607   -43791.985    25.916964   0.92387418 
   22800    222.12076     -887.374    135366.71   -41015.547    2763.6046   -43779.151    25.752611   0.92263079 
   22900    221.47735   -1032.4945    135392.01   -41063.522    2755.5993   -43819.121    25.753094   0.92245836 
   23000    219.59025   -858.77222    135500.86   -41042.613    2732.1202   -43774.734    25.873186   0.92171732 
   23100    220.61795   -988.98193    135467.89   -41141.954    2744.9068   -43886.861    25.807973   0.92194169 
   23200    220.25708   -946.51735     135509.7   -41084.797    2740.4168   -43825.214    25.781394   0.92165718 
   23300    217.90397   -1037.3866    135343.93    -41135.86    2711.1396       -43847     25.77311   0.92278602 
   23400    224.00789   -950.83306    135121.24   -41071.436     2787.084    -43858.52    25.866555   0.92430689 
   23500    220.50947   -1081.5273    135119.25   -41112.964     2743.557   -43856.521    25.923464   0.92432049 
   23600    219.53172   -1000.4735    135256.07   -41098.643     2731.392   -43830.035      26.0085   0.92338547 
   23700    222.66723   -933.04543    135048.45   -41139.695    2770.4037   -43910.099    25.983978    0.9248051 
   23800    218.36794   -1105.8607    134967.03   -41207.859    2716.9123   -43924.771    25.798219   0.92536299 
   23900    217.69194   -1004.2322    135079.47    -41223.65    2708.5016   -43932.152    25.821809   0.92459272 
   24000    217.63957   -1028.9004    135057.72   -41157.062      2707.85   -43864.912    26.022239   0.92474157 
   24100    220.83266   -987.69244    134964.11   -41158.081    2747.5782   -43905.659     25.92181   0.92538296 
   24200    217.47437   -854.67149    135167.59   -41212.235    2705.7946   -43918.029    25.918463    0.9239899 
   24300    216.65409   -951.14509    135161.48   -41172.007    2695.5887   -43867.596     25.74756   0.92403168 
   24400    217.06903   -966.16769    135228.34   -41209.462    2700.7514   -43910.214    25.974023   0.92357482 
   24500     220.7096   -904.20473    135259.72   -41151.223     2746.047    -43897.27     26.20735   0.92336053 
   24600     221.3967   -826.82414    135219.52   -41147.333    2754.5958   -43901.929    26.216833   0.92363508 
   24700    219.33453   -975.35299    135416.85   -41174.233    2728.9385   -43903.172    26.231239   0.92228914 
   24800    219.95343   -972.67028    135241.14    -41181.25    2736.6389   -43917.889    26.078231    0.9234874 
   24900    218.24218   -857.23725    135295.68   -41133.064    2715.3476   -43848.412    26.199387   0.92311518 
   25000    219.79938   -1061.6128    135172.66   -41122.671    2734.7221   -43857.393    26.300016   0.92395524 
   25100    218.87037   -932.97302    135099.64   -41120.058    2723.1634   -43843.221    26.186613   0.92445466 
   25200    218.23991   -932.45291    135240.12   -41167.017    2715.3194   -43882.337    26.304218   0.92349442 
   25300    223.17383   -987.36162    135357.61   -41170.992    2776.7067   -43947.699     26.32325   0.92269276 
   25400     220.3686   -864.73883    135317.53   -41155.686    2741.8044    -43897.49    26.378903   0.92296607 
   25500    221.66515   -1063.1773    135377.92   -41097.579    2757.9359   -43855.515    26.443868   0.92255435 
   25600    216.12206    -878.1058    135193.26   -41184.119    2688.9693   -43873.088    26.395868    0.9238145 
   25700    214.76821   -1097.0311    135322.81   -41194.477    2672.1248   -43866.602    26.385481   0.92293007 
   25800    219.96262   -1067.1363    135474.77   -41169.321    2736.7532   -43906.075    26.377899   0.92189484 
   25900    218.67488   -954.07893    135646.44   -41131.653    2720.7312   -43852.384    26.541451   0.92072814 
   26000    221.42338     -1046.12    135583.17   -41058.328    2754.9278   -43813.255    26.518539   0.92115781 
   26100     222.7384   -925.86024    135581.17   -41137.047    2771.2892   -43908.336    26.619164   0.92117136 
   26200    218.36754   -1028.1421    135565.18   -41126.765    2716.9073   -43843.672    26.617059   0.92128004 
   26300    220.78094   -1001.0217    135562.11   -41106.535    2746.9347    -43853.47    26.721048   0.92130085 
   26400    221.11908   -932.09376    135388.47   -41100.472    2751.1417   -43851.614    26.668015   0.92248249 
   26500     221.3179   -805.29415    135373.87   -41166.973    2753.6154   -43920.589    26.864248   0.92258195 
   26600    216.27449   -853.01903    135416.07   -41201.645    2690.8658   -43892.511    27.049946   0.92229449 
   26700    212.22463   -857.44382    135598.73   -41211.768    2640.4779   -43852.246    27.118449    0.9210521 
   26800    220.30205   -987.96858    135683.92    -41144.42    2740.9764   -43885.396    27.035381   0.92047377 
   26900    223.48354   -937.68748    135408.35   -41150.463    2780.5602   -43931.023    27.003624   0.92234705 
   27000    218.15405   -912.46844    135368.12   -41193.639    2714.2512    -43907.89    27.122558   0.92262117 
   27100    220.86572   -945.18782    135406.98   -41206.633    2747.9895   -43954.623    27.231369   0.92235638 
   27200    216.57348   -1106.1297    135544.62   -41228.999    2694.5858   -43923.585     27.45608   0.92141976 
   27300    216.67841    -1099.588       135494    -41259.68    2695.8914   -43955.571    27.573699   0.92176402 
   27400    218.09029   -995.21608    135452.66   -41211.199    2713.4579   -43924.657    27.578302   0.92204534 
   27500    223.04693   -847.53717    135499.66   -41146.502    2775.1279    -43921.63    27.550855   0.92172549 
   27600    222.81702   -842.16193    135621.32   -41183.667    2772.2674   -43955.934    27.776003   0.92089869 
   27700    222.22351   -1043.8422    135528.58   -41197.894     2764.883   -43962.777    27.637216   0.92152883 
   27800     220.8425   -801.46911    135595.43   -41124.364    2747.7006   -43872.065    27.676819   0.92107451 
   27900     225.2075   -847.06389    135607.82   -41150.575    2802.0095   -43952.585    27.532882   0.92099031 
   28000    222.69804   -870.63937    135597.61   -41198.005     2770.787   -43968.792      27.6586   0.92105965 
   28100    222.95674   -1083.4168     135702.7   -41192.801    2774.0058   -43966.807    27.765968   0.92034637 
   28200    221.73687   -1091.8523    135712.07   -41251.183    2758.8282   -44010.011    27.816546   0.92028283 
   28300    219.43955   -1005.4404    135591.67   -41236.824    2730.2452   -43967.069     27.89338   0.92110006 
   28400    214.95501   -897.31661    135573.26   -41278.448     2674.449   -43952.897    27.911701    0.9212251 
   28500    214.33547   -884.20489     135692.6   -41304.164    2666.7408   -43970.905    27.766707    0.9204149 
   28600    219.32339   -986.37003    135547.65   -41259.015       2728.8   -43987.815    27.665534   0.92139915 
   28700     219.7792   -967.57879    135507.22   -41263.812    2734.4711   -43998.283    27.740013   0.92167405 
   28800    219.03625    -1036.845    135421.98    -41223.88    2725.2274   -43949.108    27.739968   0.92225423 
   28900    221.34029   -934.96258    135470.04   -41178.061     2753.894   -43931.955    27.685051   0.92192704 
   29000    218.41196   -1029.8924    135520.31   -41246.236      2717.46   -43963.696    27.829059   0.92158505 
   29100     218.3609   -948.97904    135597.55   -41180.916    2716.8247    -43897.74    27.884243    0.9210601 
   29200    222.44733   -943.41905     135607.5   -41156.297    2767.6677   -43923.965    27.897308   0.92099249 
   29300    220.75118   -937.35281    135539.45    -41227.44    2746.5644   -43974.005    28.002954   0.92145491 
   29400    217.63424   -852.06019    135540.99   -41281.327    2707.7838   -43989.111    28.015491   0.92144442 
   29500    213.35892   -957.31055    135365.32   -41323.728    2654.5905   -43978.318     28.09346   0.92264024 
   29600    221.15312   -837.03678    135413.89   -41239.854    2751.5652   -43991.419    28.122316   0.92230929 
   29700    220.56649     -938.853    135393.79   -41294.522    2744.2665   -44038.789    27.875039   0.92244626 
   29800    219.39215   -1048.5235    135417.24   -41268.054    2729.6554   -43997.709    28.198885    0.9222865 
   29900    216.65149    -900.5745    135443.96    -41290.14    2695.5564   -43985.697     28.17269   0.92210453 
   30000    221.28191   -793.49822    135271.25   -41269.257    2753.1677   -44022.424    28.043433   0.92328187 
   30100     219.3551   -945.01801    135270.66    -41264.16    2729.1945   -43993.354    28.089186   0.92328591 
   30200    218.29664   -1028.4077    135273.27   -41270.691    2716.0252   -43986.716     28.27671    0.9232681 
   30300    218.36997   -979.86856     135363.9   -41235.974    2716.9376   -43952.911    28.398602   0.92264989 
   30400    219.56213   -909.42934    135494.93   -41203.143    2731.7703   -43934.913    28.406892   0.92175768 
   30500    222.10896    -890.8275    135495.75   -41209.223    2763.4578   -43972.681    28.358921   0.92175213 
   30600    219.50093   -1007.5197    135607.73   -41197.191    2731.0089     -43928.2    28.422507   0.92099093 
   30700    217.44287   -1064.2296    135507.82   -41212.643    2705.4027   -43918.046    28.249928      0.92167 
   30800    220.70834   -878.13189    135491.29   -41151.452    2746.0314   -43897.483    28.094796   0.92178241 
   30900     220.3485   -1058.3353     135517.2   -41267.081    2741.5543   -44008.635    28.174082   0.92160618 
   31000    221.47365   -903.84165    135419.15   -41299.921    2755.5532   -44055.474    28.347993    0.9222735 
   31100    216.90217   -940.14273    135441.22   -41293.672    2698.6753   -43992.347    28.592176   0.92212323 
   31200    215.58508   -888.76486    135471.28   -41302.253    2682.2883   -43984.541    28.339833   0.92191858 
   31300     219.7215   -843.21397    135572.95   -41267.815    2733.7532   -44001.568     28.25647   0.92122724 
   31400    221.53763   -1072.1658    135668.57   -41220.362    2756.3493   -43976.711    28.484791   0.92057791 
   31500     217.6492   -1029.7604    135555.36   -41272.015    2707.9699   -43979.985    28.483505   0.92134675 
   31600    221.74319   -1017.8973    135652.37   -41207.708    2758.9069   -43966.615    28.655086   0.92068787 
   31700    221.19531   -864.61211    135692.36   -41242.606    2752.0902   -43994.696    28.557374   0.92041651 
   31800     221.4942    -986.7762    135820.75   -41175.612    2755.8089   -43931.421    28.700701   0.91954646 
   31900    219.91441   -1078.3493    135721.96   -41166.412    2736.1534   -43902.565    28.573235   0.92021577 
   32000     217.6277   -948.39291    135831.85   -41145.092    2707.7023   -43852.794    28.746985   0.91947135 
   32100    223.63822   -936.55563    135789.86   -41158.929    2782.4847   -43941.414    28.903255   0.91975566 
   32200    221.61472   -924.52078    135680.51   -41158.595    2757.3084   -43915.903    28.891122    0.9204969 
   32300    222.87867   -1098.0315    135593.47   -41133.569    2773.0343   -43906.603    29.066583   0.92108778 
   32400    218.23209    -951.9238    135539.44   -41189.324    2715.2221   -43904.546     28.95149   0.92145495 
   32500    217.40646   -923.09277    135470.51   -41192.634    2704.9497   -43897.584    28.849743   0.92192385 
   32600    219.86578   -848.69303    135466.92   -41139.999    2735.5484   -43875.547    28.941387   0.92194828 
   32700    217.67149   -1014.2385    135560.39   -41196.104    2708.2471   -43904.351     29.14957   0.92131258 
   32800    217.27482   -1128.6792    135482.06   -41236.312    2703.3118   -43939.624    29.156315   0.92184521 
   32900    218.77361   -934.01808    135546.08    -41223.61    2721.9596    -43945.57     29.13585   0.92140986 
   33000    214.69999   -916.16482    135583.77   -41269.446     2671.276   -43940.723    29.307979   0.92115372 
   33100    217.82929   -989.22788    135639.05   -41202.256    2710.2105   -43912.466    29.317705   0.92077831 
   33200    220.15528   -899.50953    135541.01   -41238.049    2739.1502   -43977.199     29.19415   0.92144428 
   33300     221.5562    -777.0595    135701.23   -41173.218    2756.5803   -43929.798    29.434469    0.9203564 
   33400    217.86965   -934.46699    135618.14   -41268.364    2710.7127   -43979.077    29.518366   0.92092023 
   33500    221.34355   -1081.7185    135701.87   -41226.546    2753.9346    -43980.48    29.457551   0.92035201 
   33600      221.204   -945.27182    135593.74   -41197.456    2752.1982   -43949.654    29.462475   0.92108594 
   33700     219.1587   -957.30924    135484.87   -41196.064    2726.7509   -43922.815    29.437442   0.92182613 
   33800    217.40726   -1104.8413    135606.44   -41202.477    2704.9597   -43907.437    29.444063   0.92099972 
   33900     219.6115   -885.36902    135512.44   -41207.663    2732.3846   -43940.047     29.42153   0.92163855 
   34000    223.49696    -891.5826    135555.74   -41180.942    2780.7271   -43961.669    29.500687   0.92134417 
   34100    225.09056   -755.54136    135505.37    -41215.58    2800.5545   -44016.135    29.557483   0.92168665 
   34200     221.3759   -990.87301    135322.04   -41229.198     2754.337   -43983.535    29.594724   0.92293533 
   34300    218.71952   -924.08222    135335.04   -41287.287    2721.2867   -44008.574    29.424826   0.92284666 
   34400     221.7441     -980.229     135373.3   -41211.577    2758.9181   -43970.495    29.536588   0.92258587 
   34500    218.57287   -1046.2191    135347.96   -41228.244     2719.462   -43947.706    29.447484   0.92275857 
   34600     221.9237   -972.20964    135491.34   -41207.788    2761.1527   -43968.941    29.607978   0.92178208 
   34700    216.44792    -1005.736    135446.84   -41279.671    2693.0237   -43972.695    29.690299   0.92208493 
   34800    215.23514   -1021.6068    135444.02   -41252.125    2677.9343   -43930.059    29.782806   0.92210416 
   34900    217.04949   -996.94955    135523.98   -41257.107    2700.5083   -43957.615    29.658966    0.9215601 
   35000     215.2699   -1069.2923    135607.84   -41320.977    2678.3669   -43999.344    29.734136   0.92099017 
   35100    218.36891   -931.60515    135584.78   -41260.933    2716.9243   -43977.858    29.699106   0.92114686 
   35200    218.61786   -905.18727    135684.21    -41261.08    2720.0218   -43981.102    29.745953   0.92047179 
   35300    219.81678   -928.76284    135672.72   -41241.746    2734.9386   -43976.685    29.735157   0.92054976 
   35400    220.73931   -968.67979    135657.19   -41267.743    2746.4167   -44014.159     29.82901   0.92065516 
   35500    223.44664   -969.01383    135617.16   -41160.459     2780.101    -43940.56    29.923006   0.92092688 
   35600    220.18487   -977.73227    135748.69   -41203.597    2739.5184   -43943.115    29.948934   0.92003462 
   35700    221.62364   -814.73457    135783.58   -41158.429    2757.4194   -43915.849    30.169862   0.91979818 
   35800    221.77995   -1002.1107    135704.71    -41195.13    2759.3642   -43954.494    29.931189   0.92033274 
   35900    222.37895   -913.34952    135686.31   -41150.751    2766.8169   -43917.567    30.071986   0.92045759 
   36000    223.34047   -1141.8227    135728.63   -41125.693    2778.7801   -43904.473    30.099648   0.92017054 
   36100    223.63992   -964.62971    135719.65   -41159.356    2782.5057   -43941.862    30.135466   0.92023143 
   36200    219.26264   -857.38411    135633.11   -41196.303    2728.0441   -43924.347     30.25412   0.92081859 
   36300    216.76429   -773.54978    135735.86   -41256.843    2696.9599   -43953.802    30.469555   0.92012155 
   36400    220.55254   -871.29521    135708.08    -41205.93    2744.0928   -43950.023    30.393663   0.92030992 
   36500    217.10225   -836.98318    135677.74   -41172.737    2701.1647   -43873.902    30.466669   0.92051569 
   36600    216.91284   -1092.6149    135605.62   -41279.517    2698.8082   -43978.326    30.527622   0.92100527 
   36700    219.60567   -982.75297    135590.68   -41228.145     2732.312   -43960.457    30.352329   0.92110672 
   36800    219.34009   -901.57963    135620.98   -41224.884    2729.0077   -43953.891    30.501043   0.92090096 
   36900    219.85715   -957.90609    135643.86   -41243.336     2735.441   -43978.777    30.676696   0.92074561 
   37000    223.66454   -990.87623    135588.07   -41190.458     2782.812    -43973.27    30.753153   0.92112448 
   37100    223.28517   -985.35239     135529.9   -41177.813     2778.092   -43955.905    30.826665   0.92151983 
   37200    218.93746   -979.87079    135401.82   -41240.174    2723.9982   -43964.172    30.772368   0.92239151 
   37300    217.98515   -902.02479    135450.34   -41259.171    2712.1496   -43971.321    30.715888   0.92206109 
   37400    214.35213   -1003.3685    135545.67   -41296.264     2666.948   -43963.212    30.804521    0.9214126 
   37500    219.90855   -1030.7483    135413.34   -41306.533    2736.0804   -44042.613    30.785415   0.92231307 
   37600    216.51117   -911.92114    135453.38   -41256.653    2693.8106   -43950.464    30.919771   0.92204042 
   37700    218.38416   -935.98588    135518.82   -41266.198    2717.1141   -43983.312     30.96107   0.92159521 
   37800    213.97184   -836.90155    135401.99   -41366.028    2662.2165   -44028.245    30.960152   0.92239033 
   37900     214.9902   -931.72557    135582.06   -41311.748    2674.8868   -43986.635    31.151648    0.9211653 
   38000    217.29012    -1015.286    135794.66   -41279.904    2703.5022   -43983.406    31.076856   0.91972317 
   38100    221.31446   -912.30074    135725.51   -41234.914    2753.5727   -43988.487    31.132791   0.92019176 
   38200    215.20588   -990.48221    135775.18   -41244.052    2677.5703   -43921.622    31.295654   0.91985509 
   38300    224.03317   -858.04476    135878.88   -41193.608    2787.3985   -43981.007    31.334685   0.91915305 
   38400    223.59319   -927.68293    135729.62   -41256.327    2781.9244   -44038.251    31.252623   0.92016388 
   38500    221.35866   -866.25361     135830.4   -41270.674    2754.1226   -44024.796     31.22958   0.91948113 
   38600     220.9557   -916.74313    135957.68   -41220.994     2749.109   -43970.103    31.212913   0.91862035 
   38700    219.93214   -1052.1842    135920.84   -41238.327    2736.3739   -43974.701    31.323583   0.91886932 
   38800    220.04742   -812.27505       135956   -41261.509    2737.8082   -43999.317    31.444446    0.9186317 
   38900    223.59616   -790.22491    136003.31   -41223.512    2781.9613   -44005.474    31.616449   0.91831217 
   39000     213.8737   -1007.2012    135963.59   -41262.804    2660.9954   -43923.799    31.485298   0.91858039 
   39100    215.36896   -953.04749    136049.56   -41227.345    2679.5994   -43906.945    31.604868   0.91799999 
   39200    215.38178   -939.31022     135964.4   -41258.472    2679.7588    -43938.23    31.544491   0.91857493 
   39300    219.46504   -1038.3039    135774.94     -41252.7    2730.5624   -43983.262    31.499374   0.91985671 
   39400    222.44296   -889.00722    135783.95   -41214.267    2767.6133    -43981.88    31.503864   0.91979569 
   39500    219.92395   -970.94204    135829.64   -41187.835     2736.272   -43924.107    31.285155    0.9194863 
   39600    219.35097   -1024.5124    135920.01   -41227.013     2729.143   -43956.156    31.412358   0.91887497 
   39700    223.55245   -1020.0971    136081.88   -41180.831    2781.4175   -43962.248    31.529415   0.91778192 
   39800    218.83509   -1085.6954    135989.04   -41245.181    2722.7246   -43967.906    31.470346   0.91840851 
   39900    219.16412    -1009.987    135971.19   -41295.734    2726.8183   -44022.552    31.686925   0.91852908 
   40000    214.33726   -970.61257    135759.23   -41325.386     2666.763   -43992.149    31.374109   0.91996316 
   40100    220.59415   -1018.5044     135693.1   -41224.717    2744.6106   -43969.327    31.350384    0.9204115 
   40200    221.66329   -841.01655    135755.36   -41247.826    2757.9128   -44005.739    31.572657   0.91998938 
   40300    220.65464   -985.76689    135727.66    -41224.46    2745.3632   -43969.823    31.478084   0.92017712 
   40400    228.01303    -919.5549    135605.85   -41149.157    2836.9155   -43986.073    31.357383   0.92100369 
   40500    222.98252   -870.98994    135696.26    -41164.33    2774.3265   -43938.656    31.481518   0.92039007 
   40600    223.28158   -1036.7646    135752.63   -41199.244    2778.0473   -43977.292    31.621484   0.92000791 
   40700    219.33428   -933.88952     135666.3   -41248.575    2728.9355    -43977.51    31.744092   0.92059331 
   40800    218.92848   -972.57722    135585.32   -41305.228    2723.8865   -44029.115    31.403829   0.92114314 
   40900    214.68725   -940.94857    135542.49   -41322.954    2671.1175   -43994.071    31.587664   0.92143427 
   41000    217.29196   -989.28295    135543.21   -41221.697    2703.5251   -43925.222    31.637403   0.92142932 
   41100    224.75695   -950.68219    135481.47   -41193.186    2796.4037    -43989.59    31.828054   0.92184927 
   41200    221.56184   -949.64833    135500.99   -41216.183    2756.6505   -43972.833    31.603728   0.92171645 
   41300    215.93507   -982.78208    135445.29   -41371.869    2686.6428   -44058.512    31.585063   0.92209552 
   41400    215.01334   -953.51556     135554.6   -41306.326    2675.1747     -43981.5    31.649833   0.92135194 
   41500    213.19063   -1113.2698    135591.58   -41303.471    2652.4967   -43955.967     31.47806   0.92110062 
   41600    218.12932   -1025.9785    135548.84   -41263.576    2713.9434   -43977.519    31.673472    0.9213911 
   41700    218.90594   -1092.9252     135430.9   -41230.508    2723.6061   -43954.114    31.606415   0.92219348 
   41800    217.02435   -1013.1671     135475.1   -41236.167    2700.1955   -43936.362    31.712313   0.92189258 
   41900    222.65617   -871.08962     135734.7   -41199.467    2770.2661   -43969.733    32.034148   0.92012945 
   42000    221.78732   -926.50969    135816.69   -41200.508     2759.456   -43959.964    32.036771   0.91957394 
   42100    222.00549   -1094.4563    135873.42   -41197.918    2762.1704   -43960.088    31.974604   0.91919002 
   42200    222.13214   -834.01657    135868.19   -41152.414    2763.7462    -43916.16    31.938866   0.91922543 
   42300     220.5866   -943.37437    135767.66   -41135.186    2744.5167   -43879.702    31.970205   0.91990606 
   42400    218.34796   -1002.5313    135867.73    -41165.35    2716.6638   -43882.014    32.087624   0.91922854 
   42500    224.33157   -975.41171    135823.89   -41171.427    2791.1112   -43962.538    32.074132   0.91952521 
   42600    219.59803   -777.66533    135938.06    -41174.94     2732.217   -43907.157    32.265133   0.91875295 
   42700    222.87404   -1024.0396    136017.17   -41175.217    2772.9767   -43948.194    32.006879    0.9182186 
   42800    229.45888   -846.62988     135873.5   -41127.275    2854.9047    -43982.18    32.046309   0.91918944 
   42900    218.15766   -951.00323    136015.76   -41206.159    2714.2961   -43920.455    32.412778   0.91822812 
   43000    218.59573    -871.8927    136119.72   -41230.518    2719.7465   -43950.265    32.439214    0.9175268 
   43100    219.49707   -913.46166    136176.54   -41214.528    2730.9608   -43945.488    32.418203   0.91714398 
   43200    215.98876   -888.35813    136334.96    -41168.33    2687.3108    -43855.64    32.361927   0.91607822 
   43300     218.4112   -1012.8672    136161.46   -41184.663    2717.4505   -43902.113    32.330351   0.91724552 
   43400    220.13991   -992.08336    136111.95   -41138.275     2738.959   -43877.234    32.565494   0.91757919 
   43500    221.57226   -1027.5903    136153.73   -41143.246    2756.7801   -43900.026    32.539751   0.91729761 
   43600    223.97329   -943.23299    136103.52   -41057.962    2786.6535   -43844.615    32.369338   0.91763603 
   43700     225.8243   -1036.2352    136105.52   -41081.306    2809.6836    -43890.99    32.514442   0.91762254 
   43800    226.35638   -894.95147     135809.5   -41088.831    2816.3037   -43905.135    32.575049   0.91962266 
   43900    225.28045   -872.28164    135902.96   -41128.025    2802.9171   -43930.942    32.654496   0.91899022 
   44000    216.10888   -1041.9772    135864.27   -41156.169    2688.8054   -43844.974     32.72162   0.91925193 
   44100    217.86746   -809.48734     135878.5   -41170.911    2710.6855   -43881.596     32.64757   0.91915565 
   44200    220.62515   -889.21038    136098.54   -41211.434    2744.9963    -43956.43     32.61887   0.91766959 
   44300     219.3336   -862.36086    135880.41   -41226.344     2728.927   -43955.271    32.565509   0.91914274 
   44400    217.91788   -886.60141    135900.18   -41186.487    2711.3127     -43897.8    32.686363   0.91900902 
   44500     216.1288   -958.23885    135824.38   -41223.313    2689.0532   -43912.366    32.876747    0.9195219 
   44600    220.65733   -899.25772    135920.49   -41296.835    2745.3967   -44042.231    32.852793   0.91887171 
   44700    218.99977   -940.76787    136123.15   -41264.793    2724.7734   -43989.566    32.903305   0.91750369 
   44800    216.80584   -1037.7867    135924.81   -41237.405    2697.4769   -43934.882    32.762863   0.91884247 
   44900    221.47501   -989.34153    135884.17   -41198.521    2755.5701   -43954.092    32.903073   0.91911728 
   45000    217.14994   -1007.8561    135871.32   -41184.894     2701.758   -43886.652    32.848535   0.91920423 
   45100    218.30284   -986.28585    135677.88   -41118.759    2716.1023   -43834.861     32.95652   0.92051479 
   45200     220.5073   -979.19075    135795.94    -41181.61      2743.53    -43925.14    32.873193   0.91971449 
   45300    221.42207   -1040.0374    135609.95   -41205.866    2754.9115   -43960.777    32.889667   0.92097588 
   45400    217.59002   -975.54924    135600.87   -41182.197    2707.2335    -43889.43    32.839343   0.92103755 
   45500    221.79435   -958.44012    135541.03   -41191.121    2759.5434   -43950.665    33.044079   0.92144418 
   45600    222.01322   -960.60494    135652.38   -41203.194    2762.2666   -43965.461    32.872343   0.92068781 
   45700    218.03792   -1010.3429    135826.45   -41228.109    2712.8062   -43940.916    32.926239   0.91950787 
   45800    224.35873   -937.40637     135822.8   -41182.979    2791.4491   -43974.429     33.11489   0.91953261 
   45900    221.83081   -910.17933    135958.19   -41122.513     2759.997   -43882.511    33.280482   0.91861687 
   46000    222.30878   -828.40377    135983.01   -41107.296    2765.9439    -43873.24    33.406271   0.91844924 
   46100    225.65718   -949.93139    135852.43   -41068.237    2807.6043   -43875.842    33.346099   0.91933204 
   46200    230.20141   -932.67048    135835.82   -41069.255    2864.1432   -43933.398    33.260287   0.91944443 
   46300    223.92002   -1019.7486    136063.66   -41099.124    2785.9907   -43885.115    33.239797   0.91790485 
   46400    225.75792   -890.26466    136061.23   -41143.247    2808.8578   -43952.105     33.27315    0.9179212 
   46500    221.38111   -944.69995    136193.26   -41163.475    2754.4019   -43917.877    33.422355   0.91703139 
   46600     223.8514    -976.4369    136044.76   -41167.926     2785.137   -43953.063    33.367282   0.91803238 
   46700    219.75583   -1033.6483    135803.79   -41266.859    2734.1803   -44001.039    33.496671   0.91966131 
   46800    217.65389   -1012.7571    135833.52   -41313.749    2708.0281   -44021.777     33.53925   0.91946003 
   46900    220.64249   -965.64869    136055.97   -41234.716     2745.212   -43979.928    33.677025   0.91795673 
   47000    223.56109   -902.70378    136011.17   -41221.696     2781.525   -44003.221    33.678551   0.91825907 
   47100    223.73493   -1045.3103    135918.88    -41199.81    2783.6879   -43983.498    33.667928   0.91888255 
   47200    218.60907   -960.77542    136001.52   -41263.178    2719.9125   -43983.091    33.776814   0.91832425 
   47300    222.20196   -980.92938    135744.44    -41292.62    2764.6148   -44057.235    33.644156   0.92006343 
   47400    225.37002   -968.49217    135849.83    -41260.22    2804.0315   -44064.251    33.757973   0.91934961 
   47500    222.55718    -991.5516    135786.96   -41203.269    2769.0345   -43972.303    33.691892   0.91977527 
   47600    224.14645   -1022.4483    135771.17   -41159.003    2788.8079   -43947.811    33.738827   0.91988226 
   47700    222.02367   -1009.6309    135505.37   -41205.502    2762.3966   -43967.899    33.797474   0.92168668 
   47800    223.24802   -870.74977    135547.04   -41216.275    2777.6298   -43993.905    33.709097   0.92140334 
   47900    220.70191    -1032.015     135634.4   -41296.661    2745.9513   -44042.612    33.690377   0.92080988 
   48000    220.90062    -788.8748    135799.14    -41302.84    2748.4237   -44051.263    33.811341   0.91969281 
   48100    219.84262   -922.67206    135800.31   -41270.767    2735.2602   -44006.027    33.785879   0.91968487 
   48200    220.65679   -934.94167    135854.91   -41305.643      2745.39   -44051.033    33.905692   0.91931526 
   48300    219.13418   -914.67426    135836.24   -41289.956    2726.4458   -44016.402    33.999848   0.91944158 
   48400    226.15062   -927.74535    135668.43   -41212.635    2813.7436   -44026.379    33.868079   0.92057891 
   48500    223.16363   -870.86336    135636.93   -41271.499    2776.5798   -44048.079    33.884896   0.92079266 
   48600    221.10339   -841.07952     135766.3   -41275.286    2750.9465   -44026.232    33.986283   0.91991525 
   48700    223.73766   -899.70015    135792.41   -41234.463    2783.7218   -44018.185    33.895257   0.91973838 
   48800    219.41942   -937.18982    135967.77   -41255.742    2729.9947   -43985.737    33.988543   0.91855219 
   48900    217.96378     -913.416    135860.32   -41251.872    2711.8838   -43963.756    34.256709   0.91927867 
   49000    221.75351   -928.13285    135909.82   -41294.021    2759.0353   -44053.056    34.310539   0.91894382 
   49100    221.64985   -1074.1497    135909.87   -41285.706    2757.7455   -44043.451    34.257144   0.91894352 
   49200    221.71944   -908.29603    135990.83   -41314.624    2758.6113   -44073.235    34.180505    0.9183964 
   49300    220.09453   -975.21595    135933.25   -41266.149    2738.3944   -44004.543    34.332976   0.91878542 
   49400    220.09501   -982.68617    135980.94   -41246.332    2738.4004   -43984.732    34.360939   0.91846324 
   49500    224.16583   -921.88277    136087.81   -41251.654    2789.0491   -44040.703    34.575051   0.91774193 
   49600     219.7601   -917.80159     135995.5   -41251.104    2734.2334   -43985.337    34.600356   0.91836486 
   49700    218.74014   -836.39965    136108.84   -41265.824    2721.5432   -43987.368     34.65432   0.91760015 
   49800    219.02468   -1020.0323    135922.36   -41312.458    2725.0835   -44037.541    34.623162   0.91885907 
   49900    224.20335   -906.80222    135885.93   -41198.498    2789.5159   -43988.014    34.529945   0.91910538 
   50000    219.56628   -1054.6829    135903.24   -41240.819    2731.8219   -43972.641     34.55003   0.91898833 
   50100     220.6969   -946.84997    135875.18   -41255.082    2745.8891   -44000.971    34.658489   0.91917812 
   50200    219.62599   -957.58093     136050.3   -41289.338    2732.5648   -44021.903    34.640142   0.91799494 
   50300    219.84797   -908.05483    135960.42   -41272.523    2735.3267    -44007.85    34.750819   0.91860181 
   50400    222.90478    -1009.849    136056.24   -41298.959    2773.3593   -44072.318    34.686093   0.91795487 
   50500    219.70034   -949.84102    136034.17   -41331.819    2733.4899   -44065.309    34.716639   0.91810381 
   50600    219.64006   -1070.4801    135916.56   -41348.796    2732.7399   -44081.536    34.541973   0.91889828 
   50700    217.11167   -1046.7081    135881.51   -41351.019     2701.282   -44052.301    34.820924   0.91913532 
   50800     217.8177   -916.22645    135959.22   -41339.303    2710.0663   -44049.369    34.753182   0.91860997 
   50900    218.36429   -930.82379    136008.15   -41247.343    2716.8669    -43964.21     34.70592   0.91827946 
   51000    220.05842   -980.08213    136032.95   -41282.909    2737.9451   -44020.855    34.832355   0.91811206 
   51100     217.2752   -986.17515     135887.7   -41317.745    2703.3166   -44021.061    34.877967    0.9190934 
   51200    215.93408   -894.28612    136001.81   -41302.176    2686.6304   -43988.807    35.041102   0.91832229 
   51300    215.10455   -931.20011     136045.3   -41366.806    2676.3095   -44043.116    35.036232   0.91802873 
   51400    220.96839   -907.95085     135989.1   -41373.032    2749.2669   -44122.299    35.060916   0.91840811 
   51500    217.21747   -870.40962     135950.6   -41368.179    2702.5983   -44070.777    34.771199   0.91866816 
   51600    221.22096   -941.46526    135928.14   -41314.851    2752.4093    -44067.26      34.7944      0.91882 
   51700    219.25864   -977.59887    135972.18   -41295.547    2727.9943   -44023.541    34.839449   0.91852237 
   51800    220.76717   -955.94431    135899.42   -41335.033    2746.7633   -44081.796    34.959596   0.91901417 
   51900    218.60354   -871.66769    135985.72   -41369.149    2719.8436   -44088.993    35.121012   0.91843094 
   52000    214.85283   -1029.3392    136058.08   -41389.185    2673.1777   -44062.363    34.968996   0.91794249 
   52100    217.90365   -1022.9845    136088.14   -41333.369    2711.1357   -44044.504    35.075973    0.9177397 
   52200    218.07098   -847.97829    136080.34   -41359.365    2713.2176   -44072.583    35.086854    0.9177923 
   52300     221.0803   -864.30504    135949.36   -41349.414    2750.6593   -44100.073    35.004813   0.91867658 
   52400    217.36739   -1021.6746    135965.06   -41302.343    2704.4636   -44006.806    34.851732    0.9185705 
   52500    218.87445   -996.63696    136055.55   -41300.462    2723.2143   -44023.676    34.975223   0.91795956 
   52600    220.06973   -951.73829    135965.05   -41334.276    2738.0858   -44072.362    35.007303   0.91857057 
   52700    215.90311   -834.27548    135880.02   -41351.601    2686.2451   -44037.846    35.041353    0.9191454 
   52800    218.85958   -1002.8689    135909.95   -41295.033    2723.0293   -44018.062    35.278152   0.91894296 
   52900    217.40265   -1002.9994    135880.97   -41283.828    2704.9023   -43988.731    34.980574   0.91913896 
   53000      221.056   -997.74224    135983.37   -41250.971    2750.3569   -44001.328    34.955004   0.91844681 
   53100    217.50577   -886.08677    136110.15   -41291.568    2706.1853   -43997.754    35.412429   0.91759134 
   53200    220.54959   -1053.2711    136081.67   -41278.735    2744.0562   -44022.791    35.340757   0.91778333 
   53300    220.54035   -902.62538    136020.81   -41279.616    2743.9412   -44023.557    35.167412   0.91819402 
   53400    218.12881   -916.74008    135930.25   -41371.534    2713.9371   -44085.471    35.147222   0.91880569 
   53500    215.52454   -930.13296    135865.66   -41382.779    2681.5351   -44064.314    35.219645   0.91924251 
   53600    214.51034   -973.62054     135962.4   -41380.412    2668.9165   -44049.329     35.32755   0.91858844 
   53700    218.14051   -901.78423    136064.46   -41411.967    2714.0827    -44126.05     35.54652    0.9178994 
   53800    218.47291   -946.27685    136068.58    -41302.82    2718.2183   -44021.038    35.296676   0.91787162 
   53900    217.25376   -953.70623    135965.91   -41357.155    2703.0498   -44060.205    35.280875   0.91856473 
   54000    216.16707   -914.66105    136065.62   -41323.816    2689.5293   -44013.345    35.313069   0.91789159 
   54100     221.4715   -1038.1093    136080.29   -41341.291    2755.5266   -44096.818    35.256693   0.91779266 
   54200    217.65449     -925.314    136039.14   -41320.759    2708.0357   -44028.795    35.289001   0.91807029 
   54300    219.37626    -899.8871     135960.1   -41293.121    2729.4577   -44022.579    35.304041   0.91860398 
   54400    215.51779    -979.2584    135883.71   -41317.687     2681.451   -43999.138    35.476388   0.91912038 
   54500    222.50472   -968.40951    135967.27   -41308.884    2768.3818   -44077.266    35.277002   0.91855556 
   54600    224.31817   -980.66476    135982.16   -41222.734    2790.9445   -44013.678    35.240832   0.91845496 
   54700    223.18004   -964.42383    136214.64   -41238.061     2776.784   -44014.845    35.497063    0.9168874 
   54800    219.40594   -946.01647    136296.28   -41316.341     2729.827   -44046.168    35.539123   0.91633824 
   54900    220.22232   -1071.6163    136313.01   -41364.407    2739.9843   -44104.391    35.765656   0.91622574 
   55000    216.01362   -1037.1496    136248.15    -41427.49    2687.6201    -44115.11    35.775285   0.91666194 
   55100    219.34707   -862.62758    136246.22   -41392.876    2729.0945   -44121.971    35.582093   0.91667494 
   55200     220.7058   -997.69383    136260.23   -41404.159    2745.9998   -44150.159    35.592731   0.91658066 
   55300    219.69473   -904.99448    136203.12   -41359.821    2733.4202   -44093.241    35.649509     0.916965 
   55400    223.20461   -855.59358    136322.94   -41340.441    2777.0897   -44117.531    35.889509   0.91615899 
   55500    219.79104   -837.10948    136149.42   -41281.638    2734.6184   -44016.256    35.801275   0.91732663 
   55600    222.71585   -950.64757    136216.55   -41316.467    2771.0086   -44087.475    35.690406   0.91687455 
   55700    218.58639   -990.28772    136209.26   -41318.155    2719.6303   -44037.785     35.78114   0.91692362 
   55800    219.37343   -1007.3946    136203.09   -41331.563    2729.4225   -44060.985    35.863772   0.91696518 
   55900    221.66449   -991.53629     136121.4   -41302.452    2757.9276    -44060.38    35.865215   0.91751549 
   56000    221.28398    -845.8132    136165.18   -41290.231    2753.1935   -44043.424    36.013752   0.91722049 
   56100    224.10177   -1103.0324    136343.75   -41255.906    2788.2521   -44044.159    35.956879    0.9160192 
   56200    219.75962   -973.06634    136318.44   -41260.329    2734.2275   -43994.556    35.876427   0.91618925 
   56300    222.32752   -961.50472    136333.53   -41298.627     2766.177   -44064.804    36.006726   0.91608787 
   56400     220.7949   -965.19771    136310.12   -41288.454    2747.1083   -44035.563    36.043107   0.91624518 
   56500    218.22333   -894.86756    136287.17   -41370.362    2715.1131   -44085.475    36.093196   0.91639946 
   56600    217.52419   -1069.1259    136144.98   -41383.702    2706.4145   -44090.117    35.983437   0.91735655 
   56700    217.14814   -958.16618    136160.08    -41410.33    2701.7357   -44112.065    35.894454   0.91725485 
   56800    218.97701   -915.42158    136270.85   -41331.121    2724.4903   -44055.611      35.9904    0.9165092 
   56900    223.29305    -926.2798    136346.81   -41309.431    2778.1901   -44087.621    36.247652   0.91599863 
   57000    222.24184   -872.36966     136481.7   -41257.772     2765.111   -44022.883    36.289046   0.91509328 
   57100    217.66925   -1039.0455    136275.49   -41317.893    2708.2193   -44026.112    36.161675   0.91647799 
   57200    216.30686   -996.11609    136425.27   -41355.351    2691.2686   -44046.619     36.28061   0.91547182 
   57300    213.86651   -985.67301    136343.37   -41409.218     2660.906   -44070.124    36.192358   0.91602173 
   57400    219.20854   -929.35031     136072.9   -41424.256     2727.371   -44151.627    36.187267   0.91784253 
   57500    214.30563   -975.87586    136140.11    -41462.13    2666.3695   -44128.499     36.35376   0.91738935 
   57600    218.66622   -843.23761    136014.74   -41419.835    2720.6235   -44140.458     36.33266   0.91823497 
   57700    218.75637   -1121.4672    136150.05   -41456.616    2721.7452   -44178.361    36.354638   0.91732241 
   57800    213.90776   -975.93725    136028.53    -41481.22    2661.4192   -44142.639     36.48041   0.91814189 
   57900    216.33064   -1060.6257       136067   -41452.215    2691.5645   -44143.779    36.550547   0.91788232 
   58000    216.24029   -941.72004    136183.97   -41458.788    2690.4403   -44149.228    36.393112   0.91709394 
   58100    220.85315   -958.10091    136347.74   -41383.685    2747.8331   -44131.518     36.32792   0.91599238 
   58200    220.86068   -968.13271    136363.21   -41339.922    2747.9268   -44087.849    36.391612   0.91588846 
   58300    218.79593   -1040.2873    136396.01   -41281.502    2722.2373   -44003.739     36.51375   0.91566824 
   58400    222.25549   -809.72337    136216.02   -41295.012    2765.2809   -44060.293    36.552459   0.91687816 
   58500    221.50603   -914.11205    136360.59   -41293.473    2755.9561   -44049.429    36.733185   0.91590608 
   58600    222.67795   -904.85209    136424.64    -41257.85     2770.537   -44028.387    36.778581   0.91547603 
   58700     227.9397   -884.05923    136558.15   -41267.847    2836.0033    -44103.85    36.400016   0.91458103 
   58800    223.97351   -952.20257    136586.28   -41325.317    2786.6562   -44111.973    36.466504   0.91439265 
   58900    218.83163   -1017.9776    136361.74   -41389.411    2722.6815   -44112.092    36.496089   0.91589835 
   59000    215.98925   -926.79591    136328.82   -41369.786    2687.3169   -44057.103    36.596785   0.91611953 
   59100    221.90653   -913.56752    136268.41   -41374.117    2760.9391   -44135.057    36.491426   0.91652562 
   59200     220.2489    -1007.855    136253.75   -41394.896     2740.315   -44135.211    36.571682   0.91662426 
   59300    213.50899   -935.71413    136144.55   -41381.705    2656.4578   -44038.162    36.323095   0.91735947 
   59400    217.84328   -865.79155    136311.76   -41432.158    2710.3845   -44142.543    36.758459   0.91623414 
   59500    219.54866   -897.80725    136371.65   -41404.095    2731.6028   -44135.698    36.693818   0.91583181 
   59600    216.19364   -1023.5895    136313.59   -41388.291    2689.8599   -44078.151    36.626756   0.91622186 
   59700    217.65008   -910.76543    136401.89   -41424.359    2707.9807    -44132.34    36.712502   0.91562876 
   59800    214.68946   -979.13426     136535.3   -41424.038     2671.145   -44095.183    36.898227   0.91473405 
   59900    219.37659   -875.75776     136443.9   -41397.643    2729.4619   -44127.105    36.887217   0.91534686 
   60000    216.51802   -984.65035    136479.76   -41431.237    2693.8958   -44125.133    36.926272    0.9151063 
   60100    220.01168   -1053.0967     136461.5   -41394.147    2737.3636    -44131.51    36.903626   0.91522879 
   60200      218.593   -918.87497     136368.1   -41371.977    2719.7125   -44091.689    36.887127   0.91585564 
   60300    220.42036    -883.6837    136410.94   -41333.263    2742.4483   -44075.711    36.842373   0.91556802 
   60400    222.98546   -1040.4054     136363.2   -41294.458     2774.363   -44068.821    36.943658    0.9158885 
   60500    223.66704   -1035.2366    136305.53    -41323.35    2782.8432   -44106.194    36.935714   0.91627605 
   60600     218.1939   -1038.2998       136260   -41379.531     2714.747   -44094.278    36.931074    0.9165822 
   60700    219.08566   -933.84628    136164.73   -41391.371    2725.8422   -44117.213    36.805282   0.91722354 
   60800     223.6074   -840.45701    136183.56   -41344.204    2782.1012   -44126.305    37.022264   0.91709671 
   60900    221.69866   -774.51125    136006.53   -41341.047    2758.3528   -44099.399     36.99729   0.91829039 
   61000    224.58437   -912.86052    136126.91   -41380.618    2794.2566   -44174.874    37.039405   0.91747831 
   61100    218.11535   -929.88434     136116.3   -41412.948    2713.7696   -44126.717    36.807689   0.91754986 
   61200    221.35497   -979.02208     136020.3   -41420.191    2754.0767   -44174.268    36.560726   0.91819746 
   61300    219.39981   -867.09971    136020.64    -41409.76    2729.7508   -44139.511    36.811225   0.91819514 
   61400    218.60848   -934.51622    136118.39   -41431.028    2719.9052   -44150.933    37.043901   0.91753577 
   61500    213.61695   -1039.8283    136092.45   -41425.637     2657.801   -44083.438    37.122612   0.91771068 
   61600    220.10785    -911.9359    136149.41   -41385.612    2738.5601   -44124.172    37.098497   0.91732669 
   61700    216.49703   -1000.9327    136189.86   -41457.407    2693.6347   -44151.041    36.890103   0.91705428 
   61800    210.53267   -941.67455    136180.17   -41517.433    2619.4267    -44136.86    36.739998   0.91711951 
   61900    217.74263   -980.69335    136038.44   -41466.208    2709.1323    -44175.34    36.715045   0.91807501 
   62000    216.71124   -835.30857    135986.89   -41415.965    2696.2998   -44112.265    36.884526   0.91842304 
   62100    218.90786   -944.77512    136133.28   -41433.821      2723.63   -44157.451    37.042351   0.91743541 
   62200    221.53436   -948.21369    136172.76   -41399.383    2756.3086   -44155.691    37.020007    0.9171694 
   62300    220.56841   -1014.1903    135899.66   -41437.328    2744.2903   -44181.619     36.87789   0.91901252 
   62400    219.43261   -803.45078    136071.29   -41376.492    2730.1589   -44106.651    36.816451   0.91785339 
   62500    217.28467    -1076.637    136045.91    -41375.72    2703.4344   -44079.154    36.957989    0.9180246 
   62600    218.65197   -988.26512    135900.68   -41368.391    2720.4462   -44088.837    36.965384   0.91900561 
   62700    215.35728   -827.06853    135997.69   -41390.085     2679.454   -44069.539    37.059742   0.91835006 
   62800    220.13416   -856.46961    136043.11   -41366.476    2738.8875   -44105.363    37.169602   0.91804352 
   62900    221.56555   -1018.6869     135914.6   -41318.354    2756.6967   -44075.051     37.02322   0.91891152 
   63000    221.28495   -980.83522     135775.8   -41268.664    2753.2054    -44021.87     37.15266   0.91985091 
   63100    223.38351   -915.36223    135869.57   -41243.789    2779.3156   -44023.104    37.079258   0.91921607 
   63200    221.48901    -921.9473    135813.95   -41276.678    2755.7444   -44032.422    37.052069   0.91959253 
   63300    221.69255   -798.43281    135823.37   -41312.175    2758.2768   -44070.451    37.213639   0.91952873 
   63400    223.78767   -919.98271    136002.07   -41236.598    2784.3441   -44020.942    37.480558   0.91832054 
   63500    215.21975   -944.08106    136107.99   -41329.445    2677.7429   -44007.188    37.568272   0.91760585 
   63600    217.43492   -906.01421    136115.83   -41336.241    2705.3038   -44041.545    37.496243   0.91755301 
   63700     221.3935   -995.05675     136025.3   -41349.366    2754.5561   -44103.922     37.34254   0.91816371 
   63800     217.3234   -889.89445    136015.51   -41453.694    2703.9163   -44157.611    37.190653   0.91822978 
   63900    215.29418   -872.17527    136146.64     -41445.5     2678.669   -44124.169    37.289054   0.91734539 
   64000    218.34589   -965.32788    136207.08   -41425.857    2716.6379   -44142.495    37.302417   0.91693832 
   64100    219.47985   -1001.2822    136341.37   -41337.449    2730.7466   -44068.195    37.451514   0.91603515 
   64200    221.51173   -875.49597    136230.95    -41340.47     2756.027   -44096.497    37.628747   0.91677767 
   64300    224.14547   -890.13941    136118.01   -41249.136    2788.7958   -44037.932    37.427753   0.91753833 
   64400    223.57571    -983.8784    136081.82   -41290.114    2781.7069   -44071.821    37.337569   0.91778236 
   64500    223.27661    -791.1006    135996.92   -41274.721    2777.9855   -44052.707    37.273501   0.91835528 
   64600    220.30311   -876.86877    136165.42    -41322.14    2740.9895   -44063.129    37.450055   0.91721887 
   64700     219.3419   -847.93629     136191.2   -41348.497    2729.0302   -44077.527    37.404613   0.91704527 
   64800     220.2383   -879.46591    136193.82   -41362.976    2740.1831   -44103.159    37.213226    0.9170276 
   64900    219.67343   -999.45813    136258.07   -41351.119    2733.1552   -44084.275    37.415642   0.91659521 
   65000    221.66521   -1050.5171    136210.07    -41326.39    2757.9367   -44084.327    37.452123   0.91691817 
   65100    220.02473   -940.05541    136073.37   -41363.185     2737.526   -44100.711    37.718874   0.91783933 
   65200    218.98224   -946.81063    135989.55   -41361.879    2724.5554   -44086.434    37.657834   0.91840504 
   65300    222.47555   -883.84351    135949.64   -41366.401    2768.0188    -44134.42     37.53047   0.91867466 
   65400    224.51753   -814.59856    136169.69   -41306.093    2793.4249   -44099.518    37.592354   0.91719011 
   65500     220.0375   -974.85128    136133.18   -41371.094    2737.6849   -44108.779    37.683014   0.91743607 
   65600    219.29274    -837.4903    136255.66   -41393.047    2728.4186   -44121.465    37.707664   0.91661141 
   65700    217.21066   -1002.2294    136211.85   -41439.272    2702.5136   -44141.785     37.81323   0.91690624 
   65800    215.15467    -935.8844    136027.18   -41443.631    2676.9332   -44120.564    37.616052   0.91815101 
   65900    223.45727   -891.09047    136085.05   -41407.786    2780.2333    -44188.02    37.566095   0.91776058 
   66000    223.46853   -770.74364    136157.49   -41316.576    2780.3734   -44096.949    37.743114    0.9172723 
   66100     222.4039   -974.95174    136157.28    -41267.35    2767.1274   -44034.477    37.971907   0.91727372 
   66200    222.48981   -1058.5035     136045.3    -41248.79    2768.1963   -44016.986    37.888202   0.91802868 
   66300    221.85152   -925.46342    136230.96   -41288.726    2760.2547   -44048.981    38.008995   0.91677762 
   66400    219.19289   -956.31036    136255.57   -41332.582    2727.1763   -44059.758    38.196291   0.91661203 
   66500    220.51617   -1004.8781    136236.24   -41350.427    2743.6404   -44094.067    38.079418   0.91674204 
   66600    219.55093   -1038.3448     136285.3    -41371.46     2731.631   -44103.091    38.120212   0.91641207 
   66700    220.12994   -876.84472    136349.33   -41414.653    2738.8349   -44153.488    38.239883   0.91598167 
   66800    222.85047   -967.13184     136450.1    -41364.59    2772.6836   -44137.274    37.922769   0.91530523 
[...]
   84600    216.75384   -1040.7333    136459.03   -41477.013    2696.8298   -44173.843    41.320176   0.91524534 
   84700    215.92424   -868.96869    136584.12   -41493.314    2686.5081   -44179.822    41.482431   0.91440712 
   84800    220.44449    -965.3088    136617.48   -41471.115    2742.7486   -44213.863    41.656088   0.91418383 
   84900     218.1956   -972.83692    136634.49   -41462.283     2714.768   -44177.051    41.703666   0.91407003 
   85000    221.31372   -832.51973    136634.54   -41406.447    2753.5635   -44160.011    41.714091   0.91406967 
   85100    219.23411   -903.39393    136833.68   -41404.182    2727.6891   -44131.871    41.802406   0.91273943 
   85200    218.70392   -956.53276    136637.02   -41414.894    2721.0925   -44135.986    41.530604   0.91405308 
   85300    219.15342   -1092.3164    136768.01   -41442.359    2726.6851   -44169.045    41.633771   0.91317763 
   85400    219.70759    -935.0895    136669.94   -41427.786    2733.5801   -44161.366    41.665587    0.9138329 
   85500    220.30127   -1018.3009    136716.42     -41394.1    2740.9666   -44135.066    41.832335   0.91352227 
   85600    220.46646   -955.70916    136751.85   -41367.994    2743.0219   -44111.016    41.810895   0.91328557 
   85700    216.85082   -908.80918    136644.25   -41412.161    2698.0365   -44110.197    41.754469   0.91400471 
   85800    220.34377   -886.83243    136566.64   -41419.642    2741.4954   -44161.137    41.656078   0.91452417 
   85900    219.26584   -1055.9739    136491.47   -41310.965    2728.0839   -44039.049    41.691303   0.91502782 
   86000    223.22576   -897.22778    136543.15   -41361.428    2777.3528   -44138.781    41.461544   0.91468149 
   86100    225.30299   -965.90692    136578.01    -41354.28    2803.1976   -44157.478      41.5305   0.91444804 
   86200    215.01827   -966.26309    136638.79   -41327.031    2675.2361   -44002.267    41.708017   0.91404129 
   86300    218.79797   -955.01829    136649.14   -41367.444    2722.2627   -44089.707    41.813626     0.913972 
   86400     220.2971   -907.52137    136638.84   -41388.497    2740.9147   -44129.411     41.82785   0.91404089 
   86500    220.36804   -935.77815    136641.44   -41372.682    2741.7973   -44114.479     41.69956   0.91402355 
   86600    223.16301   -997.43848    136663.76   -41321.588    2776.5721    -44098.16    41.623402   0.91387424 
   86700    220.74529   -802.69464    136646.68   -41309.744    2746.4911   -44056.235    41.724182   0.91398846 
   86800    217.75462   -1047.6947     136603.4   -41384.741    2709.2815   -44094.023    41.925431   0.91427805 
   86900    220.88193   -1015.5765    136645.23   -41351.602    2748.1911   -44099.793    41.938917   0.91399819 
   87000    221.72204   -1011.2837     136501.2    -41357.21    2758.6437   -44115.853     41.77345   0.91496257 
   87100    217.02371    -1052.468    136630.79   -41392.764    2700.1875   -44092.951    41.865989   0.91409475 
   87200    220.52071   -948.74264    136605.88   -41388.284    2743.6969   -44131.981    41.838875   0.91426146 
   87300    222.28057   -1021.1774    136570.47   -41394.037    2765.5929    -44159.63    41.872625   0.91449852 
   87400    224.20828   -893.26428    136594.63   -41411.445    2789.5773   -44201.022    41.859922   0.91433675 
   87500    215.91287   -1047.1326    136534.09   -41432.877    2686.3666   -44119.243    41.809286   0.91474216 
   87600    221.60027   -995.57284    136685.07   -41433.493    2757.1287   -44190.622    42.020876   0.91373174 
   87700    218.25777   -1056.0694    136629.88   -41445.149    2715.5416   -44160.691    42.114753   0.91410086 
   87800    218.24216   -900.99861    136601.87   -41413.684    2715.3474   -44129.032    42.102653   0.91428829 
   87900    219.30039   -922.61622    136723.53   -41429.253    2728.5138   -44157.767    42.147116   0.91347475 
   88000    217.70265   -1017.9687       136702   -41460.257    2708.6348   -44168.892    42.053603   0.91361864 
   88100    222.20368   -928.55725    136703.54   -41398.303    2764.6363   -44162.939    42.294215   0.91360834 
   88200    218.92741   -941.61193    136805.01   -41377.564    2723.8732   -44101.437    42.564494    0.9129307 
   88300    218.84187   -968.11752     136692.9   -41410.697    2722.8089   -44133.506    42.317285    0.9136794 
   88400    212.67665   -903.01912    136632.18   -41512.591    2646.1018   -44158.693    42.197037   0.91408548 
   88500     222.0061   -1029.7349    136760.76   -41409.659    2762.1779   -44171.837    42.350412   0.91322608 
   88600    222.58792   -960.32039    136703.47   -41359.376    2769.4169   -44128.793    42.241926   0.91360881 
   88700    220.58008   -1067.4862    136525.47   -41340.864    2744.4356     -44085.3     42.43691   0.91479992 
   88800    222.37071   -860.80426    136274.69   -41276.305    2766.7144    -44043.02    42.262523   0.91648339 
   88900    221.40166   -990.40236    136133.09   -41331.451    2754.6576   -44086.108    42.361026    0.9174367 
   89000    221.26886   -963.63127    136195.98   -41306.697    2753.0053   -44059.702    42.298623   0.91701302 
   89100    218.39682    -967.4303    136133.33   -41398.853    2717.2717   -44116.124    42.305799   0.91743506 
   89200    217.74617   -930.85625    136172.66   -41423.912    2709.1764   -44133.089    42.193395   0.91717006 
   89300     220.2042   -888.82346    136299.66   -41439.279    2739.7589   -44179.038    42.468565   0.91631549 
   89400    219.31397   -873.77053    136326.35   -41464.875    2728.6828   -44193.557    42.451356    0.9161361 
   89500    213.36113   -1043.1207    136374.15   -41501.198    2654.6181   -44155.817    42.646217     0.915815 
   89600    213.39456   -812.83883    136311.36   -41534.009     2655.034   -44189.043    42.558936   0.91623686 
   89700    215.46284   -937.80741    136376.85   -41501.927    2680.7673   -44182.695    42.383947   0.91579689 
   89800     217.8657   -939.75374    136388.55   -41464.763    2710.6635   -44175.427     42.33146   0.91571833 
   89900    217.38324   -885.01105    136390.75   -41517.979    2704.6608    -44222.64    42.520268   0.91570353 
   90000     218.6336   -856.98982    136325.38   -41434.536    2720.2176   -44154.754    42.625735   0.91614263 
   90100    219.84644   -966.55397    136449.67   -41431.762    2735.3077    -44167.07    42.626293    0.9153081 
   90200     214.5811   -961.53027    136402.36   -41472.793    2669.7969    -44142.59     42.61414   0.91562556 
   90300    215.00728   -921.44743       136465   -41486.389    2675.0993   -44161.488    42.574334   0.91520532 
   90400    216.89501   -972.03192    136364.28   -41479.362    2698.5863   -44177.948    42.674114   0.91588128 
   90500    220.81532   -927.84773    136365.11    -41444.18    2747.3624   -44191.542    42.508632   0.91587569 
   90600    224.48072    -946.4228    136447.03   -41353.971    2792.9669   -44146.938    42.687944   0.91532582 
   90700    221.64917   -1032.3595    136530.23   -41368.106     2757.737   -44125.843    42.599877   0.91476808 
   90800    219.82514   -910.23749    136370.72   -41401.538    2735.0427   -44136.581    42.330518   0.91583802 
   90900    214.37217   -1074.3337    136527.49   -41492.669    2667.1973   -44159.866    42.609453   0.91478642 
   91000    213.29226   -784.62533    136533.07   -41499.919    2653.7612    -44153.68    42.760958   0.91474904 
   91100    217.27524   -953.78579    136579.66   -41490.297    2703.3171   -44193.614    42.773065   0.91443698 
   91200    220.71761   -974.62544    136561.67   -41456.532    2746.1467   -44202.679    42.785702   0.91455745 
   91300    223.70766   -959.53904    136462.83   -41362.875    2783.3486   -44146.224     42.66011   0.91521984 
   91400    222.89008   -813.50684    136429.33   -41347.421    2773.1764   -44120.598    42.718176   0.91544458 
   91500     222.0186   -1061.0034    136450.64   -41372.549    2762.3334   -44134.882    42.968122    0.9153016 
   91600    221.30743   -952.47793       136413   -41407.093    2753.4851   -44160.578    42.847168   0.91555419 
   91700    217.47748    -1034.484    136370.83   -41479.932    2705.8334   -44185.766    42.750995   0.91583728 
   91800    220.63712   -902.80814    136274.99   -41450.361    2745.1452   -44195.506    42.687472   0.91648136 
   91900    218.05863   -974.42646    136333.59   -41450.901    2713.0639   -44163.965    42.744701   0.91608744 
   92000    220.03132   -939.29686    136313.09    -41462.69    2737.6079   -44200.298    42.748214   0.91622522 
   92100    217.69188   -982.25332    136342.31   -41508.336    2708.5008   -44216.836     42.75016   0.91602889 
   92200    227.55098   -1002.9501    136297.41   -41458.202    2831.1668   -44289.369     42.68936   0.91633064 
   92300    221.65773   -984.31381    136171.99   -41374.931    2757.8435   -44132.775    42.779703   0.91717462 
   92400    223.32262   -963.71202    136291.34   -41389.427     2778.558   -44167.985    42.943023   0.91637147 
   92500     218.4092   -961.49182    136207.24   -41432.257    2717.4257   -44149.683    43.015343   0.91693726 
   92600    222.28873   -980.39066    136257.36   -41395.916    2765.6944    -44161.61    43.020317   0.91659995 
   92700    222.76977   -863.76594    136199.79   -41393.156    2771.6794   -44164.836    42.914274   0.91698738 
   92800    219.49811    -909.6607    136109.96   -41432.058    2730.9738   -44163.032    43.070173    0.9175926 
   92900    224.39911   -827.55568    136376.13    -41404.03    2791.9515   -44195.982    43.066285   0.91580169 
   93000    217.20837   -1011.1814    136176.33    -41453.54     2702.485   -44156.025    43.042598   0.91714538 
   93100    221.36309    -1038.539    136281.57   -41383.868    2754.1777   -44138.046    42.916586   0.91643711 
   93200    223.35655   -932.46511    136164.78   -41412.939    2778.9801   -44191.919    42.978926   0.91722319 
   93300    220.39276   -881.11442     136162.1    -41437.45    2742.1049   -44179.555    42.965317   0.91724122 
   93400    220.56711   -929.66105    136271.96    -41460.38    2744.2741   -44204.655    43.144964   0.91650173 
   93500    218.14816    -1014.761    136331.65   -41486.132    2714.1778    -44200.31    43.156125    0.9161005 
   93600    216.57363   -1000.5394    136130.61   -41557.289    2694.5877   -44251.876    43.196229   0.91745337 
   93700    217.33235   -851.41047    136230.77   -41517.642    2704.0277   -44221.669    43.195006   0.91677884 
   93800    220.56824   -1145.0774    136199.25   -41472.887    2744.2882   -44217.175    43.210323   0.91699101 
   93900    218.90192   -997.79962    136303.91   -41454.895    2723.5561   -44178.452    43.049414    0.9162869 
   94000    222.53348   -946.53295    136086.91   -41473.062    2768.7396   -44241.802    43.074594   0.91774804 
   94100    219.34301   -896.10043    136230.34   -41475.911     2729.044   -44204.955    43.201833   0.91678176 
   94200    217.51519    -976.5551    136232.42   -41478.676    2706.3024   -44184.979    43.068294   0.91676774 
   94300    221.69686   -894.31761    136257.87   -41428.214    2758.3305   -44186.545    43.415317   0.91659651 
   94400    220.90554   -1015.0462    136319.04   -41419.707    2748.4849   -44168.191    43.508914   0.91618522 
   94500    221.33719   -1051.0067    136267.73   -41369.394    2753.8554   -44123.249    43.153577   0.91653022 
   94600    221.69422   -1023.7859    136304.35   -41415.861    2758.2976   -44174.159    43.019965   0.91628394 
   94700    218.46651   -916.35735    136174.54   -41467.876    2718.1388   -44186.015    42.913528   0.91715745 
   94800    220.15716   -799.26259    136342.99   -41467.405    2739.1737   -44206.579    43.228194   0.91602429 
   94900    220.05601   -974.58721    136391.22   -41434.558    2737.9151   -44172.473    43.350714   0.91570035 
   95000    223.05324   -991.52481    136291.84   -41408.682    2775.2064   -44183.888      43.4074    0.9163681 
   95100    221.02953   -1007.9974     136396.8   -41407.946    2750.0276   -44157.974    43.466357   0.91566291 
   95200    217.40712   -993.13337    136350.02   -41416.029    2704.9579   -44120.987    43.161782   0.91597709 
   95300    222.00572   -993.26932    136425.14   -41320.589    2762.1732   -44082.762    43.374919   0.91547268 
   95400    222.23311   -863.80165    136340.39   -41386.282    2765.0024   -44151.285    43.457015   0.91604175 
   95500    219.52623   -913.90377     136237.3   -41398.651    2731.3236   -44129.974    43.296272   0.91673495 
   95600    219.98218    -926.6735    136312.49   -41398.204    2736.9966   -44135.201     43.36187   0.91622928 
   95700    220.23144   -1007.0947    136487.03   -41459.998    2740.0978   -44200.096    43.350258   0.91505756 
   95800    216.41622   -987.51109    136391.95   -41518.603    2692.6292   -44211.233     43.39567   0.91569548 
   95900    216.65917   -885.24567    136380.54   -41464.517    2695.6519   -44160.168    43.497318   0.91577207 
   96000    216.03839   -920.98136    136498.56   -41535.392    2687.9283    -44223.32    43.667113   0.91498031 
   96100    216.47541   -972.45845    136442.41   -41481.471    2693.3657   -44174.837    43.674157   0.91535683 
   96200    215.73269   -915.43109    136419.61   -41515.028    2684.1248   -44199.152    43.616073   0.91550982 
   96300    219.42801   -1001.9191    136403.12   -41462.411    2730.1016   -44192.512    43.576314    0.9156205 
   96400    216.47191   -914.17232     136512.4   -41431.102    2693.3221   -44124.424    43.766105   0.91488752 
   96500    216.69266    -942.5656    136424.75   -41473.933    2696.0686   -44170.002    43.751941    0.9154753 
   96600    215.78342   -841.54628    136495.58   -41466.633    2684.7559   -44151.389    43.672564   0.91500028 
   96700    217.04619   -845.84435    136592.28   -41538.637    2700.4672   -44239.105    43.572631   0.91435247 
   96800    215.68977   -884.71457    136559.96   -41593.518    2683.5908   -44277.109     43.61075   0.91456889 
   96900    220.01222    -1038.745    136484.36   -41536.594    2737.3703   -44273.965     43.66295    0.9150755 
   97000    218.57283   -920.30771    136400.09   -41550.558    2719.4615    -44270.02    43.721085   0.91564085 
   97100    217.72621   -950.06716     136510.3   -41544.858     2708.928   -44253.786    43.700383   0.91490156 
   97200    217.34293   -1005.2025    136657.58   -41560.339    2704.1593   -44264.498    43.742014   0.91391559 
   97300    219.39253   -833.17555    136738.28   -41559.439    2729.6602   -44289.099    43.785654   0.91337618 
   97400    218.34669     -896.929    136819.29    -41565.76    2716.6479   -44282.408     43.79404   0.91283543 
   97500     221.5501   -884.90964    136813.82   -41464.511    2756.5045   -44221.015    43.785082    0.9128719 
   97600    218.36812   -941.91363     136863.1   -41545.271    2716.9145   -44262.185    44.064156    0.9125432 
   97700    218.20722   -907.63405    136686.84     -41481.7    2714.9126   -44196.613    44.161346   0.91371997 
   97800    223.80082   -823.38617    136752.25   -41466.194    2784.5076   -44250.701    44.091874   0.91328287 
   97900    223.02712   -901.30506    136716.93   -41443.299    2774.8814   -44218.181    43.895211   0.91351887 
   98000    221.99118   -852.23009    136810.01   -41470.102    2761.9923   -44232.094    43.891217   0.91289735 
   98100    220.30145   -817.13836    136802.15   -41546.514    2740.9688   -44287.483    43.962629   0.91294979 
   98200    217.10742   -987.56359    136749.43   -41527.979    2701.2291   -44229.208    43.866017    0.9133017 
   98300      220.459   -857.60983    136802.07   -41541.622    2742.9291   -44284.551    43.888047   0.91295032 
   98400    215.83146   -1002.3653    136785.73   -41557.088    2685.3536   -44242.442    43.932078   0.91305939 
   98500    220.81511   -756.98256    136784.04   -41559.715    2747.3598   -44307.075    44.039558   0.91307062 
   98600    216.59988   -919.89642    136797.98   -41580.158    2694.9142   -44275.073     44.26108    0.9129776 
   98700    214.74016   -965.65293    136757.87    -41633.76    2671.7759   -44305.536    44.069081   0.91324534 
   98800    213.86633   -977.38879    136870.24   -41601.024    2660.9038   -44261.928    44.109678   0.91249562 
   98900    216.13139    -878.4416    136802.42   -41604.857    2689.0854   -44293.943    44.053298   0.91294795 
   99000     215.5261   -885.39488    136796.11   -41641.714    2681.5544   -44323.269      44.0931   0.91299006 
   99100    218.67662   -939.76883    136830.36   -41549.092    2720.7529   -44269.844    44.078001   0.91276152 
   99200    213.32452   -925.01232    136813.78   -41542.143    2654.1626   -44196.306    44.198111   0.91287215 
   99300    223.91919   -965.67247    136767.71   -41495.507    2785.9804   -44281.487    44.079128   0.91317969 
   99400    222.39792    -941.7462    136741.44   -41467.193    2767.0529   -44234.246    44.016812    0.9133551 
   99500    225.16482   -969.83312    136708.63   -41352.483    2801.4785   -44153.962    43.929307   0.91357429 
   99600    225.16528   -888.75483    136745.23   -41372.895    2801.4841   -44174.379    44.176377   0.91332977 
   99700    223.21449   -992.33271    136868.52   -41368.022    2777.2126   -44145.235    44.188057   0.91250704 
   99800    224.91637    -1111.321    136750.33   -41392.453    2798.3873    -44190.84    44.247071   0.91329574 
   99900    222.23294   -1025.0477    136588.56   -41453.542    2765.0003   -44218.542    44.283095    0.9143774 
  100000     220.9227   -1045.5198    136693.72   -41465.793    2748.6984   -44214.492    44.290225   0.91367396 
  100100      220.115   -1034.1641    136573.02   -41397.956    2738.6491   -44136.605    44.310109   0.91448144 
  100200    222.31921   -955.85652    136589.85   -41394.234    2766.0736   -44160.308     44.31185   0.91436877 
  100300    220.62496   -1002.6748     136555.6   -41380.717    2744.9939   -44125.711    44.363492    0.9145981 
  100400    222.77355   -916.63713    136690.48   -41406.692    2771.7265   -44178.418    44.415644   0.91369559 
  100500    222.94921   -769.18926    136836.38   -41330.227    2773.9121   -44104.139    44.568065   0.91272137 
  100600    217.50318   -1001.2361    136761.43   -41413.935     2706.153   -44120.088    44.499504   0.91322158 
  100630    219.10125   -1031.3593    136663.84   -41394.581    2726.0361   -44120.617    44.430039   0.91387369 
Loop time of 71.4698 on 6 procs for 100000 steps with 4175 atoms

Performance: 604.451 ns/day, 0.040 hours/ns, 1399.193 timesteps/s
98.3% CPU use with 6 MPI tasks x no OpenMP threads

MPI task timing breakdown:
Section |  min time  |  avg time  |  max time  |%varavg| %total
---------------------------------------------------------------
Pair    | 54.312     | 57.064     | 58.306     |  17.7 | 79.84
Neigh   | 4.9058     | 4.9501     | 4.9695     |   1.0 |  6.93
Comm    | 5.6322     | 6.8962     | 9.7271     |  52.2 |  9.65
Output  | 0.15973    | 0.16049    | 0.16395    |   0.4 |  0.22
Modify  | 1.7446     | 1.7687     | 1.7917     |   1.2 |  2.47
Other   |            | 0.6303     |            |       |  0.88

Nlocal:        695.833 ave         705 max         690 min
Histogram: 2 0 1 0 1 1 0 0 0 1
Nghost:        1451.00 ave        1462 max        1435 min
Histogram: 1 0 0 2 0 0 0 0 1 2
Neighs:        0.00000 ave           0 max           0 min
Histogram: 6 0 0 0 0 0 0 0 0 0
FullNghs:      18569.3 ave       18910 max       18297 min
Histogram: 1 1 0 1 0 2 0 0 0 1

Total # of neighbors = 111416
Ave neighs/atom = 26.686467
Neighbor list builds = 5418
Dangerous builds = 0

undump              1
unfix               2
unfix               3
unfix               4


################################################
#######         Run Simulation         #########
################################################

reset_timestep      0
log                 log.run_${NAME}
log                 log.run_liquid_density_MLmW
