LAMMPS data file via write_data, version 29 Oct 2020, timestep = 800000

4175 atoms
1 atom types

-0.5162523331082447 50.51625233310866 xlo xhi
-0.5162523331082447 50.51625233310866 ylo yhi
-0.5162523331082447 50.51625233310866 zlo zhi

Masses

1 18.015

Atoms # atomic

506 1 4.764260004602795 2.6748346029701917 1.9625441074160692 1 0 0
2731 1 7.522791762564655 2.013250595140007 1.1628705212332486 1 1 0
3940 1 12.748868614364657 2.077108867542631 -0.46133202799220596 0 1 1
3646 1 34.778042590821514 10.837872928409693 -0.015235335288965701 0 0 1
241 1 14.630892550963129 1.8922236893971474 1.1708773918320927 1 0 0
724 1 2.8889902611422897 -0.2665715555263847 7.42069918725903 0 0 0
306 1 21.823974197588306 1.7012393915977424 1.2809975074272668 0 0 0
1570 1 20.764880288291483 -0.2272135221788631 2.7133528826146764 0 0 1
2072 1 24.1125656202099 2.775199852138713 2.187344327711083 1 1 1
430 1 26.5694006990698 1.8839247830979833 1.0733087544735989 0 0 0
1798 1 32.72399474884122 24.212675688005067 0.6612347894891266 0 0 1
2946 1 31.594060312779963 1.3448764197809513 1.5308977921315674 0 0 0
367 1 5.937893403883478 23.70975676954936 10.214981866804528 0 0 0
1164 1 12.501614881875478 19.64630679295637 -0.3690727146964535 0 0 1
2206 1 11.504896512886111 24.19480518508672 14.892573073363389 0 0 0
3494 1 44.95662451230861 1.504737226077666 1.358466671382339 -1 1 1
2509 1 20.726375652982636 -0.43759226215686714 16.086474602475313 0 1 0
3421 1 0.7004356115254111 2.6087328861416705 1.748969348036451 0 1 0
2617 1 2.600814388826201 4.198960084651143 1.599740711741306 0 1 0
1264 1 35.07040430875158 24.331740192444418 8.456474955220203 0 0 0
372 1 9.757771753386347 4.281594634543982 2.038674280885977 1 0 0
3032 1 11.598324484000912 24.756622368202656 6.33457990419475 1 1 0
375 1 30.02933621526428 -0.02317671970888613 10.240195178762635 -1 0 0
1472 1 17.01946046627396 2.6038818761362457 -0.19468654329703772 0 0 1
1961 1 19.592686187191344 3.2852692575986984 1.0305708297315923 0 0 1
1411 1 23.994105628126132 5.3249019459422975 2.718378021873594 0 0 1
2891 1 29.02349295446573 2.9402208696035275 1.9021641546686712 0 1 1
2344 1 33.239121351326304 3.6599007720333194 0.6074905942739754 0 1 0
1534 1 34.51743576679176 4.96945806880429 2.8654125009694287 0 0 1
1847 1 42.00720528004905 11.309959515970435 -0.3675816824411574 -1 0 1
2235 1 42.141420986418424 3.249881708329939 -0.3704974417192682 0 1 0
3797 1 42.971453678476735 3.1419125116042017 2.3969587858910373 0 1 1
2454 1 48.17017320171573 4.923399532504555 0.5340367826486563 0 1 0
2534 1 1.8951470572705933 6.334722638905956 3.347113180676625 0 0 0
2398 1 35.00603198135393 -0.10040353899630644 4.409272578478334 0 1 0
425 1 7.178371823266847 5.386596546707197 1.836104892302604 1 0 0
11 1 -0.08786556698590575 0.5619838459667135 11.016872210659793 1 0 0
1721 1 11.739158350624628 8.00666117406738 3.03764797247118 0 0 1
3958 1 0.8649377143800032 24.609591538892257 5.663022213129276 0 0 1
1712 1 20.859737853496284 8.177885867672515 1.3720555639219176 0 0 1
1729 1 23.485970519510357 7.295324403340308 0.6662531553757212 0 0 1
281 1 28.877415979934884 7.911810303577701 1.323470097685862 0 0 0
1954 1 29.0392964383792 5.061124688401739 0.3294875341251 0 0 1
2518 1 35.20940900292665 7.6898479266502076 2.500548672461735 0 1 0
3668 1 37.16384052508302 7.726695051440544 0.5081570219183551 0 1 1
1865 1 39.935113569676474 6.808804082987496 1.4718813040830048 0 0 1
563 1 25.44497024878106 19.762179312691412 0.16026027930710784 0 0 0
3089 1 46.34573430296717 6.353440839457489 2.110817896890335 -1 1 0
2789 1 45.6154884542337 8.379996553776405 0.47444866349279935 -1 1 0
52 1 28.74513333524519 2.290244048103079 16.289651088399655 0 0 0
1537 1 4.860261241324667 11.410867712118597 2.2138618559937426 1 0 1
2027 1 26.747080270490006 0.13274029531065545 3.947511922855133 0 0 1
913 1 8.651333874942473 9.695687156257657 0.52268159473171 0 0 0
1861 1 7.4675423390648685 12.090027627444213 1.0022515730686528 0 0 1
877 1 8.56789150055304 24.67652905851263 5.420690932021124 0 0 0
3364 1 14.531940887144918 12.141232559678254 0.9288267029275072 1 1 0
2413 1 17.931130071660665 10.710294907299406 3.2312200683514747 0 0 0
2034 1 18.253433036383793 11.514605435889582 0.7128728908092583 0 0 1
363 1 23.005245624304024 12.446265396424675 0.7482150572858826 0 0 0
4096 1 24.39628383051069 9.365929357874817 2.344142136018745 0 1 1
2366 1 12.120349308976701 7.785400777718568 0.052701633523326796 0 1 0
531 1 31.04526863171083 9.52290568079662 1.7459759431062483 0 0 0
269 1 33.49592620410168 8.519223355956328 0.4759548586875134 0 0 0
1397 1 7.913303867884856 21.476131790064667 -0.16200712345168156 1 0 1
2017 1 34.78900445982565 17.538188142831004 -0.45002969778540536 0 0 1
1040 1 39.73036068418028 11.096981416380368 1.0966707142913807 0 0 1
2697 1 45.03864407884704 10.06553134775471 2.6167873717617955 -1 0 0
1988 1 5.831213907831691 6.125692489371781 -0.47756043724222164 0 0 1
168 1 49.363524156680796 9.393197906121802 1.751702693043507 0 0 0
2703 1 0.7359655117755373 14.662429580664742 -0.10332136868991404 0 1 0
593 1 1.3251622457569943 13.924129028212965 2.699118292636058 0 0 0
1808 1 8.551724793284613 15.607420827346157 -0.33107053236768547 0 0 1
1052 1 12.019970830882745 12.070461870985014 0.953420103904014 0 0 0
508 1 11.239344955036307 14.794529360134971 0.4673158332774269 0 0 0
1940 1 15.533453521725278 14.691110174394225 0.4809997610905177 0 0 1
4081 1 18.22956069389998 14.20758389123506 1.119283734527747 0 0 1
1633 1 19.927259758575488 14.443881509523203 3.4413308124651163 0 0 1
2790 1 22.87537113938436 13.951827197973032 3.020416049780517 0 0 0
3650 1 27.716769155524258 13.226712129682406 1.7978747363606566 0 1 1
2707 1 29.805472969310493 11.722386134891291 0.6764534228392154 0 1 0
2687 1 31.881154208054998 13.698824714494002 2.0665264891488544 0 1 0
1744 1 34.66217277831032 12.749399476048879 2.0784789635964795 -1 0 1
423 1 40.535241236405824 13.839912479728133 1.837478881804889 0 0 0
3999 1 43.99008717213337 12.037926674122541 1.1602159256341438 0 0 1
1996 1 43.28038835401753 14.189001412219207 2.4815064666502025 -1 0 1
1584 1 38.92005441537103 -0.4065886090144237 0.009687635669182737 0 0 1
2167 1 47.90422014482718 13.487107621175996 1.294873843831764 -1 0 0
1339 1 39.409918335664415 15.506382016424638 -0.35996101295916194 0 0 1
1582 1 8.757367174343395 21.101249590773815 16.032279400310852 0 0 1
1214 1 3.907982970694162 16.789432887311133 -0.32970150527198633 1 0 1
2456 1 4.681266806828659 16.403066574397283 2.336719867262205 1 1 0
1733 1 8.384215768964458 19.217757832410136 1.9885138889460352 1 0 1
3692 1 12.070625737790287 16.486821503733793 2.5377322804784144 0 1 1
3707 1 14.71022858305748 16.79145889753068 2.0162516052547916 0 0 1
2549 1 23.882043840924286 16.642900154507824 2.89323947480758 0 0 0
3490 1 26.44394717574293 8.674337497137211 15.779113930390036 0 0 0
48 1 27.74978160124884 16.37978365732314 2.015909424054427 0 0 0
1678 1 20.8441205536457 10.593272237868813 -0.03313062722499183 0 0 1
3695 1 30.454441900537695 15.927183285157167 1.337517216565873 0 0 1
2539 1 2.7141663105192944 -0.19834941249674887 10.274661590789831 0 1 0
396 1 33.042997771902236 17.49097942979064 1.6771563108636016 0 0 0
3878 1 37.3182546765924 17.20818163848287 0.7276654830376437 0 0 1
1522 1 28.729772854096513 19.374911563466757 -0.29549654889717536 0 0 1
2392 1 44.55467678254216 16.40234679612356 1.5046490472704321 -1 0 0
1749 1 0.9924289433231426 8.797861681182672 1.5096851109333924 0 0 1
280 1 0.8238317918890243 18.67869622123228 2.0275507931005183 0 0 0
2146 1 4.410200705564065 21.13629608613139 0.3958949675500866 0 0 0
3645 1 7.774645626205297 -0.42523790486765717 2.5241817854761166 1 1 0
4008 1 11.151359448409778 19.215180549956965 2.3947640083510495 0 0 1
3795 1 46.6374588928217 24.71756936422448 3.0977542257388184 0 0 1
697 1 15.202340270466575 19.04605369947269 0.5431046318014356 0 0 0
4016 1 16.349293122678873 21.11001181071126 2.6458914525061195 0 0 1
1889 1 25.805921857979815 11.405880214144807 0.3671996213127767 0 0 1
1648 1 21.529006935498376 22.607302003605103 1.1562356200404091 0 0 1
489 1 21.593190373167598 18.4289251598245 2.4455151546200753 1 0 0
3562 1 25.37457419242654 20.48950994974617 3.603479735652554 0 0 1
2401 1 22.652376680206505 20.922660529965185 3.071841235233038 0 0 0
266 1 27.850162990008098 20.91878704800618 1.8859399716963603 0 0 0
3591 1 32.32474754706806 19.908441329299738 2.1874060738043526 0 0 1
138 1 34.537639410280704 20.964981709312035 2.5179526887455475 0 0 0
2290 1 32.17067186928894 23.369764547324753 15.969904040328888 0 0 0
108 1 38.94397952154286 19.478043858296544 1.0764998360092095 0 0 0
2397 1 41.59672437104396 19.38216941797181 0.060179143779553246 -1 0 0
2168 1 27.595196749991235 -0.46091390955030914 9.242842760882638 0 1 0
462 1 49.37843456153453 18.81765591382226 1.9321090213624994 0 0 0
481 1 1.8332267671335578 21.326724319212722 1.199023225177666 1 0 0
1538 1 48.88093011402319 23.902360213469304 -0.40674999905187936 0 0 1
4031 1 40.761231039479625 -0.34084582664110874 11.775751551929375 0 1 1
2573 1 49.436206346289254 22.977453422024187 15.130716858501609 0 0 0
3726 1 9.1880833845463 23.040780254089373 1.63062908072959 0 0 1
29 1 35.94823466378293 21.45400926224618 0.18426353607210655 0 -1 0
271 1 13.840239850070311 24.62338793706354 1.8721981609258775 1 0 0
1577 1 15.319318590274642 22.745703600253126 0.7027924930936988 0 0 1
2658 1 46.60902361101115 24.984600683648825 5.82645931756581 0 0 0
2836 1 27.781897538966877 23.532055501203416 0.49583621537341416 0 0 0
4123 1 30.24223020897883 23.19040142883092 -0.4286002982991889 0 0 1
3128 1 38.54471233387346 22.200949168732123 1.1299953749483886 0 0 1
673 1 35.53852130801033 24.18306836138746 0.021370034254689863 0 0 0
186 1 49.378670557343 24.42599900659835 2.3805202933152234 -1 0 0
3455 1 42.93855334199253 24.113061741030258 0.6762035085205516 0 0 0
2812 1 45.196870647756185 22.815762572115766 1.4936398758315668 -1 0 0
2102 1 19.884180127378094 5.859944360306594 -0.19883748296987314 0 0 1
3576 1 28.51403081755195 24.106543306364454 3.1623701801210773 0 0 1
2800 1 14.92247381712078 22.15114003474006 14.591080815512543 0 0 0
2572 1 1.3024486887661142 0.608172581169472 3.672791154120815 0 1 0
2719 1 19.457420174836717 20.86221552498703 0.11770507015473419 0 1 0
450 1 10.782546400130899 0.25925916827245143 5.5667994051381955 1 0 0
123 1 9.368675687455989 1.87299170863283 3.7626685475878308 1 0 0
400 1 13.568778306036565 0.12973241444267403 5.78087813058606 0 0 0
4144 1 38.90876459851086 -0.29727323791735605 2.6881036271257583 0 1 1
1153 1 19.624439975428317 1.2332063644760538 5.0815164427729655 0 0 1
3723 1 22.276774634980843 1.789547478745504 6.155027171313808 0 1 1
2481 1 23.92188872627987 0.8797305782624081 4.158126286510248 0 1 0
3359 1 46.669545863299334 7.519562753234032 15.532713354841544 0 1 0
1348 1 28.11099216045666 1.692401248136187 5.525729785553772 0 0 0
3439 1 30.67079859264504 0.5516090661610071 6.065895603040154 0 0 0
1256 1 32.668981677154036 1.3724809057680676 4.073548103477058 0 0 0
3068 1 14.064108708813814 -0.09961768605691651 2.869085550023809 1 1 1
298 1 37.17143440807236 1.4854620283200477 3.8925022771493083 0 0 0
647 1 44.772741606195055 23.645027111681713 13.944675263962036 -1 0 0
200 1 41.70025018508777 2.159935736377726 4.924046215231607 0 0 0
2138 1 46.66822232275689 0.37197940046137135 3.185354059392927 -1 1 0
613 1 46.79536869047594 21.821333725630794 15.164198203747157 0 0 0
2180 1 48.09638969245594 2.3639475246684576 4.7363799352228995 0 0 0
2699 1 3.6927572942020648 5.603146224266634 5.470299759539318 1 0 0
581 1 8.03783101766362 3.1323692850539278 5.60989490594447 1 0 0
2364 1 5.827167531186667 4.076123693118715 4.0711277377028905 0 0 0
2541 1 10.023983982463559 5.150034547885241 6.093904586987634 0 0 0
421 1 11.745754679876256 5.287807710573173 3.7376844414432284 0 0 0
2374 1 14.48612598146978 4.018296638179347 3.3362967115517193 0 1 0
3775 1 14.225153554127955 2.7933674281046983 5.779139535189347 1 0 1
109 1 16.931544718515884 5.426432342399683 3.114361309007097 0 0 0
184 1 19.274750193266115 3.9523535837562243 3.7111097290683137 0 0 0
3326 1 20.577718618176473 3.9671527294677382 6.829229186898358 0 1 0
3276 1 21.60235284415617 5.5102113980950325 4.654473663456039 0 0 1
2085 1 28.534614200891287 4.211235422366806 4.1021607921923975 0 0 1
3113 1 30.744388424253547 4.856536118417345 5.901345785554863 0 1 0
2403 1 33.18186849138134 3.874381708900648 4.871400097787413 0 0 0
1894 1 36.763706154761806 3.407036601554511 1.958903885475185 0 0 1
387 1 40.076207142220056 4.016588800737951 5.582525426506527 -1 0 0
256 1 44.64194459579768 5.091303490499663 3.8246400808256213 0 0 0
1752 1 46.00649349757782 3.851707280695593 5.846028301657229 0 0 1
92 1 49.51530109122395 3.684689491305159 2.7704894289759086 -1 0 0
1918 1 4.489352260973008 8.13794676647529 5.793988044987646 0 0 1
38 1 8.37179916746952 7.90704626357558 2.7341718603402283 0 0 0
2280 1 9.661056226447846 7.833753680239383 5.398005136865057 0 1 0
3457 1 17.680241984522286 7.932424057201358 4.182295486326064 0 0 1
354 1 20.438058860268214 8.01579940638713 4.044891769056216 0 0 0
1932 1 26.174317731067912 5.794597634045114 4.422219855100208 0 0 1
428 1 26.66399839581282 8.235052367909088 3.2483238186520964 0 0 0
2927 1 31.43128809251384 7.538637013012059 5.9431865832609585 0 1 0
2042 1 35.74540458004256 9.173876250112205 4.6788110631925335 0 0 1
484 1 39.05709419139535 4.697812816152098 3.0768187798900026 0 0 0
1224 1 38.70502028193319 9.407683118911985 5.054392835503039 0 0 0
3862 1 43.07653310329603 7.079468419988178 5.319508907212485 0 1 1
1930 1 47.86694747758962 8.645059748788851 5.90622266813776 0 0 1
2461 1 -0.3394246497764746 5.663611416499262 4.2411833207920955 1 0 0
1060 1 48.557352881395275 7.373886948291291 3.3822352072697033 0 0 0
957 1 1.1350226625235753 10.362095912774961 5.420863286411654 1 0 0
1592 1 2.8379077688995262 9.355575671028285 3.5051069942006317 1 0 1
516 1 6.297721248306999 9.586154706435156 3.8838318278778576 0 0 0
311 1 7.1943347976993115 11.828741671186336 4.948947313161092 0 0 0
1960 1 11.142579232338171 10.430008667385694 5.546356618740345 0 0 1
3638 1 13.487887006645048 9.28364315062893 4.870388742215892 0 1 1
1952 1 15.240387197168777 11.234540987716892 3.559921485968929 0 0 1
1590 1 19.72796599728157 11.949464119036822 4.765279311876037 0 0 1
153 1 21.182018004656186 9.801193642786682 5.706534938792903 0 0 0
3702 1 23.703698542580383 10.582954513821612 5.022748201291239 0 1 1
436 1 28.003521401445308 9.575294604790027 5.079168369201038 0 0 0
705 1 30.636494475795185 9.728085301483043 4.612868346290951 0 0 0
2143 1 32.51221672633021 11.820429980776694 5.775991097094619 0 0 0
214 1 34.97585724943431 11.680483555184743 4.4380388247697775 -1 0 0
1278 1 40.37198313814599 9.146011258894411 2.9457398549289455 0 0 1
1790 1 42.803466752331204 9.548569329288952 4.328667931166043 0 0 1
1253 1 41.99720032537182 11.918495770513491 6.276914631387862 0 0 1
3693 1 46.60851425226046 10.904777696511841 4.8006855966809665 0 1 1
3395 1 48.71758875404467 11.554193231444968 3.0695118845760008 0 1 0
2657 1 -0.25091500102409564 12.325305026145191 4.505159927126755 0 0 0
951 1 3.952293924942845 13.80709985864658 3.0482349725329283 0 0 0
3986 1 4.804180584474077 13.409360012403905 5.803996875075236 0 0 1
2129 1 8.31867176882446 13.438957971863873 3.1168802045437856 1 1 0
3408 1 10.941403496976465 12.499547686106498 3.4389884989261152 0 1 1
2108 1 12.390308329525768 14.469607652810492 4.86044263665035 0 0 0
625 1 15.2089243852271 13.569204314098968 5.263025494711627 0 0 0
532 1 17.908764667892537 12.794613839677012 6.659476873586976 0 0 0
879 1 24.617765125594175 13.118614725267456 5.108260746285868 0 0 0
1401 1 27.05657436685793 12.290213847877252 4.302587523825529 0 0 1
1155 1 28.589707754164785 13.854520825523185 5.813181421367494 0 0 0
2304 1 31.10072338038437 14.103887694119415 4.7789173670028555 0 0 0
707 1 35.78349396849919 15.446253022419935 2.1239553754055325 0 0 0
735 1 37.139806936027554 13.140663708849356 5.5168166747022225 0 0 0
277 1 38.247199913061465 14.617678612902642 3.2141035384880428 0 0 0
110 1 42.26682267085995 14.336302161448712 5.282151013730845 -1 0 0
37 1 44.997109583038565 14.807857166041494 5.308039212955113 0 0 0
542 1 1.3263701813772326 16.528765201098345 3.848150576571056 0 0 0
395 1 4.330368455588778 18.42747105833838 4.4097754195395185 1 0 0
2310 1 7.33269027180623 16.0339243327758 2.224409033319568 0 0 0
2607 1 8.752724628660616 17.446387660559516 4.74941335417175 1 0 0
2222 1 10.589180948031336 16.2879463932037 6.3745012363367906 0 0 0
1506 1 16.175790330566997 16.109417964134412 4.539008856640737 0 0 1
1693 1 15.625049578273018 18.428055617828925 6.053536959771539 0 0 1
3269 1 19.15195905873999 16.184755333413914 5.2896701711119665 0 1 0
79 1 20.18330813214581 18.482257928981763 5.397667914600075 0 0 0
588 1 25.203932151859327 18.006237390266566 4.9015711404749664 0 0 0
1985 1 27.549406857942962 16.52400389498625 4.859409824355263 0 0 1
818 1 34.66426371064513 17.205442211803884 4.0424001052932255 0 0 0
362 1 38.424408858617284 16.934030412629568 4.858196409430479 0 0 0
445 1 46.843866453570996 15.596058332880759 3.087689130362083 0 0 0
490 1 48.12350105758324 17.860027813857503 4.1848890151058145 0 0 0
2045 1 50.43431593164496 17.07442630896566 5.8342636533409 -1 0 1
1737 1 50.01192224778519 21.212814743947483 7.993860716824377 0 0 1
1432 1 5.817053656680152 20.17871137060713 2.777387088492234 0 0 1
1220 1 7.708483166060224 20.541389299203285 5.720587932428222 0 0 0
1969 1 10.329953416789719 20.29653953222182 6.211532731368305 0 0 1
2906 1 11.988516444599265 20.925621847132017 4.292461515041526 1 1 0
1840 1 14.696872163570704 20.66135410823301 4.811455415594416 1 -1 1
1290 1 19.144992476545205 20.49175106701643 3.053756494133301 0 0 1
1405 1 23.01598125724156 21.09282098545779 6.166392967401044 0 0 1
2815 1 29.332333792757332 18.402950903933135 5.323521318170969 0 0 0
1423 1 29.792394591302017 20.26507012259918 3.5121320025586327 0 0 1
1559 1 35.710719314844 19.944377206889055 4.717135677972349 0 0 1
1942 1 38.63914153187528 19.655638406813623 4.025657577194717 -1 0 1
769 1 41.528405726927375 19.81994589066604 4.616881691355889 -1 0 0
688 1 42.83519767131564 18.800333960707526 2.4163394514777425 0 0 0
2328 1 44.757602901778924 20.638029595405598 3.472821481060825 0 0 0
623 1 46.053720263106555 19.42350083247666 5.4288916843880655 -1 0 0
2164 1 49.930891790304074 21.181025913943568 3.4197976648329242 0 0 0
2760 1 25.092348030512454 17.185545578853475 0.6679531093644557 0 0 1
3684 1 2.183930572942805 23.180811930044303 3.3049326980028377 0 1 1
402 1 2.7838328496698055 20.677271268008923 4.9958598029903065 1 0 0
1618 1 6.906032651114723 22.81825935552646 3.886238108696194 0 0 1
1925 1 11.450300355076815 23.52656533642125 3.441125744545815 0 0 1
1254 1 42.407319313885864 18.296942760124118 15.925527467370198 -1 0 0
130 1 13.500135744146164 23.675544671320658 8.342210924085286 0 0 0
1418 1 20.322267010353258 23.96146334458507 3.195406563188544 0 0 1
2407 1 20.360952087042893 22.44966365831293 5.352234926790568 0 0 0
1216 1 26.643098326755123 24.315284845084022 4.907942908373789 0 0 1
4164 1 26.216422261696724 22.013725914818664 5.879813868207908 0 0 1
2673 1 30.68812092395727 22.69179273958616 4.3868461537816525 0 0 0
3980 1 33.24683802338541 23.21783618275615 3.3472292550150864 0 0 1
1947 1 35.24587284846102 23.108136993703646 5.794475784429373 0 0 1
2439 1 39.04604913158394 23.445387297471346 3.3180625102534367 -1 0 0
2455 1 37.93017766324358 22.226496316671103 5.375721533671308 0 0 0
217 1 41.73195666400356 24.081007598383803 2.9471873283364105 -1 0 0
2356 1 42.74598729618124 22.210389446300404 4.585340508403587 -1 0 0
2708 1 49.35789990327994 23.415416227443902 5.233457483369014 0 0 0
3021 1 1.576789982301667 1.8173000616491861 6.1541768879567496 0 1 0
2489 1 17.856896917169273 24.470389965179656 2.266221578468396 0 0 0
2524 1 6.442418809097316 1.8055307782786456 7.383766524085376 0 1 0
3903 1 9.908469841008467 0.36764480779834396 8.230979004614413 0 1 1
1122 1 11.58022508153621 2.3078721098526493 9.248862988590782 0 0 0
95 1 14.258677755532696 1.602414952946896 9.419928695325673 0 0 0
2234 1 17.91674204574897 0.5339993851266969 7.1718594368935475 0 1 0
1638 1 19.506638947894235 0.5360081114979176 9.442204809809153 0 0 1
3854 1 22.13902039434573 0.5294305629765765 8.455733143914799 0 1 1
656 1 24.094967796756446 2.20363250796585 9.084012273225946 0 0 0
485 1 42.803671295952626 22.626463763565734 15.349964026527743 0 0 0
682 1 26.755116169769625 2.1283312434366737 7.822640309536746 0 0 0
2722 1 31.74716830860302 1.2573887206332512 8.407078501312482 0 1 0
947 1 34.77046840776758 1.4438527770739489 8.61354856980319 -1 0 0
838 1 40.67809027416811 21.805937661703947 13.864270240632692 0 0 0
474 1 40.61660321334831 -0.2231960689340104 8.997399605624327 0 0 0
2262 1 38.323504242585884 1.7174991023069963 8.6885514283639 0 1 0
254 1 43.970587455063765 1.660561096303406 6.550363583204897 -1 0 0
2237 1 43.111322896668895 0.8747204880741857 8.852017229198758 0 1 0
3516 1 49.88588329895725 1.7596179210619076 6.745026730979254 0 1 0
1560 1 2.0222010446739804 4.285229552182284 7.61499158106532 1 0 1
3540 1 4.121146648153369 5.249435222963156 9.577310058594877 1 1 1
1986 1 8.34769625699602 5.949200513946184 8.285074502373304 1 0 1
2220 1 12.369638821668765 4.311941541495961 7.243726114858287 0 1 0
790 1 16.500256015394037 2.745874184674107 7.826163227691506 0 0 0
2153 1 17.80450675270434 5.039232156179909 7.375011669780913 0 1 0
2313 1 19.496353893909685 5.09897770673751 9.915381182652409 0 1 0
4175 1 23.21523053542761 4.559934237647851 7.926743311340459 0 1 1
935 1 28.356088745863406 3.6754805117195515 9.353754083109935 0 0 1
49 1 30.849471167942212 3.7689948972060865 8.3595544660732 0 0 0
1077 1 34.942195550641955 6.024639396547692 8.458086064254347 0 0 0
3148 1 37.691015293241904 2.8518818335417504 6.296206625396249 0 1 0
4000 1 35.18946278491262 3.5787548644591007 6.956388381719408 0 1 1
2795 1 46.42353483962248 5.767178482941312 7.731852338397612 0 0 0
2701 1 49.11462544362486 5.5936469848147015 8.658014914980374 0 1 0
282 1 -0.006267855083941787 5.998586714863154 6.822540488518844 0 0 0
3040 1 7.351644676465061 8.30843443563082 7.41751884370914 0 1 0
2256 1 11.158095852533052 7.833296168502972 9.949429049732387 0 1 0
3519 1 13.303152675069668 6.4901975973010275 8.587224839192892 0 1 1
30 1 14.658182312232777 8.866523400963638 7.467521692482538 1 0 0
1917 1 17.167210079118874 7.596167051515023 6.945944661051933 1 0 1
990 1 18.697557718193924 8.878456474369536 8.850408310199906 0 0 0
3840 1 21.984418770068572 6.296478640741102 9.460740440533746 0 1 1
2400 1 25.42693809104797 6.097666210248482 6.975317360577765 0 0 0
1914 1 24.631964539050816 8.79681422521371 7.035929505566581 0 0 1
44 1 27.636439844901922 6.178704634871077 8.658870087881422 0 0 0
973 1 29.904321938387845 7.955029452569342 8.30076181991899 0 0 0
2068 1 34.15888331039538 7.932689331178535 6.6864016985080745 0 0 1
2504 1 38.986349658415435 7.469015891770977 7.355651465630988 -1 0 0
360 1 41.27499300741326 5.929130356271422 7.130984111835363 0 0 0
1597 1 45.10012048897377 8.010764844487829 6.861992516053182 -1 0 1
3751 1 4.176377823079428 9.216291079961817 8.50138735643533 1 1 1
189 1 2.9537469233813707 11.511073434162334 7.323367064148283 0 0 0
1551 1 6.369554705691024 10.338870209910601 9.466032706098806 0 0 1
144 1 7.729869990814972 11.767990467705893 7.551887920286799 1 0 0
116 1 9.885450356495463 9.848537611370597 8.167261697737782 0 0 0
632 1 15.08253806367251 11.139983656545466 8.75594087558247 0 0 0
64 1 17.693883147610634 11.432930520492881 9.08915363862293 1 0 0
437 1 21.777195196769615 8.913714320714618 8.333914481148275 0 0 0
1404 1 21.914305333437024 11.124793758748183 10.277692209116717 0 0 0
99 1 26.178592587047575 9.385625069189222 9.3332259617332 0 0 0
160 1 28.507423025354065 10.307145515916675 7.897299923618105 0 0 0
750 1 29.814120812396634 12.08236405797394 9.23309964430355 0 0 0
3096 1 33.73646399744317 9.983929989086455 8.838423679170582 0 0 0
122 1 32.4902809789471 12.436573501826109 8.452514778185796 0 0 0
861 1 39.3034654010152 9.64479295544345 9.695798069816083 0 0 0
545 1 39.309763615389315 11.742504757242997 6.46637476125112 0 0 0
4050 1 44.47480969316291 9.306755257524797 9.506388872753929 0 1 1
1451 1 -0.4857020701861541 8.866313381450926 6.980894654041476 1 0 1
3153 1 1.3137332198695948 14.284232997066583 8.119100225239047 0 0 0
146 1 11.544727744714535 12.540708928670664 7.5312499769923225 0 0 0
2988 1 8.99781449459403 14.344498832203017 8.054282514471629 0 0 0
89 1 14.226707975335346 13.618330581443853 7.729484578042982 0 0 0
373 1 19.01478543027245 14.933598188697408 7.671080720713993 0 0 0
4024 1 21.429444414846035 13.967632457246562 8.871460322641243 0 1 1
333 1 23.700022423723517 14.676496785767212 7.457649948068861 0 0 0
324 1 25.48801825625776 14.202255612346 9.537340917444832 0 0 0
1583 1 28.288456061588334 14.298356516255527 8.838445917066005 0 0 1
3687 1 34.24425823190903 14.898204042992788 9.141710908143061 0 0 1
675 1 36.165005114245105 15.749750149168467 6.474930709862092 0 0 0
959 1 38.7493676901757 12.438976712876018 9.091424856619607 0 0 0
554 1 39.94127558775352 14.858953560085094 9.187998297610001 0 0 0
47 1 43.68473795576858 11.945021354172397 8.316232361300594 0 0 0
636 1 46.03408795587676 12.860335142369571 6.986718211526137 0 0 0
6 1 50.219778206767614 13.97879589989308 6.467107706424029 -1 0 0
494 1 48.18588892997646 13.46504297289953 8.42950610201238 -1 0 0
2667 1 49.91115179100275 17.315720374047814 8.732884309959353 -1 1 0
2618 1 3.256554335444602 16.244492606588373 6.194827838261567 0 0 0
521 1 3.2945711538678304 16.95563535897993 8.803670161888816 0 0 0
1058 1 6.29824785148275 15.286300597811913 7.156887648824996 0 0 0
2273 1 13.784707039570408 17.764849943384142 8.200247645428833 0 0 0
1134 1 14.645800490275619 15.63894907064224 9.357638393136666 0 0 0
569 1 17.30188044810108 16.343266067823823 9.294154499477429 0 0 0
592 1 18.32061515586232 18.783875496108028 9.198387544813134 0 0 0
1877 1 24.3327362014953 17.366093336853524 7.430195148188562 0 0 1
709 1 29.71846342877283 16.8578587209664 9.423807580145688 0 0 0
1795 1 31.296863266435686 17.659835804450463 7.119106079924663 0 0 1
71 1 33.088897743254165 15.569598355811795 6.368542728454631 0 0 0
611 1 36.28990924189226 17.93390627177052 8.174959481428788 0 0 0
1871 1 40.609464114354296 16.085209923204697 6.62407487998272 0 0 1
3355 1 42.252729836333145 18.31697592311425 6.766818906641678 0 0 0
1064 1 45.71163047026313 17.147864088415602 9.323446062215684 -1 0 0
525 1 44.78080789873118 17.285468553341957 6.607503045963638 0 0 0
126 1 47.91151867688548 15.651170918422082 9.875013762221567 0 0 0
2287 1 -0.05108249257832492 20.12353207452115 5.504474127010407 0 0 0
2368 1 4.423497449585422 19.60899277160175 9.256850549145424 0 1 0
864 1 6.41523066625367 17.912238808818298 6.162710241324171 0 0 0
210 1 10.93989903681728 18.49457835456133 8.034147133881504 0 0 0
3801 1 18.236307177159304 19.800430553673312 6.698560017774865 0 0 1
2261 1 20.853884754530977 18.334328601109338 9.797874267615047 0 0 0
3174 1 21.99149829046613 18.7639673916635 7.425836010573883 0 0 0
2565 1 25.34187710079817 18.417772033057076 9.86158531360959 0 0 0
976 1 24.507331649585236 22.754861598157742 8.228619232147919 0 0 0
2214 1 28.128494302042103 20.23031062751098 6.839786804545938 0 0 0
3731 1 27.878435006865725 19.129345172996548 9.437647973397748 0 0 0
2244 1 32.39443091957861 20.067746791333548 8.296069730747693 0 0 0
2636 1 34.9001788477963 20.321206638238223 7.499025517002435 0 0 0
1272 1 45.61480026523881 21.261427184008994 7.65034218590292 -1 0 0
427 1 1.4017132762454416 23.06651957790854 8.636575140896731 0 0 0
2491 1 3.49771685607974 21.5561346276303 7.571923000014596 1 0 0
255 1 5.472359739589436 23.354145740875836 6.384754729907672 1 0 0
3777 1 10.087120537485012 22.63061261358883 7.654933448082781 1 0 1
2158 1 15.162120596917523 22.823342030293517 6.219993640452722 0 0 0
77 1 12.800227590009547 21.472855805948097 10.438192798013086 0 0 0
2239 1 17.719199916852542 22.58931718975481 7.211558650449159 0 0 0
3383 1 21.765852617403812 23.35988646460082 7.830047882984662 0 0 0
2226 1 30.603735019660977 21.9848353010185 7.1850102029301555 0 0 0
2608 1 30.263007964100343 23.894046236566687 8.831843836831299 0 0 0
2813 1 48.04073445221384 4.017667615256392 16.301183809828803 -1 1 0
1796 1 36.412894375929795 22.0405059650174 8.963868211570379 0 0 1
844 1 38.99778997009075 22.962942989393188 7.883778982131037 0 0 1
3453 1 41.586482413666346 22.12324800094158 9.126994893201763 -1 0 0
4152 1 43.47046751242708 22.786161959768574 7.0916156559497745 -1 0 1
1709 1 47.890122001732635 22.897557263687407 7.708056465149124 0 0 1
835 1 5.2303232230518955 21.44294473422959 13.608174376358678 0 0 0
56 1 3.16977261555833 0.9595635139027436 12.744810307001007 1 0 0
1557 1 38.37981282900628 -0.29668466611640787 15.470840050461078 0 0 1
2923 1 7.607916992239076 0.47522276712800526 9.863115650312398 0 1 0
938 1 9.205758134624496 0.6199593957453433 12.48864866970003 0 1 0
1826 1 21.879568293340114 2.684966064306621 12.802646714814355 0 0 1
3505 1 39.3867725046333 4.64322376327464 16.120452125999353 -1 1 0
1196 1 30.091794408607484 1.900370191620576 12.430455733752773 0 0 0
394 1 34.258711398710886 2.7023395330084226 11.218337078507421 0 0 0
997 1 44.17881089386333 2.390688498123457 10.85000356591717 0 0 0
744 1 46.29029811080703 1.0210261757244157 11.945495012079606 0 0 0
3117 1 49.61630556699741 2.7509144412210995 9.469592102460535 0 1 0
314 1 1.035024509935132 6.153520279126821 11.386602511202518 1 0 0
575 1 1.2903302800146053 3.3720694621405882 10.005224686395378 1 0 0
475 1 2.983977231353606 3.690796287002467 12.266398833220492 1 0 0
530 1 6.65677800386058 4.077051410022657 8.9101687105854 0 0 0