
# Create simulation box of size 50 x 50 x 50 Angstrom
#
lattice	            sc 1
Lattice spacing in x,y,z = 1.0000000 1.0000000 1.0000000
region 	            all block 0 50 0 50 0 50 units box
create_box          1 all
Created orthogonal box = (0.0000000 0.0000000 0.0000000) to (50.000000 50.000000 50.000000)
  1 by 2 by 3 MPI processor grid

# fill box with 4175 randomly distributed atoms
#
create_atoms        1 random 4175 63782 all
Created 4175 atoms
  create_atoms CPU = 0.001 seconds
mass                1 18.015

# Define potential
#
pair_style          sw
pair_coeff          * * ML_mW.sw mW
Reading sw potential file ML_mW.sw with DATE: 2019-02-27

# Run minimization
#
minimize            1.0e-8 1.0e-8 10000 1000
WARNING: Using 'neigh_modify every 1 delay 0 check yes' setting during minimization (../min.cpp:187)
Neighbor list info ...
  update every 1 steps, delay 0 steps, check yes
  max neighbors/atom: 2000, page size: 100000
  master list distance cutoff = 6.0032907
  ghost atom cutoff = 6.0032907
  binsize = 3.0016454, bins = 17 17 17
  1 neighbor lists, perpetual/occasional/extra = 1 0 0
  (1) pair sw, perpetual
      attributes: full, newton on
      pair build: full/bin/atomonly
      stencil: full/bin/3d
      bin: standard
Per MPI rank memory allocation (min/avg/max) = 4.255 | 4.258 | 4.261 Mbytes
Step Temp E_pair E_mol TotEng Press 
       0            0    7792709.3            0    7792709.3    5898794.3 
     630            0   -45180.336            0   -45180.336   -154.07449 
Loop time of 1.14526 on 6 procs for 630 steps with 4175 atoms

98.5% CPU use with 6 MPI tasks x no OpenMP threads

Minimization stats:
  Stopping criterion = max force evaluations
  Energy initial, next-to-last, final = 
      7792709.32924461  -45180.0188663597   -45180.336116598
  Force two-norm initial, final = 2.0191930e+08 4.9721331
  Force max component initial, final = 1.0948746e+08 0.73126211
  Final line search alpha, max atom move = 0.053306038 0.038980685
  Iterations, force evaluations = 630 1000

MPI task timing breakdown:
Section |  min time  |  avg time  |  max time  |%varavg| %total
---------------------------------------------------------------
Pair    | 0.88252    | 0.98276    | 1.0636     |   5.9 | 85.81
Neigh   | 0.023809   | 0.024353   | 0.024753   |   0.2 |  2.13
Comm    | 0.0376     | 0.11847    | 0.21966    |  17.1 | 10.34
Output  | 0          | 0          | 0          |   0.0 |  0.00
Modify  | 0          | 0          | 0          |   0.0 |  0.00
Other   |            | 0.01968    |            |       |  1.72

Nlocal:        695.833 ave         704 max         685 min
Histogram: 1 1 0 0 1 0 0 1 0 2
Nghost:        1494.17 ave        1515 max        1468 min
Histogram: 1 1 0 0 0 0 1 1 1 1
Neighs:        0.00000 ave           0 max           0 min
Histogram: 6 0 0 0 0 0 0 0 0 0
FullNghs:      19997.0 ave       20462 max       19320 min
Histogram: 1 1 0 0 0 0 0 2 0 2

Total # of neighbors = 119982
Ave neighs/atom = 28.738204
Neighbor list builds = 26
Dangerous builds = 0

# Add velocity/set timestep
#
velocity            all create ${TEMP} 120598 rot yes dist gaussian
velocity            all create 220 120598 rot yes dist gaussian
timestep            5.0

# Define output
#
compute	            1 all msd
thermo	            100
thermo_style        custom step temp press vol etotal ke pe c_1[4] density

# Neighbor lists
#
neigh_modify        delay 0 every 1 check yes

# Set fixes
#
fix                 1 all momentum 10 linear 1 1 1 rescale
fix                 2 all nve
fix                 3 all temp/csvr ${TEMP} ${TEMP} 500.0 928347
fix                 3 all temp/csvr 220 ${TEMP} 500.0 928347
fix                 3 all temp/csvr 220 220 500.0 928347
fix                 4 all press/berendsen iso ${PRES} ${PRES} 1000.0 modulus 20000
fix                 4 all press/berendsen iso -250 ${PRES} 1000.0 modulus 20000
fix                 4 all press/berendsen iso -250 -250 1000.0 modulus 20000

# Run 0.5 ns equilibration
#
dump                1 all custom 1000 eq.${NAME}.dump id type x y z vx vy vz
dump                1 all custom 1000 eq.liquid_density_MLmW.dump id type x y z vx vy vz
run                 100000
Per MPI rank memory allocation (min/avg/max) = 3.506 | 3.508 | 3.511 Mbytes
Step Temp Press Volume TotEng KinEng PotEng c_1[4] Density 
     630          220    846.92133       125000   -42443.118    2737.2183   -45180.336 2.7295415e-33   0.99914793 
     700    140.24996   -219.96827    125702.64   -41600.181    1744.9761   -43345.157   0.25883717   0.99356301 
     800    173.65797   -393.24084    125815.02   -40836.004    2160.6352    -42996.64   0.60080963   0.99267553 
     900    191.53126   -144.48994    125768.89   -40416.003     2383.013   -42799.016    1.0081261    0.9930396 
    1000    202.62787   -359.12369    125970.55   -40140.556    2521.0759   -42661.632    1.4218183    0.9914499 
    1100    215.87446    -292.8461    125864.53   -39960.715    2685.8887   -42646.604    1.7698464   0.99228504 
    1200     211.7954   -203.17861    125862.24   -40002.545    2635.1374   -42637.682    2.1887201   0.99230307 
    1300    216.41937   -141.16826    126013.93   -39996.639    2692.6684   -42689.308    2.5570779   0.99110861 
    1400    210.53406   -141.65316    126089.18   -40011.303     2619.444   -42630.747    2.9340577   0.99051712 
    1500    217.45951   -232.28135    126135.45   -39961.862    2705.6097   -42667.472    3.2316506   0.99015376 
    1600    225.97739   -47.970947    125918.59   -39883.983    2811.5883   -42695.571    3.5479554   0.99185901 
    1700    217.46574    21.392525     126353.7   -39896.488    2705.6872   -42602.175    3.9202805   0.98844347 
    1800     217.0674   -231.68527    126447.57   -39984.821    2700.7312   -42685.552     4.274207   0.98770969 
    1900    220.59651   -25.615302    126592.05   -39983.156    2744.6399   -42727.796    4.7065731   0.98658244 
    2000    217.47032   -88.661042     126736.9   -39916.413    2705.7442   -42622.157     5.047181   0.98545483 
    2100     223.3641   -138.41498    127198.79   -39862.166     2779.074    -42641.24    5.4372336   0.98187637 
    2200    224.39249   -152.01162    127128.95    -39891.14    2791.8692   -42683.009    5.8636122    0.9824158 
    2300    222.47279   -570.20617    127282.76   -39892.569    2767.9845   -42660.553    6.2596601   0.98122863 
    2400    221.75075   -73.996924    127411.36   -39919.913    2759.0009   -42678.914    6.7096063   0.98023829 
    2500     224.6317   -437.74081    127475.96   -39899.307    2794.8454   -42694.152    7.0701196    0.9797415 
    2600    231.30865   -116.15319     127662.5   -39873.595    2877.9194   -42751.514    7.4812317   0.97830992 
    2700    225.01452     5.854256    127756.08   -39911.291    2799.6085     -42710.9    7.9024534    0.9775933 
    2800    227.64071    -306.8694    127814.82   -39890.946    2832.2832    -42723.23    8.2997805   0.97714405 
    2900    222.69161   -61.962793    128023.71    -39974.86    2770.7071   -42745.567    8.5517462   0.97554968 
    3000    222.18258   -287.86272    127952.08   -40014.077    2764.3737    -42778.45    8.7874303    0.9760958 
    3100    220.03475   -186.02052    128205.41    -40009.18    2737.6506    -42746.83    9.1920926   0.97416707 
    3200    221.80831   -465.51234    128211.49   -40081.513    2759.7171    -42841.23    9.5105797   0.97412092 
    3300    227.46587   -288.45261    127983.78   -40098.548    2830.1078   -42928.656    9.8512265   0.97585404 
    3400    222.52165   -374.41532    128205.12   -40144.341    2768.5924   -42912.933    10.091322   0.97416929 
    3500    220.11279    -185.5921    128307.79   -40181.503    2738.6216   -42920.124    10.291285   0.97338976 
    3600    217.30677   -292.05907    128391.42   -40224.965    2703.7094   -42928.675    10.748899   0.97275574 
    3700    215.67955   -270.03085    128538.25   -40298.407    2683.4636   -42981.871    11.061042   0.97164459 
    3800    218.30477   -264.94071    128654.21   -40264.011    2716.1264   -42980.137    11.222122    0.9707688 
    3900    220.80753    -225.0342    128574.01   -40301.324    2747.2654    -43048.59    11.398093    0.9713743 
    4000    220.49341   -70.081249     128554.9    -40315.68    2743.3572   -43059.037    11.689258   0.97151871 
    4100    220.30668   -339.08686    128543.96   -40314.781    2741.0339   -43055.814    11.901957   0.97160137 
    4200    221.06105   -178.40946    128532.27   -40313.914    2750.4197   -43064.334    11.915846   0.97168975 
    4300    218.40889   -180.93873    128559.18   -40305.204    2717.4218   -43022.626    12.029499   0.97148635 
    4400    222.93509    -177.6975    128693.99   -40304.156    2773.7363   -43077.892    12.183912   0.97046875 
    4500    217.99153     -212.615    128836.58   -40313.937    2712.2291   -43026.166    12.353877   0.96939466 
    4600    218.52876   -236.00937    128766.76   -40365.245    2718.9133   -43084.158    12.529541   0.96992027 
    4700    223.70641   -368.49315     128559.2   -40292.425     2783.333   -43075.758    12.673167   0.97148623 
    4800    217.97611   -379.69254    128620.85   -40348.917    2712.0372   -43060.954    12.789472   0.97102058 
    4900    223.30807   -206.12154    128726.07   -40239.733     2778.377    -43018.11    12.798381   0.97022689 
    5000     223.5303   -303.40379    128856.01   -40192.081    2781.1419   -42973.223    13.035908    0.9692485 
    5100    221.48943    -287.9349    128801.26   -40259.418    2755.7496   -43015.167     13.11938   0.96966051 
    5200    220.26052   -316.14256    128807.69    -40316.57    2740.4596    -43057.03    13.279992   0.96961204 
    5300    219.32144    -257.4161    128743.84   -40309.222    2728.7757   -43037.998    13.472518   0.97009293 
    5400    216.91089   -183.97839    128579.73   -40337.641    2698.7839   -43036.425    13.620297   0.97133108 
    5500    221.33796   -286.76751    128729.41   -40333.625     2753.865    -43087.49     13.91535   0.97020169 
    5600     219.9169   -255.84611     128900.7   -40342.419    2736.1843   -43078.604    14.193063   0.96891242 
    5700    218.06217   -228.76671    129023.85   -40345.604     2713.108   -43058.712    14.376296   0.96798763 
    5800    218.90722   -294.39373    129161.71   -40385.317     2723.622   -43108.939     14.73596   0.96695444 
    5900    219.35626   -233.39656    129024.16   -40428.046     2729.209   -43157.255    15.031026   0.96798528 
    6000    217.19283   -145.36224    129043.53   -40430.234    2702.2918   -43132.526    15.181654   0.96784001 
    6100    223.30719   -382.04736     129054.8   -40365.518     2778.366   -43143.884    15.095545   0.96775552 
    6200    219.96353   -227.51158    129075.85   -40440.516    2736.7645    -43177.28    15.239511   0.96759765 
    6300    220.80762   -3.0153472    129206.27   -40419.845    2747.2666   -43167.112    15.259268   0.96662097 
    6400    220.32538   -106.00421    129158.89   -40408.392    2741.2666   -43149.659    15.318495   0.96697559 
    6500    222.55805   -151.11995    129031.92    -40366.87    2769.0452   -43135.915    15.770488    0.9679271 
    6600     215.7509   -237.74355    128929.84   -40447.646    2684.3514   -43131.997    15.921426   0.96869342 
    6700    215.38308   -255.48858    129055.92    -40508.38     2679.775   -43188.155    15.963745   0.96774713 
    6800    219.02436   -243.19338    129079.67   -40427.834    2725.0794   -43152.914    16.148251   0.96756905 
    6900    223.24583   -164.30596    129162.65   -40361.849    2777.6026   -43139.452     16.29711   0.96694743 
    7000    226.25238   -79.028283    129356.18   -40354.538    2815.0097   -43169.548     16.45893   0.96550075 
    7100     221.1998   -219.90971    129590.36   -40380.795     2752.146   -43132.941    16.747281   0.96375604 
    7200    220.91442   -535.79796    129382.57    -40442.54    2748.5954   -43191.135    16.955358    0.9653038 
    7300    219.08703   -285.41239    129530.66   -40508.157    2725.8592   -43234.016    16.989173   0.96420024 
    7400    218.01267   -83.894615    129540.11    -40521.27    2712.4921   -43233.762    16.929663   0.96412985 
    7500    214.47363   -228.89995     129711.3   -40489.041    2668.4597   -43157.501     17.06056   0.96285746 
    7600    217.52459   -289.96448    129656.19   -40578.417    2706.4194   -43284.837    17.246723    0.9632667 
    7700    219.47994   -226.90659    129806.19   -40482.157    2730.7478   -43212.905    17.580982   0.96215357 
    7800    225.94828    -147.4879    130007.13   -40470.536    2811.2261   -43281.762      17.8693   0.96066648 
    7900    217.10077   -317.92198    129862.78   -40546.139    2701.1463   -43247.286      17.9781   0.96173434 
    8000    222.35111   -124.59776    129931.83    -40530.06    2766.4705   -43296.531    18.001566   0.96122323 
    8100    214.86161   -213.75763    129849.92   -40602.691     2673.287   -43275.978    18.039004   0.96182953 
    8200    215.99041   -353.47505    129752.35   -40621.396    2687.3314   -43308.727    18.177788   0.96255282 
    8300    216.66994   -177.74035    129739.19   -40605.228    2695.7859   -43301.014    18.417434   0.96265047 
    8400     217.5586   -379.42509    129847.55   -40556.707    2706.8426    -43263.55    18.527734   0.96184715 
    8500     218.6292   -178.58656    129626.34   -40491.498    2720.1629   -43211.661    18.682075   0.96348849 
    8600    217.40361   -58.226179    129669.76   -40513.192    2704.9143   -43218.106     18.83449   0.96316594 
    8700    218.24873    -342.6805     129887.4    -40491.88    2715.4291   -43207.309    18.882548     0.961552 
    8800    220.46046   -235.99753    129762.48   -40534.347    2742.9472   -43277.294    18.895989    0.9624777 
    8900    215.83304   -225.95386    129774.94   -40624.042    2685.3734   -43309.416    19.123998   0.96238528 
    9000    223.07505   -255.13037    129823.83   -40590.187    2775.4778   -43365.665    19.170453   0.96202284 
    9100    215.17862   -165.22808    129750.61   -40647.224    2677.2311   -43324.455    19.302826   0.96256573 
    9200    219.59041     -445.732    129701.38   -40556.191    2732.1221   -43288.314    19.442895   0.96293107 
    9300    217.68335   -291.59098    129812.23    -40598.85    2708.3947   -43307.244    19.538122   0.96210881 
    9400    221.76746   -228.94263    129723.75   -40566.583    2759.2088   -43325.792    19.432849   0.96276507 
    9500    216.13332   -90.762098    130071.21   -40580.661    2689.1093    -43269.77    19.711825   0.96019323 
    9600    220.23733   -330.82127    130227.93   -40534.012    2740.1711   -43274.183     19.87729   0.95903764 
    9700    220.97705   -373.23423    130255.47   -40458.121    2749.3746   -43207.496    20.032183   0.95883491 
    9800    224.22595   -347.56436    130303.16   -40538.131    2789.7971   -43327.929    20.240669   0.95848396 
    9900     215.5652   -176.95151    130176.19   -40610.574    2682.0409   -43292.615    20.392846   0.95941887 
   10000    217.69747   -63.129013    130107.78   -40615.716    2708.5704   -43324.287    20.462122   0.95992334 
   10100    219.00755   -137.23268     130193.8   -40593.266    2724.8703   -43318.136    20.617842   0.95928911 
   10200    214.51796   -225.61318     130298.1   -40647.587    2669.0113   -43316.598    20.728097   0.95852118 
   10300    216.23141   -244.86606    130558.59   -40647.358    2690.3298   -43337.688    20.883115   0.95660875 
   10400    220.02199   -360.07576     130481.3   -40603.314    2737.4918   -43340.806    20.921368    0.9571754 
   10500    219.50421   -98.313063    130507.09   -40587.368    2731.0497   -43318.417    21.059422   0.95698623 
   10600    225.76491   -251.47078    130544.23   -40533.233    2808.9447   -43342.178    21.134879     0.956714 
   10700    221.22915   -297.31408    130378.33   -40521.239    2752.5113    -43273.75    21.144464   0.95793137 
   10800    225.53693   -155.82748     130528.6   -40507.947    2806.1082   -43314.055    21.220278   0.95682852 
   10900    222.49926    -122.1586    130323.33   -40554.918    2768.3138   -43323.232    21.576839   0.95833562 
   11000    221.85589   -159.73328    130298.86   -40564.234     2760.309   -43324.543    21.623876   0.95851558 
   11100    219.69179   -187.49741    130444.52   -40604.071    2733.3835   -43337.455    21.717137   0.95744528 
   11200    224.90149   -356.91144    130323.68   -40600.618    2798.2021    -43398.82    21.698969   0.95833309 
   11300    220.11968   -248.13717    130326.57   -40598.288    2738.7074   -43336.995    21.800471   0.95831184 
   11400    217.92787   -219.74314    130488.99    -40619.21     2711.437   -43330.647    22.003014   0.95711897 
   11500    219.17873     -245.731    130331.35   -40652.603    2727.0001   -43379.603    22.033266   0.95827667 
   11600    217.28605    -244.9475    130357.61   -40661.363    2703.4516   -43364.814    22.253466   0.95808365 
   11700    223.17391   -142.25998    130346.15   -40570.162    2776.7077    -43346.87    22.432446   0.95816786 
   11800    221.23875   -323.88862    130283.16    -40634.95    2752.6306    -43387.58    22.591183   0.95863109 
   11900    223.08539   -235.64232    130328.96   -40641.272    2775.6063   -43416.878    22.554919   0.95829424 
   12000    216.78274   -152.57455     130475.1    -40650.21    2697.1894   -43347.399    22.538382   0.95722089 
   12100    223.82322   -94.674221    130524.84   -40597.986    2784.7864   -43382.772    22.686948    0.9568561 
   12200    219.92217   -180.82732    130678.68   -40592.407    2736.2499   -43328.657    22.915432   0.95572965 
   12300    221.26449   -123.34471    130743.08   -40608.611    2752.9509   -43361.562    22.935172   0.95525892 
   12400    224.14262   -407.70307    130797.94   -40607.752    2788.7603   -43396.512    23.175892   0.95485825 
   12500    218.73069   -316.01287    130671.33   -40698.802    2721.4256   -43420.228    23.353285   0.95578345 
   12600     218.7904   -98.395747    130744.06   -40609.903    2722.1685   -43332.072     23.29308   0.95525174 
   12700    223.82413   -258.95984     130783.2   -40583.709    2784.7977   -43368.507    23.617449   0.95496584 
   12800    224.17514    -236.4868    130592.03   -40574.036    2789.1649   -43363.201    23.703595    0.9563638 
   12900    221.25646   -354.64142    130666.62   -40629.669     2752.851    -43382.52    23.688758    0.9558179 
   13000    221.63331   -361.83493    130887.29   -40578.426    2757.5397   -43335.965    23.757074   0.95420641 
   13100    221.42568   -243.29748    130970.59   -40570.048    2754.9565   -43325.005     23.91638   0.95359953 
   13200    221.94621    -116.7673       130692   -40486.753    2761.4329   -43248.186    24.036156   0.95563224 
   13300    226.51385   -245.30516    130598.45   -40546.119    2818.2629   -43364.382    24.291765   0.95631682 
   13400    219.16087   -201.14411    130511.94   -40632.553    2726.7779   -43359.331     24.33527   0.95695068 
   13500    220.54698   -360.37088    130566.86   -40674.344    2744.0238   -43418.367    24.334566   0.95654816 
   13600    218.07826   -281.70145    130547.33   -40699.403    2713.3082   -43412.711    24.305305   0.95669129 
   13700    218.01985   -281.07044    130558.67   -40710.044    2712.5815   -43422.626     24.53611   0.95660821 
   13800    221.44242   -106.87602    130496.13   -40611.482    2755.1647   -43366.646    24.738043   0.95706664 
   13900    218.79102   -209.59206    130692.21   -40646.223    2722.1762   -43368.399    24.987698    0.9556307 
   14000    219.48671   -329.97155    130700.91   -40640.671    2730.8319   -43371.503    24.949224    0.9555671 
   14100    219.62789   -224.98046     130622.7   -40643.002    2732.5885   -43375.591     24.88973   0.95613928 
   14200    215.59694    -176.1285    130603.85   -40688.241    2682.4358   -43370.677    25.104709   0.95627727 
   14300    216.70484    -137.6873    130555.71   -40732.367    2696.2203   -43428.588    25.202809   0.95662987 
   14400    220.44662    -161.1886    130610.74   -40697.447     2742.775   -43440.222    25.253552   0.95622682 
   14500     221.4036   -284.87503    130558.74   -40647.605    2754.6817   -43402.287    25.179696   0.95660767 
   14600    219.19028   -259.11979     130588.2   -40662.975    2727.1438   -43390.119    25.378721   0.95639183 
   14700    217.36694    -22.82606    130625.38    -40702.58     2704.458   -43407.038    25.559614   0.95611962 
   14800    216.93254   -236.58599    130595.84   -40740.686    2699.0532   -43439.739     25.72839   0.95633588 
   14900    214.95971    -274.2661    130491.33   -40808.443    2674.5074    -43482.95    25.736008   0.95710185 
   15000    214.82402   -337.02241    130615.81   -40817.047    2672.8192   -43489.866    26.147565    0.9561897 
   15100    215.78751   -300.37836    130814.31   -40841.812    2684.8069   -43526.619    26.251657   0.95473875 
   15200    212.88426   -231.14776    130756.31   -40775.158     2648.685   -43423.843    26.373455   0.95516226 
   15300    216.17612   -225.68879    130853.83   -40800.389    2689.6419   -43490.031     26.55264   0.95445039 
   15400    214.05346   -198.72416    130958.87   -40783.625     2663.232   -43446.857    26.662228   0.95368485 
   15500    217.58128   -382.61041     130931.6    -40765.21    2707.1248   -43472.335    26.781129   0.95388346 
   15600    221.09871   -238.36894     130799.6   -40690.856    2750.8883   -43441.744    26.884104   0.95484611 
   15700    215.02682   -208.74036    130768.55   -40766.678    2675.3424   -43442.021    27.021381   0.95507286 
   15800    217.94853   -99.605549    130876.03   -40753.902    2711.6941   -43465.596    27.084582   0.95428848 
   15900    221.49545   -166.67962    130943.11   -40789.197    2755.8245   -43545.022     27.17416    0.9537996 
   16000    222.32103   -441.61275    130798.53   -40724.034    2766.0963   -43490.131     27.13432   0.95485396 
   16100    220.66411    20.675579    131066.94   -40671.197    2745.4811   -43416.678    27.209687   0.95289854 
   16200    214.38924   -323.29877    131042.19   -40703.164    2667.4097   -43370.574    27.249374   0.95307847 
   16300    219.92127   -369.67056    130903.39   -40704.878    2736.2387   -43441.116    27.500815   0.95408905 
   16400    223.71628   -302.66881    130716.38   -40611.679    2783.4558   -43395.135    27.668916   0.95545402 
   16500    221.12843   -341.93825    130764.02   -40603.829    2751.2581   -43355.087    28.002269   0.95510591 
   16600    224.37058   -172.97785    130882.57    -40582.33    2791.5966   -43373.926    28.142534   0.95424079 
   16700    221.87771   -186.19375    130826.04   -40600.406    2760.5805   -43360.986      28.1553   0.95465316 
   16800    219.51151    -344.6703    130804.72   -40589.774    2731.1405   -43320.915    28.066194   0.95480877 
   16900    219.52702   -163.90192    130802.51   -40559.889    2731.3334   -43291.223    28.122455   0.95482492 
   17000    221.98168    -256.4373    130864.82   -40581.174    2761.8741   -43343.048     28.31607   0.95437023 
   17100    220.11763   -340.24582    130780.17     -40494.9    2738.6818   -43233.581    28.741858   0.95498797 
   17200    225.39092   -303.56668    130943.34   -40516.566    2804.2916   -43320.857    29.011821   0.95379798 
   17300    221.76652   -482.38489    131010.93   -40569.835    2759.1971   -43329.033    29.128029   0.95330591 
   17400    218.07136   -133.89624    130809.71   -40598.169    2713.2223   -43311.392    29.040743    0.9547723 
   17500    222.25227   -311.48518    130925.62   -40589.239    2765.2408   -43354.479    29.167057   0.95392705 
   17600    225.52187   -407.67522     131053.2     -40553.7    2805.9208   -43359.621    29.500267   0.95299843 
   17700    214.60168   -170.87666    131001.35   -40575.301    2670.0529   -43245.354    29.480749   0.95337563 
   17800    216.65815   -323.23827    131103.68   -40587.882    2695.6392   -43283.521    29.741845   0.95263147 
   17900    223.37791   -256.59333     131071.5   -40565.388    2779.2458   -43344.634    29.810357   0.95286536 
   18000    225.34886   -319.07863    131064.58   -40512.997    2803.7682   -43316.766    30.001856   0.95291569 
   18100    217.95976   -306.19309    131089.41   -40614.541    2711.8338   -43326.374    29.903794   0.95273515 
   18200    221.83349   -216.06384    130892.44   -40617.771    2760.0303   -43377.801    29.824572   0.95416884 
   18300    225.29811   -416.93276    130992.94   -40522.485    2803.1368   -43325.622     29.97379   0.95343685 
   18400    218.27523   -226.76747    130835.03    -40602.72    2715.7588   -43318.479    30.023494   0.95458754 
   18500    227.28049   -405.90998    130797.32   -40565.386    2827.8014   -43393.187     30.16465   0.95486274 
   18600    217.78417   -356.96685     130741.8   -40625.726    2709.6491   -43335.375    30.370588   0.95526828 
   18700      222.456   -106.81814    130773.97   -40578.998    2767.7755   -43346.774    30.249632   0.95503326 
   18800    223.49404     -318.291    130645.22   -40554.316    2780.6908   -43335.007    30.405935   0.95597446 
   18900    219.55636   -214.92874    130548.38   -40578.485    2731.6986   -43310.184    30.440741   0.95668356 
   19000    219.71368   -176.26356    130700.56   -40541.661    2733.6559   -43275.317    30.854735    0.9555697 
   19100    218.37809   -295.99455    130578.74   -40585.599    2717.0386   -43302.637    30.851939   0.95646114 
   19200    220.79665    -139.3442    130451.76   -40560.886      2747.13   -43308.016     30.99868   0.95739212 
   19300    221.18244   -390.35722    130364.24   -40517.824      2751.93   -43269.754    31.130231    0.9580349 
   19400    221.18231   -108.08109    130370.82   -40516.175    2751.9284   -43268.103    31.251424   0.95798656 
   19500    218.67504   -66.352393    130470.78    -40497.05    2720.7332   -43217.783    31.471066   0.95725262 
   19600    222.14818   -203.48356    130439.13   -40526.422    2763.9457   -43290.368    31.672363   0.95748488 
   19700    226.99557   -177.63745    130321.41   -40514.219    2824.2565   -43338.476    31.855405   0.95834974 
   19800    224.31139   -292.29801    130423.93   -40570.214    2790.8602   -43361.074    31.926029   0.95759647 
   19900     221.5165   -465.90368    130268.84   -40578.339    2756.0863   -43334.426    32.015939   0.95873648 
   20000    219.25587   -349.93382    130080.81   -40622.748    2727.9599   -43350.707    31.921632    0.9601223 
   20100    224.95785    -188.7105    130213.05    -40583.56    2798.9033   -43382.464    31.972758   0.95914727 
   20200    219.97369   -383.45247    130336.93   -40628.702    2736.8909   -43365.593    32.237972   0.95823564 
   20300    218.63725   -197.99485    130280.58   -40661.086     2720.263   -43381.349    32.374597    0.9586501 
   20400    217.20144   -302.01378    130272.42   -40658.425    2702.3989   -43360.824    32.775576   0.95871015 
   20500    224.04614   -258.21144    130486.94   -40617.156    2787.5599   -43404.716    32.821395   0.95713401 
   20600    219.23508   -326.61271    130468.03   -40651.808    2727.7012    -43379.51     32.86429   0.95727276 
   20700    222.22328   -231.31259    130645.19   -40604.911    2764.8801   -43369.791    32.949536   0.95597469 
   20800    218.65307   -306.87914     130614.4   -40594.128    2720.4598   -43314.587    33.208455   0.95620004 
   20900    218.85416   -148.61889       130531   -40619.552    2722.9618   -43342.514    33.212186   0.95681094 
   21000    214.81684   -233.11668    130759.43   -40699.915    2672.7299   -43372.645    33.319167   0.95513948 
   21100    216.96586   -137.05183    130610.64   -40722.235    2699.4677   -43421.703    33.327698   0.95622755 
   21200    218.71172   -227.83998    130637.94   -40701.451    2721.1896    -43422.64    33.800279   0.95602775 
   21300    216.23125   -272.04814    130470.46   -40718.087    2690.3279   -43408.414    33.747954   0.95725496 
   21400    219.91085   -254.02038    130535.56   -40682.409    2736.1091   -43418.519    33.794705   0.95677751 
   21500    215.55955   -261.17453    130593.86   -40685.521    2681.9706   -43367.491    33.927329   0.95635038 
   21600    220.93696   -113.71588    130707.55   -40640.719    2748.8759   -43389.595    34.416403   0.95551857 
   21700    223.46694   -224.16974    130868.42   -40618.411    2780.3536   -43398.765    34.726897   0.95434398 
   21800    219.16045   -191.08613    130898.86   -40614.482    2726.7727   -43341.255    34.776293   0.95412209 
   21900    220.41329   -85.571175    131041.11   -40631.814    2742.3604   -43374.174    34.932212   0.95308632 
   22000    217.06423   -313.64543    130961.83   -40666.894    2700.6916   -43367.586    34.958002    0.9536633 
   22100     223.4574   -316.18381    130671.24   -40616.042    2780.2349   -43396.277    35.030742   0.95578409 
   22200    222.69768   -352.56148    130681.85   -40651.716    2770.7825   -43422.498    35.405259   0.95570651 
   22300    220.20606    46.451063    130456.98   -40626.233     2739.782   -43366.015    35.374854   0.95735381 
   22400    218.59889   -43.390426    130567.94   -40592.911    2719.7858   -43312.697    35.599797   0.95654026 
   22500    223.10473   -363.42294    130614.12   -40595.806     2775.847   -43371.652    35.573915   0.95620204 
   22600    219.27275   -379.29068    130622.72   -40581.188    2728.1699   -43309.358      35.5975   0.95613914 
   22700    221.29131    -296.7858    130856.58   -40589.032    2753.2847   -43342.317    35.794443   0.95443032 
   22800    224.85294   -315.53418    130539.69   -40565.364    2797.5981   -43362.962    35.826403   0.95674723 
   22900    221.50167   -186.43277    130664.55   -40613.811    2755.9019   -43369.713     35.92811   0.95583303 
   23000    222.48906   -190.33408    130891.48   -40609.738    2768.1869   -43377.925     36.27491   0.95417589 
   23100    221.16267    -405.8257    130734.31   -40719.354     2751.684   -43471.038    36.368702   0.95532298 
   23200    219.51437   -401.25183    130662.37    -40670.81    2731.1761   -43401.986    36.397917   0.95584894 
   23300    217.82446   -163.79645    130789.98   -40720.559    2710.1504   -43430.709    36.442618   0.95491638 
   23400    221.20447   -108.50624    131088.86   -40639.385    2752.2041   -43391.589    36.611744   0.95273919 
   23500    220.41119   -231.47051    131196.19   -40681.621    2742.3342   -43423.956    36.744175   0.95195974 
   23600    217.63316   -308.59577    131025.84   -40658.274    2707.7703   -43366.044    36.934338   0.95319738 
   23700    220.29006   -99.028971    131025.11   -40688.976    2740.8271   -43429.803    36.972131   0.95320275 
   23800    216.92385   -189.01344    130831.39    -40741.37    2698.9451   -43440.315    36.933034   0.95461414 
   23900    218.89317   -234.72472    130879.01   -40753.562    2723.4472   -43477.009    37.104282   0.95426676 
   24000    223.31243   -208.95426    131006.04   -40686.201    2778.4312   -43464.632    37.302078    0.9533415 
   24100    222.38337   -277.00827    130959.16   -40698.424    2766.8719   -43465.296    37.440451   0.95368277 
   24200    215.82867    -306.7673    131069.41   -40757.966     2685.319   -43443.285    37.789211   0.95288057 
   24300    217.79134   -147.06669    131039.05   -40731.923    2709.7383   -43441.661    37.891088    0.9531013 
   24400     212.2445   -308.87326    131299.47   -40775.042    2640.7251   -43415.767     37.97954   0.95121091 
   24500    219.90019   -300.36628    131298.87    -40719.12    2735.9764   -43455.097    37.964303    0.9512153 
   24600    221.07337   -176.65495    131413.58   -40709.361     2750.573   -43459.934    37.966061   0.95038496 
   24700    214.59354   -376.00907    131335.54   -40736.302    2669.9517   -43406.253    38.135669    0.9509497 
   24800    217.80458    -175.4884    131298.03   -40726.524     2709.903   -43436.427    38.207608   0.95122139 
   24900    220.41433   -95.197734    131158.46   -40668.044    2742.3733   -43410.418    38.142894   0.95223356 
   25000     220.3188    -358.2724    131082.37   -40651.367    2741.1848   -43392.552    38.275505   0.95278632 
   25100    222.41316   -429.54277    131046.98   -40652.496    2767.2426   -43419.739    38.614388   0.95304364 
   25200    220.69366   -196.00327    131026.83   -40696.826    2745.8487   -43442.675    38.767719    0.9531902 
   25300    220.90417   -168.83514    131057.02   -40704.206    2748.4679   -43452.674    38.813541   0.95297064 
   25400     219.3145   -83.258903    131343.57   -40694.158    2728.6894   -43422.847    38.923818   0.95089153 
   25500    219.20294   -331.32915     131396.5   -40652.968    2727.3013   -43380.269    38.761508   0.95050853 
   25600    216.49408   -371.35888     131395.7   -40714.983     2693.598   -43408.581    38.954713    0.9505143 
   25700    215.61857   -290.22546    131358.98   -40736.818    2682.7049   -43419.523    39.088841   0.95078003 
   25800    222.58703    -236.9993    131248.08   -40720.667    2769.4058   -43490.072    38.986021   0.95158339 
   25900    220.94167   -122.86991    131284.81   -40672.388    2748.9344   -43421.322    39.108622   0.95131712 
   26000    222.26502   -310.59693    131062.58   -40603.015    2765.3995   -43368.415    39.236241   0.95293019 
   26100    217.89718   -134.69147    131120.85   -40679.786    2711.0551   -43390.841    39.392638   0.95250675 
   26200    222.50762   -412.65017    130908.03   -40690.415    2768.4178   -43458.833    39.493296   0.95405524 
   26300    225.83869   -242.41075    130997.89   -40655.283    2809.8627   -43465.145    39.617458   0.95340079 
   26400    224.57961   -152.94765    131178.83    -40645.59    2794.1973   -43439.787    39.834519    0.9520857 
   26500    223.43974   -233.08675     131188.3   -40700.885    2780.0151     -43480.9    39.790896   0.95201697 
   26600    219.72198    -134.0474    131051.46   -40754.882    2733.7591   -43488.641    39.656604   0.95301106 
   26700    216.69172   -109.86919    131304.93   -40774.806     2696.057   -43470.863    39.880384   0.95117137 
   26800    219.30395    -132.1316    131250.26   -40711.988    2728.5581   -43440.546     40.17592   0.95156758 
   26900    218.17062   -319.04164    131065.91   -40729.105    2714.4573   -43443.562     40.40481   0.95290602 
   27000    220.67459   -332.18116    131172.09   -40768.804    2745.6115   -43514.415    40.311422   0.95213463 
   27100    220.76812    -26.39339    131368.96   -40793.737    2746.7751   -43540.512    40.317886   0.95070779 
   27200    218.62863   -427.56139    131252.84   -40826.382    2720.1558   -43546.537    40.456251    0.9515489 
   27300     216.9293   -265.02335    131164.28   -40854.979    2699.0129   -43553.992    40.532533   0.95219132 
   27400    218.96549   -453.91069     131075.7   -40786.549    2724.3469   -43510.896    40.564515   0.95283481 
   27500      220.944     -65.3812    131292.66   -40708.863    2748.9634   -43457.826    40.716082   0.95126027 
   27600    219.80963   -134.68691    131343.01    -40746.14    2734.8497   -43480.989    40.866352   0.95089558 
   27700    217.36184   -421.22709    131554.35   -40767.864    2704.3945   -43472.259    41.102637   0.94936802 
   27800     222.9503   -288.87721    131436.08   -40701.995    2773.9256   -43475.921    40.841692   0.95022229 
   27900     220.8771   -211.31138    131479.81   -40726.436     2748.131   -43474.567    40.826309   0.94990623 
   28000    223.24548   -307.85379    131462.32   -40770.842    2777.5982   -43548.441    40.885383   0.95003259 
   28100    221.01037   -173.36449    131455.33    -40742.21    2749.7891   -43491.999    40.828631   0.95008313 
   28200     218.3489   -75.319245    131376.92   -40797.344    2716.6754    -43514.02    40.799767   0.95065016 
   28300    215.17266   -280.97979     131449.5   -40791.682     2677.157   -43468.839    41.036891   0.95012528 
   28400    217.52796   -279.46567    131369.89   -40846.491    2706.4614   -43552.952    41.309444   0.95070104 
   28500    213.60446   -240.33983    131448.32   -40869.575    2657.6456   -43527.221    41.183535   0.95013377 
   28600    219.88636     -289.409    131538.01   -40814.583    2735.8044   -43550.387    41.288232   0.94948597 
   28700    216.98525   -343.60525    131509.59   -40823.263    2699.7091   -43522.972    41.398089   0.94969116 
   28800    218.85162    -291.0533    131622.58   -40781.819    2722.9302   -43504.749    41.485621   0.94887586 
   28900    219.74772    -183.3246    131803.92   -40752.759    2734.0794   -43486.838    41.708344   0.94757039 
   29000    221.41442   -374.05077    131757.61   -40833.872    2754.8163   -43588.689    42.079252   0.94790341 
   29100    219.18458   -165.45284    131752.57   -40770.781    2727.0729   -43497.854    42.130669   0.94793967 
   29200    215.67175   -130.46214    131784.63    -40730.89    2683.3666   -43414.256     42.20321   0.94770908 
   29300    221.05611   -282.41515    131675.14    -40783.43    2750.3583   -43533.788    42.332039   0.94849714 
   29400    221.52721    -232.9503    131609.93    -40830.69    2756.2197    -43586.91     42.03993    0.9489671 
   29500    218.74891    -116.6567    131672.38    -40869.76    2721.6523   -43591.413    42.388092   0.94851703 
   29600    217.98961   -194.67839    131681.85   -40783.485    2712.2052   -43495.691    42.532707    0.9484488 
   29700    218.94349   -286.66415    131810.54   -40830.736    2724.0732    -43554.81    43.089996   0.94752278 
   29800    222.17051   -229.31234    131741.61   -40811.593    2764.2235   -43575.817    43.302355   0.94801858 
   29900    217.31162   -360.82637    131816.61    -40848.89    2703.7697    -43552.66    43.374884   0.94747914 
   30000    217.02056   -218.76934    131828.07   -40824.661    2700.1484    -43524.81    43.284559   0.94739681 
   30100    220.72278   -343.02621    131877.47   -40821.193    2746.2111   -43567.404    43.240482   0.94704193 
   30200    220.92495   -220.63622    131774.62   -40837.787    2748.7264   -43586.514    43.403502    0.9477811 
   30300    219.25317   -220.20489    131792.17   -40807.351    2727.9263   -43535.277    43.515336   0.94765489 
   30400    219.68918   -337.03909    131828.97   -40792.059    2733.3511    -43525.41    43.583813   0.94739031 
   30500    220.54319   -216.67204    131733.03   -40795.021    2743.9766   -43538.998    43.667448   0.94808027 
   30600    224.10198   -252.41526    131901.62   -40788.081    2788.2547   -43576.336    43.759674    0.9468685 
   30700     219.3237   -379.61722    131630.05   -40808.995    2728.8038   -43537.799    43.566116   0.94882201 
   30800    222.44083    -138.8036    131593.33    -40749.79    2767.5868   -43517.377    43.530414   0.94908677 
   30900    224.86377   -109.87089    131630.31   -40879.352    2797.7328   -43677.085    43.763892   0.94882014 
   31000    218.14164   -380.15823    131574.28   -40919.108    2714.0967   -43633.205    43.958464   0.94922417 
   31100    217.41821   -388.80125    131601.73   -40908.707    2705.0959   -43613.803    44.014939    0.9490262 
   31200    214.32277    -338.0878    131605.07   -40911.335    2666.5828   -43577.917    44.038134    0.9490021 
   31300    215.63454   -286.39774    131343.02   -40851.719    2682.9036   -43534.623    44.067518   0.95089552 
   31400    218.82068   -154.79285     131255.7   -40803.797    2722.5453   -43526.342    44.211783    0.9515281 
   31500    214.42553   -122.92062    131207.23   -40835.716    2667.8612   -43503.578    44.364335   0.95187964 
   31600    218.50143   -307.31644    131567.85    -40766.72    2718.5732   -43485.293    44.586115   0.94927059 
   31700    217.99232   -119.62265    131336.24   -40799.017    2712.2389   -43511.256     44.53556    0.9509446 
   31800    225.45587    -308.7017    131249.49   -40733.796    2805.0996   -43538.896    44.651454   0.95157319 
   31900    225.38633    -180.9263    131147.77   -40725.162    2804.2345   -43529.396    44.614096    0.9523112 
   32000    221.89906   -125.52613    131081.17   -40713.282    2760.8461   -43474.128    44.701265   0.95279509 
   32100    217.27889   -87.892219     131259.9   -40711.382    2703.3625   -43414.745    45.009743   0.95149771 
   32200    221.69335   -426.17796    131384.44   -40707.617    2758.2868   -43465.904    45.225706   0.95059579 
   32300    220.79586   -316.77859    131190.32   -40686.118    2747.1203   -43433.238    45.221369   0.95200232 
   32400    219.53948   -130.57286    131172.87   -40742.884    2731.4885   -43474.373    45.246757   0.95212895 
   32500    217.31224   -193.01728    131364.33   -40753.064    2703.7774   -43456.841    45.175677   0.95074125 
   32600    224.14486   -153.69857    131568.93   -40690.132    2788.7882    -43478.92    45.479302   0.94926279 
   32700    214.72965    -285.7262    131235.58   -40763.739    2671.6451   -43435.384    45.524194   0.95167403 
   32800    216.46236    -46.58901    131507.02   -40798.301    2693.2033   -43491.505    45.882137   0.94970967 
   32900    218.45215   -153.65351    131488.66   -40799.833      2717.96   -43517.793    45.700704   0.94984229 
   33000    219.72442   -330.67552    131476.01   -40854.836    2733.7896   -43588.626    45.971076   0.94993371 
   33100    223.76463   -243.93345    131624.26   -40786.907    2784.0574   -43570.965    45.863025   0.94886378 
   33200    216.97354    -440.0685    131554.34   -40829.057    2699.5633   -43528.621    46.011605   0.94936811 
   33300     220.7869   -273.04588    131541.81   -40768.205    2747.0088   -43515.213    45.928026   0.94945851 
   33400    217.46186   -233.97996    131515.73   -40851.342     2705.639   -43556.981    46.218818   0.94964683 
   33500    217.89587   -225.30236    131270.83   -40815.811    2711.0389    -43526.85    46.242537   0.95141846 
   33600    218.85077    -244.1413     131530.9   -40786.293    2722.9197   -43509.213    46.481152   0.94953725 
   33700    220.45604   -211.38988    131595.65   -40784.928    2742.8922    -43527.82    46.551246   0.94907005 
   33800    219.34172   -261.63743    131445.53   -40772.407     2729.028   -43501.435    46.726643   0.95015394 
   33900    220.64355    -161.3208    131645.63    -40776.22    2745.2252   -43521.445    46.904677   0.94870976 
   34000    220.60176   -140.62042    131680.74   -40759.213    2744.7052   -43503.919    47.042365   0.94845678 
   34100    219.50016   -140.76434    131805.55   -40799.536    2730.9992   -43530.535    47.118103   0.94755864 
   34200    216.59604   -258.73606    131723.22   -40817.924    2694.8666    -43512.79    46.917494   0.94815094 
   34300    216.32039   -302.59158    131842.27   -40883.692    2691.4369   -43575.129    47.014206   0.94729476 
   34400    220.37931   -266.28249    131955.72   -40821.636    2741.9376   -43563.574    47.049675   0.94648034 
   34500     220.1636   -398.11815    131758.11   -40855.785    2739.2538   -43595.039    47.063224   0.94789984 
   34600    219.04476   -240.72425    131967.53   -40842.892    2725.3333   -43568.225    47.369801   0.94639563 
   34700    217.75722   -316.06358    131761.12   -40932.306    2709.3138    -43641.62    47.625071    0.9478782 
   34800    216.79519   -388.88806    131790.46   -40924.124    2697.3444   -43621.468    47.549202   0.94766719 
   34900    217.15045   -335.93413    131794.27   -40935.079    2701.7644   -43636.843    47.396638   0.94763979 
   35000     211.7135   -350.65251    131734.58   -41004.431    2634.1184   -43638.549    47.604108   0.94806917 
   35100    213.52466   -274.43868    131762.57   -40928.807    2656.6527    -43585.46    47.563983   0.94786779 
   35200    216.66347   -334.84073    131611.95   -40919.368    2695.7055   -43615.073    47.649588   0.94895252 
   35300    217.57786   -82.570722    131750.35   -40893.618    2707.0823     -43600.7    47.821679   0.94795569 
   35400    220.57025   -210.96656    131686.38   -40915.962    2744.3132   -43660.275    47.780523    0.9484162 
   35500    220.88643   -218.54149    131596.12   -40822.454    2748.2471   -43570.701    47.975552   0.94906669 
   35600    220.58165   -310.88781    131620.73   -40881.712     2744.455   -43626.167    48.230328    0.9488892 
   35700    221.01964   -320.86084    131684.94   -40829.456    2749.9045    -43579.36    48.451567    0.9484265 
   35800    221.80187   -284.20638    131708.96   -40868.327     2759.637   -43627.964    48.299049   0.94825355 
   35900    220.36202    -187.6018    131646.22   -40824.527    2741.7225    -43566.25    48.123806   0.94870546 
   36000    222.99571   -165.34998    131631.59   -40787.959    2774.4906   -43562.449     48.15642   0.94881096 
   36100     220.1992   -266.64271    131557.96   -40817.566    2739.6966   -43557.262    48.231359   0.94934192 
   36200    223.63607   -223.81457    131614.36   -40848.868    2782.4578   -43631.326    48.462588   0.94893512 
   36300    216.96658   -169.24312    131517.98     -40906.3    2699.4768   -43605.777     48.63568   0.94963052 
   36400    218.49696   -347.17773    131488.16   -40849.719    2718.5176   -43568.237    48.933039   0.94984594 
   36500    223.97344   -111.76333    131405.58   -40836.537    2786.6555   -43623.192    48.753883    0.9504428 
   36600    216.68688   -183.50461    131420.38   -40966.597    2695.9967   -43662.594    48.744077   0.95033576 
   36700    217.68999   -55.493963    131492.37   -40905.391    2708.4773   -43613.869    48.924447   0.94981548 
   36800    217.85512   -146.03834    131672.79   -40902.831    2710.5319   -43613.363    49.042308   0.94851408 
   36900    218.29633   -379.39126    131696.38   -40932.584    2716.0213   -43648.605    49.113072   0.94834416 
   37000    220.72892   -262.54235    131794.08    -40882.42    2746.2875   -43628.707    49.130941   0.94764116 
   37100     224.2084   -203.42386    131700.56   -40868.702    2789.5788   -43658.281    49.130862   0.94831408 
   37200    216.69653   -257.42074    131915.07   -40924.386    2696.1169   -43620.502    49.156923   0.94677198 
   37300    219.25868   -273.65717    131708.15   -40938.188    2727.9949   -43666.183    49.282845   0.94825938 
   37400    218.67365   -171.25769    131751.98    -40969.47     2720.716   -43690.186    49.434411   0.94794397 
   37500    216.20909   -173.16297       132001   -40987.726    2690.0522   -43677.778    49.740416   0.94615567 
   37600     216.5543   -207.03834    132083.92   -40939.859    2694.3472   -43634.206     49.81611   0.94556169 
   37700    217.68789    -317.3719    132171.23   -40950.025    2708.4512   -43658.476    49.872111   0.94493701 
   37800    217.76366   -57.414614    132322.77   -41046.929    2709.3939   -43756.323    50.051942   0.94385488 
   37900    219.52131   -260.34639     132303.7   -41009.139    2731.2624   -43740.402     49.87137   0.94399093 
   38000    218.37009   -202.72995    132314.05   -40991.124     2716.939   -43708.063    49.873259    0.9439171 
   38100    217.99402   -186.93745    132328.51   -40945.789    2712.2601   -43658.049    49.942243   0.94381392 
   38200    219.29428   -379.03831    132517.62   -40967.918    2728.4378   -43696.356    49.960355   0.94246706 
   38300    224.83581   -264.01063    132300.95   -40923.642    2797.3849   -43721.027    50.055926   0.94401052 
   38400    218.63188   -302.87328    132369.99    -40981.14    2720.1963   -43701.336    50.469728   0.94351817 
   38500    217.67586   -183.91386    132388.81     -41003.2    2708.3015   -43711.502    50.451277   0.94338404 
   38600     217.9506   -270.13401    132254.29   -40958.261    2711.7199   -43669.981    50.184698   0.94434359 
   38700    221.54674    -366.8132    132300.56   -40974.203    2756.4626   -43730.665    50.099249   0.94401334 
   38800    221.68007   -354.20451    132346.44   -40999.431    2758.1215   -43757.553    50.265438   0.94368609 
   38900    222.34646   -322.81771    132221.24   -40964.371    2766.4127   -43730.784     50.27931   0.94457961 
   39000    224.70711   -163.43864    132445.85   -41024.484    2795.7837   -43820.268    50.614436   0.94297778 
   39100    222.82503   -151.05852    132492.22   -40993.773     2772.367    -43766.14    50.652571   0.94264774 
   39200    223.10963    -236.5495    132448.03   -41036.547    2775.9079   -43812.455    50.595606   0.94296221 
   39300    222.94544   -243.95139    132367.88   -41026.634    2773.8651   -43800.499    50.586343   0.94353319 
   39400     219.8483   -312.57235    132376.73   -40991.475    2735.3308   -43726.806    50.670849   0.94347014 
   39500    223.40867   -278.20115    132230.68   -40975.985    2779.6286   -43755.613    50.333385   0.94451224 
   39600    219.37332   -183.35396    132169.41   -41011.476    2729.4212   -43740.897    50.691578   0.94495008 
   39700    217.43258   -13.506369    132304.39   -40938.433    2705.2747   -43643.707    50.878817   0.94398602 
   39800    222.03876   -334.10493    132443.01   -41011.708    2762.5843   -43774.292    50.915903   0.94299799 
   39900    216.53426   -360.24605    132101.99   -41063.058    2694.0978   -43757.156    50.920758   0.94543231 
   40000    221.03866    -220.4597    132039.81    -41085.49    2750.1412   -43835.631     50.98759   0.94587755 
   40100    223.10813   -154.03402    132070.28   -40984.136    2775.8893   -43760.025    51.136424    0.9456593 
   40200    220.13838   -298.46292    132244.61   -41002.469    2738.9399   -43741.409    51.392293   0.94441269 
   40300    221.94328   -254.77097    132137.74   -40983.516    2761.3963   -43744.912    51.305556   0.94517656 
   40400    225.07654   -231.10215    132265.44   -40896.512    2800.3801   -43696.893     51.30512   0.94426397 
   40500    222.82191   -262.40775    132289.98   -40905.365    2772.3282   -43677.693    51.301084   0.94408881 
   40600    220.69438   -424.58017    132264.01   -40947.638    2745.8577   -43693.495    51.364705    0.9442742 
   40700     216.0354   -312.33904    132125.91   -40984.626    2687.8911   -43672.517    51.409363   0.94526115 
   40800    214.86088   -89.360668    132150.17   -41033.121    2673.2778   -43706.399    51.407469   0.94508767 
   40900    219.82242   -224.11963    132286.11   -41047.289    2735.0088   -43782.298    51.530557   0.94411644 
   41000    218.56017   -71.025493    132291.52   -40958.273     2719.304   -43677.577    51.661281   0.94407781 
   41100    222.61564   -203.86546    132473.64   -40948.526    2769.7618   -43718.288    51.880198   0.94277994 
   41200    219.26146   -289.23499     132443.5   -40967.869    2728.0294   -43695.898    51.881959    0.9429945 
   41300    216.78276   -253.88262    132397.44   -41123.604    2697.1897   -43820.793    51.967283   0.94332255 
   41400    217.12459   -276.29148    132267.04    -41062.27    2701.4427   -43763.713    51.869046   0.94425255 
   41500    217.14601   -293.87673    132112.27   -41055.208    2701.7091   -43756.917    51.906141   0.94535876 
   41600    216.99961   -335.38542     132152.2   -41017.472    2699.8876    -43717.36    52.140059   0.94507315 
   41700    220.58247   -297.34508    132003.34   -41001.594    2744.4653   -43746.059    52.223637   0.94613887 
   41800    220.60658   -271.87709    131983.97   -41016.184    2744.7653    -43760.95    52.395739   0.94627775 
   41900    219.20776   -333.43922    131930.19   -40980.534    2727.3613   -43707.895     52.54731   0.94666344 
   42000    220.34012   -200.04176    132240.35    -40973.87    2741.4499    -43715.32    52.553839   0.94444312 
   42100    217.65703   -339.10179     132168.7   -40971.484    2708.0672   -43679.551    52.291555    0.9449551 
   42200    222.86351   -148.15995    132382.03   -40925.607    2772.8458   -43698.453    52.307705   0.94343239 
   42300    221.53022   -378.38697    132225.34    -40897.54    2756.2572   -43653.797    52.346315   0.94455034 
   42400    218.70391   -174.44684    132136.49   -40935.017    2721.0924   -43656.109    52.630053   0.94518544 
   42500    223.97224   -174.29027    132084.48   -40941.573    2786.6404   -43728.213    52.728112   0.94555765 
   42600    219.65661     -226.105    132034.75   -40953.733    2732.9458   -43686.679    52.840422   0.94591381 
   42700    222.75086   -353.58529     132028.8   -40959.707    2771.4442   -43731.151    53.151828   0.94595643 
   42800    223.03653   -199.85838     132238.8   -40907.602    2774.9985     -43682.6    53.493576   0.94445418 
   42900    219.27475   -115.98025    132166.31   -40984.959    2728.1947   -43713.154    53.407939   0.94497222 
   43000    219.64463   -216.15272    132279.29   -40998.502    2732.7967   -43731.299     53.58547    0.9441651 
   43100    220.75405   -286.01267    132127.97   -40985.842       2746.6   -43732.442    53.463448    0.9452464 
   43200     218.1302   -207.01111    132013.32   -40952.343    2713.9543   -43666.298    53.444919   0.94606737 
   43300    219.07224    -330.4338    132211.05   -40952.389    2725.6751   -43678.064    53.647881   0.94465248 
   43400    224.67237   -56.548472    132237.26   -40900.723    2795.3515   -43696.074    53.847475   0.94446517 
   43500     218.1722   -114.72991    132480.04   -40905.463    2714.4769    -43619.94    53.948757   0.94273439 
   43600    224.06356   -310.02833     132442.4   -40806.375    2787.7766   -43594.152    54.193232   0.94300231 
   43700    222.05553   -221.13415    132412.95   -40835.565    2762.7929   -43598.358    54.354987   0.94321209 
   43800    221.17715   -237.58813       132452   -40851.302    2751.8642   -43603.166    54.138285   0.94293398 
   43900    223.05478   -148.48277    132513.29   -40890.961    2775.2255   -43666.186    54.109263   0.94249782 
   44000    220.28017   -307.53541    132604.59    -40928.37    2740.7042   -43669.074    54.213304   0.94184893 
   44100    222.61699    -334.1467    132511.15   -40954.463    2769.7786   -43724.241    54.474628   0.94251304 
   44200    217.24985   -363.72765    132439.47   -40995.235    2703.0012   -43698.236    54.443448   0.94302317 
   44300     219.0895   -368.39255    132343.47    -41002.59    2725.8899    -43728.48    54.346511   0.94370727 
   44400    223.14539   -373.16198    132200.77    -40967.94    2776.3529   -43744.293    54.177385   0.94472589 
   44500    223.54947   -238.91523     132208.8   -40996.767    2781.3804   -43778.148    54.550302   0.94466851 
   44600    218.31737   -308.74842    132272.12    -41065.72    2716.2831   -43782.003     54.45958   0.94421633 
   44700    219.41775   -183.64513    132233.42   -41058.546     2729.974    -43788.52    54.628178   0.94449261 
   44800    220.75115    -307.8885     132261.8   -41039.732     2746.564   -43786.296    54.665436   0.94428994 
   44900    220.56792   -90.559699    132379.49   -41008.695    2744.2843    -43752.98    54.540039   0.94345047 
   45000    218.19445   -259.03972    132385.74   -41016.728    2714.7538   -43731.482    54.756938   0.94340591 
   45100    221.68072   -274.31154    132371.53   -40956.417    2758.1296   -43714.547    55.004468   0.94350721 
   45200     218.3824   -198.14914    132340.96    -41011.08    2717.0922   -43728.172    55.130011   0.94372516 
   45300    216.23793   -292.28261    132239.03   -41027.025    2690.4109   -43717.436    54.999833   0.94445259 
   45400      220.254   -321.52806    132231.98   -40988.329    2740.3785   -43728.708    55.120358    0.9445029 
   45500    220.77524   -389.43956     132335.7   -40996.278    2746.8638   -43743.141    55.139651   0.94376269 
   45600    222.95008   -77.080216    132352.59   -40999.556    2773.9228   -43773.479    55.234427   0.94364223 
   45700     221.5385   -319.85261     132399.6   -41011.559    2756.3601    -43767.92    55.203499   0.94330716 
   45800    222.93267   -283.71287     132287.4   -40956.223    2773.7063   -43729.929     55.23636    0.9441072 
   45900    227.60968   -330.38041    132281.37   -40908.784    2831.8971   -43740.681    55.349684   0.94415025 
   46000    227.20538   -236.33171    132190.46   -40901.503    2826.8669    -43728.37    55.491066   0.94479957 
   46100    225.71378   -235.50977    132265.23   -40862.765    2808.3085   -43671.074    55.460377   0.94426549 
   46200    224.31018   -341.75006    132270.54   -40854.865    2790.8451    -43645.71    55.318915   0.94422759 
   46300    225.52017   -323.86348    132165.96   -40868.014    2805.8996   -43673.914    55.259963   0.94497472 
   46400    221.51282   -194.86439    132150.32   -40906.089    2756.0406   -43662.129    55.506831   0.94508653 
   46500    216.72174    -187.9143    132174.39   -40907.741    2696.4305   -43604.171    55.470233   0.94491444 
   46600    219.90216   -265.93525    132140.08   -40879.715    2736.0009   -43615.715    55.594512   0.94515979 
   46700     217.7327   -329.93768    131999.32   -40950.542    2709.0087    -43659.55    55.713888   0.94616767 
   46800    218.09916   -262.21661     132150.8   -40996.177    2713.5682   -43709.746    55.742158   0.94508316 
   46900    217.78951   -212.49948    132171.12   -40918.193    2709.7155   -43627.909    55.776342   0.94493786 
   47000    220.99907   -219.27496    132193.25   -40901.101    2749.6486    -43650.75    55.885998   0.94477965 
   47100    221.64815   -329.82007    132050.88   -40886.163    2757.7243   -43643.888    56.034931   0.94579827 
   47200    218.33515   -258.70301    131912.87   -40956.654    2716.5043   -43673.158    55.959983   0.94678775 
   47300    216.27038   -257.17273       131993   -40983.057    2690.8147   -43673.872     56.28263   0.94621298 
   47400    219.22091   -494.19475    131934.61   -40933.812    2727.5249   -43661.337    56.233823   0.94663177 
   47500     220.1234   -210.52318    132050.39   -40876.822    2738.7536   -43615.576    56.490928   0.94580173 
   47600    223.75505   -311.19584    132068.12   -40846.372    2783.9382    -43630.31    56.405862   0.94567481 
   47700    218.52697   -302.95331    132145.53   -40895.924     2718.891   -43614.814    56.332092   0.94512084 
   47800     218.0551   -107.35125    132138.05   -40899.477      2713.02   -43612.497    56.389793   0.94517432 
   47900    220.59527   -240.55727    132235.45   -40978.779    2744.6246   -43723.403    56.578512   0.94447811 
   48000    219.15127   -217.50014    132378.77   -40992.004    2726.6585   -43718.662    56.789514   0.94345562 
   48100    222.69979   -236.59854     132478.8   -40959.731    2770.8087    -43730.54    56.872641   0.94274322 
   48200    219.95257   -251.43184    132559.93   -40989.866    2736.6281   -43726.494    57.078259   0.94216628 
   48300    219.98154   -417.34835    132332.56   -40977.161    2736.9886    -43714.15    57.282011   0.94378506 
   48400    224.66507   -267.71762    132316.77   -40900.634    2795.2605   -43695.895    57.099899   0.94389768 
   48500     217.1899   -261.78723    132396.05   -40966.067    2702.2552   -43668.322    57.204756   0.94333246 
   48600    222.96699   -229.57339    132355.01   -40978.403    2774.1332   -43752.537    57.052818   0.94362497 
   48700    220.12213   -31.108841    132532.94   -40943.185    2738.7378   -43681.923    57.285364   0.94235813 
   48800    218.65481   -138.53967    132723.31   -40983.326    2720.4815   -43703.808    57.443245   0.94100643 
   48900    222.77163   -380.61788     132649.8   -40989.426    2771.7026   -43761.129    57.492251   0.94152791 
   49000    222.12554   -248.86595     132449.3   -41040.209     2763.664   -43803.873    57.684471   0.94295319 
   49100    217.78305   -404.55993    132546.22   -41036.545    2709.6351    -43746.18    57.660975   0.94226368 
   49200    220.94088   -231.59265    132593.96   -41050.759    2748.9246   -43799.684    57.856605   0.94192442 
   49300    219.57026   -223.66466    132774.64   -41001.088    2731.8715   -43732.959    57.760632   0.94064263 
   49400    223.87204   -301.87064    132723.56   -40991.416    2785.3938   -43776.809    57.892678   0.94100469 
   49500    220.46367   -290.91171    132667.03   -41011.844    2742.9871   -43754.831     57.96669   0.94140562 
   49600    221.27903   -155.02958    132606.78   -41011.159    2753.1318   -43764.291     57.96001    0.9418334 
   49700    220.50746   -221.75179    132779.62   -41033.405     2743.532   -43776.937    58.099274   0.94060742 
   49800    221.88273   -286.27937    132723.97    -41085.94     2760.643   -43846.583    57.887695   0.94100178 
   49900    221.52212   -270.74478    132670.62   -40962.007    2756.1563   -43718.163    57.899277   0.94138014 
   50000    223.16651   -283.73247    132646.52   -40995.015    2776.6157    -43771.63    58.094112    0.9415512 
   50100    218.56555   -300.68029    132576.16   -41013.142     2719.371   -43732.513    58.160206   0.94205092 
   50200     222.1151   -136.70246    132492.74   -41051.487    2763.5341   -43815.021    58.218013   0.94264403 
   50300    222.74752   -243.44877    132373.35   -41017.397    2771.4026     -43788.8    58.132972   0.94349422 
   50400    218.27246   -260.00698    132337.47   -41031.511    2715.7243   -43747.235    58.010449   0.94375004 
   50500    220.79321   -100.58794    132494.51   -41058.066    2747.0873   -43805.153     58.08755   0.94263144 
   50600    218.33585   -164.14333     132726.5   -41074.983    2716.5131   -43791.496    58.207942   0.94098382 
   50700    220.42419   -274.98706     132768.4   -41096.177     2742.496   -43838.673    58.374738   0.94068691 
   50800    218.38814   -229.41205    132657.07    -41107.52    2717.1636   -43824.683    58.519899   0.94147633 
   50900    220.63442   -310.15628    132763.39   -41018.069    2745.1116    -43763.18    58.726875   0.94072239 
   51000     219.7589   -291.96589    132694.61   -41053.935    2734.2185   -43788.154    58.597699   0.94120996 
   51100    220.80159   -372.37642    132593.75   -41081.822    2747.1916   -43829.013    58.499968   0.94192595 
   51200    221.17375   -348.66377     132573.6   -41066.254    2751.8219   -43818.076    58.528474   0.94206909 
   51300    217.68533    -154.1225    132493.71   -41125.908    2708.4194   -43834.327    58.649814   0.94263717 
   51400    216.60561   -293.62196    132625.65   -41113.209    2694.9856   -43808.194    58.630586   0.94169934 
   51500     212.3793   -127.40452    132410.89   -41098.646    2642.4022   -43741.048    58.717309   0.94322674 
   51600    222.78039   -422.73613    132482.05   -41036.143    2771.8115   -43807.955    58.869515   0.94272009 
   51700    216.92818   -200.26919    132290.34   -41019.043     2698.999   -43718.042     58.97157   0.94408628 
   51800    218.69002   -184.15557    132243.54    -41046.29    2720.9196    -43767.21    59.069621   0.94442038 
   51900    217.66724   -272.16759    132330.27   -41090.362    2708.1943   -43798.556    59.053186    0.9438014 
   52000    215.15326   -319.44725    132362.34     -41123.8    2676.9156   -43800.716    59.194804   0.94357267 
   52100    211.56921   -330.28629    132276.25   -41057.785    2632.3232   -43690.108    59.240953   0.94418682 
   52200    217.24109   -103.67617    132287.21   -41079.854    2702.8922   -43782.746      59.1739   0.94410861 
   52300    220.41703    -271.8128    132325.37   -41068.034    2742.4068   -43810.441     59.17764   0.94383631 
   52400    220.82969   -295.30516    132554.18   -41023.095    2747.5412   -43770.636    59.534239   0.94220708 
   52500    222.13957   -306.60625    132633.19     -41027.6    2763.8386   -43791.439     59.64875   0.94164587 
   52600    217.62558    -331.9158    132627.45   -41062.636    2707.6759   -43770.311    59.627846    0.9416866 
   52700    219.43619   -485.70876    132544.83   -41092.805    2730.2033   -43823.009    59.617043   0.94227355 
   52800    220.29796    -202.6253    132339.46    -41041.24    2740.9255   -43782.166    59.749011   0.94373581 
   52900    218.03127   -297.68735    132373.07   -41036.654    2712.7235   -43749.378    59.957298   0.94349621 
   53000    219.67186   -350.11186    132262.47   -41025.045    2733.1356   -43758.181    59.824624    0.9442852 
   53100      221.407   -194.01347    132200.45   -41080.653     2754.724   -43835.377    59.827185   0.94472821 
   53200    222.05943   -138.22457    132325.43   -41087.792    2762.8415   -43850.634    60.001714   0.94383588 
   53300    219.28943   -191.88941    132192.38   -41079.693    2728.3774   -43808.071    59.869658   0.94478586 
   53400    213.75989    -223.4317    132215.69   -41142.214    2659.5795   -43801.794    60.014298   0.94461926 
   53500    221.04827   -258.26621    132185.51   -41138.032    2750.2607   -43888.293    60.446828   0.94483498 
   53600    218.67046   -232.97028     132210.2   -41132.051    2720.6763   -43852.727    60.053938   0.94465851 
   53700    214.86846   -275.50891    132316.09   -41162.321    2673.3721   -43835.693    59.880522   0.94390251 
   53800    220.22584   -206.41063    132531.38   -41041.123    2740.0281   -43781.151     59.94567   0.94236923 
   53900    219.48473    -301.4898    132575.13   -41096.746    2730.8073   -43827.553    60.260936   0.94205823 
   54000    219.83715   -109.31521    132591.96   -41060.966    2735.1921   -43796.158    60.257588   0.94193862 
   54100    218.67578   -142.14311    132523.19    -41075.52    2720.7424   -43796.262    60.059336   0.94242746 
   54200    220.51799   -256.83561    132490.41   -41046.246    2743.6631    -43789.91     59.94908   0.94266063 
   54300    218.22374   -248.00269    132478.97   -41015.901    2715.1182   -43731.019    60.296902   0.94274199 
   54400    215.27533   -271.64209    132420.24   -41059.383    2678.4344   -43737.818    60.287075   0.94316013 
   54500    222.35937   -344.10596    132375.34   -41041.179    2766.5733   -43807.752    60.306244   0.94348001 
   54600     221.7135   -334.19293    132307.74   -40946.883    2758.5374   -43705.421    60.567159   0.94396207 
   54700      221.238   -168.63273    132257.98    -40954.44    2752.6213   -43707.062    60.672608   0.94431722 
   54800    218.30107   -295.51045    132291.27   -41022.936    2716.0803   -43739.016    60.809059   0.94407962 
   54900    218.47128   -230.91147    132255.92   -41066.963    2718.1981   -43785.161    60.728319   0.94433195 
   55000    215.44971   -264.56124    132272.34   -41118.567     2680.604   -43799.171    60.811383   0.94421469 
   55100    222.13249   -173.22216    132231.07   -41092.328    2763.7505   -43856.078    60.774172   0.94450942 
   55200    220.52919   -335.37553    132339.06   -41112.812    2743.8024   -43856.614    60.942511   0.94373872 
   55300     219.8414   -213.02748    132453.59   -41054.178    2735.2449   -43789.423    61.194899   0.94292264 
   55400    223.06779   -198.78001    132541.62    -41036.67    2775.3873   -43812.057    61.441975   0.94229639 
   55500    221.92138   -123.46545    132536.37   -40983.036    2761.1239    -43744.16    61.073619   0.94233376 
   55600    217.31277   -378.37945    132471.62    -41015.37     2703.784   -43719.153    61.071092   0.94279431 
   55700    221.28299   -260.65919    132351.86    -41012.63    2753.1811   -43765.811    61.500355   0.94364745 
   55800    219.89798   -456.85421    132201.61   -41025.568     2735.949   -43761.517    61.435004   0.94471989 
   55900    221.34507   -60.401746    132150.27   -40981.195    2753.9535   -43735.148    61.527823   0.94508692 
   56000    220.94824   -108.82903     132202.1   -40968.249    2749.0162   -43717.265    61.392163   0.94471643 
   56100    221.86819   -107.08767    132367.73   -40933.263    2760.4621   -43693.725    61.418063   0.94353432 
   56200    226.14278   -138.35598    132374.14   -40939.775    2813.6462   -43753.421    61.545512   0.94348861 
   56300    225.83385    -305.9751    132462.84     -40974.2    2809.8024   -43784.002    61.503463   0.94285679 
   56400    217.79298   -370.36352    132215.98   -40962.244    2709.7588   -43672.002      61.6554   0.94461723 
   56500     216.0315    -198.6978    132243.42   -41049.937    2687.8426   -43737.779    61.596549   0.94442122 
   56600    218.70334   -236.26792     132394.6   -41045.204    2721.0853   -43766.289    61.700842   0.94334279 
   56700    214.34457   -261.51877    132514.47   -41072.316     2666.854    -43739.17    61.813182   0.94248942 
   56800    218.17853   -276.90687    132530.11   -40995.474    2714.5557   -43710.029    62.000659   0.94237827 
   56900    217.33639   -225.12931     132587.6   -40973.566    2704.0779   -43677.644    61.840656   0.94196962 
   57000    224.51689   -224.08416       132691   -40926.695    2793.4169   -43720.112    61.902771   0.94123561 
   57100    221.41045   -348.47216    132619.35   -40993.836     2754.767   -43748.603    61.857561   0.94174411 
   57200    220.58909   -188.74833    132421.52   -41042.294    2744.5476   -43786.842    62.019773     0.943151 
   57300    216.29302   -130.61754    132351.56   -41087.779    2691.0963   -43778.875    62.014421   0.94364958 
   57400    215.94329   -428.90266    132335.27   -41093.172     2686.745   -43779.917    62.087194   0.94376571 
   57500    215.27743   -328.19989    132114.79   -41141.877    2678.4605   -43820.337    62.067589   0.94534074 
   57600    215.19334   -354.16891    132026.55    -41092.57    2677.4142   -43769.985    62.172602   0.94597252 
   57700    216.44422   -444.06634     131872.5   -41135.291    2692.9776   -43828.269    62.179847   0.94707763 
   57800    212.98081   -296.45056    131880.26   -41160.063    2649.8861   -43809.949    62.456502   0.94702187 
   57900    214.92925   -192.55837     131974.5   -41122.376    2674.1285   -43796.504    62.578627   0.94634566 
   58000    216.52768   -399.86752    132240.09   -41128.028     2694.016   -43822.044    62.617992   0.94444502 
   58100    219.81706   -268.71361     132294.2   -41077.838    2734.9422    -43812.78    62.460292    0.9440587 
   58200    218.60993   -420.30556    132306.33   -41026.904    2719.9232   -43746.827    62.365877   0.94397217 
   58300    219.51622   -304.51249    132262.65   -40978.159    2731.1991   -43709.358    62.542828    0.9442839 
   58400    223.58771   -268.31258    132289.88   -40988.993    2781.8562   -43770.849    62.798793   0.94408954 
   58500     221.4666   -116.46306    132349.43   -41004.141    2755.4656   -43759.606     62.94508   0.94366475 
   58600     221.3503   -236.60889    132366.59   -40980.606    2754.0186   -43734.624    62.913216    0.9435424 
   58700    222.65632   -308.40077       132251   -40981.439    2770.2679   -43751.707    62.877885   0.94436709 
   58800    220.21309   -251.01238     132254.5   -41017.651    2739.8696    -43757.52    62.923631    0.9443421 
   58900     218.3349   -265.25886    132348.43   -41055.157    2716.5012   -43771.658      63.2346   0.94367184 
   59000    216.56399   -219.52663    132339.86    -41032.24    2694.4678   -43726.708    63.227713     0.943733 
   59100    221.09216   -445.17777    132266.52   -41031.988    2750.8068   -43782.794    62.891015    0.9442563 
   59200    218.27874   -123.38361    132377.27    -41043.88    2715.8025   -43759.683    63.004813   0.94346631 
   59300    219.27397   -218.59285    132281.45   -41043.016     2728.185   -43771.201    63.194373   0.94414967 
   59400    220.07483   -224.60711     132374.5    -41097.05    2738.1493   -43835.199     63.38288   0.94348602 
   59500    220.56842   -299.78237    132367.87    -41064.18    2744.2905    -43808.47    63.558554    0.9435333 
   59600     220.2817   -186.27388    132518.84   -41051.936    2740.7231   -43792.659     63.53088   0.94245836 
   59700    216.80789   -309.92336    132491.91   -41084.166    2697.5023   -43781.668    63.582046   0.94264991 
   59800    217.85152    -373.0813    132575.34   -41091.693    2710.4871    -43802.18    63.545902   0.94205672 
   59900    217.36314   -174.81046    132687.95   -41065.285    2704.4106   -43769.696    63.591094   0.94125725 
   60000    217.78496   -278.31447    132775.87   -41098.313     2709.659   -43807.972     63.70624   0.94063395 
   60100    217.86242   -272.61055    132571.03   -41062.041    2710.6227   -43772.663    63.661286   0.94208739 
   60200    217.63163   -368.03507    132366.81   -41029.457    2707.7512   -43737.208    63.402157   0.94354083 
   60300    221.54313   -285.49527    132434.55   -40987.079    2756.4178   -43743.497    63.648044    0.9430582 
   60400    223.68402    -331.9833    132334.96   -40942.258    2783.0545   -43725.312    63.782213   0.94376792 
   60500    224.41361   -239.15621    132170.28   -40980.643     2792.132   -43772.775    63.714973   0.94494385 
   60600     215.9993   -307.47774    132259.85   -41032.166    2687.4419   -43719.608    63.798846   0.94430386 
   60700    221.05314   -347.46651    132170.86   -41071.027    2750.3214   -43821.349    63.812552    0.9449397 
   60800    222.40753   -277.54793    132128.98   -41023.311    2767.1726   -43790.484    63.938243   0.94523917 
   60900    220.90114   -406.90809    132051.77   -41012.299    2748.4301   -43760.729    64.057467    0.9457919 
   61000    218.63998   -146.15946    132080.97    -41052.42     2720.297   -43772.717    64.127483   0.94558276 
   61100    216.48003     -115.778    132159.18   -41091.444    2693.4231   -43784.867    64.152079   0.94502317 
   61200    217.46608   -171.29406    132247.27   -41089.504    2705.6915   -43795.195    64.333599   0.94439374 
   61300    221.32082   -261.59505    131988.17   -41075.872    2753.6518   -43829.524    64.359236   0.94624763 
   61400     217.9923   -205.38603    132015.53   -41109.213    2712.2387   -43821.451    64.387587   0.94605147 
   61500    219.37523   -347.72031     132125.4   -41108.409    2729.4449   -43837.854    64.457968   0.94526479 
   61600    217.92743   -288.77859    131996.32   -41064.531    2711.4315   -43775.963    64.379614   0.94618919 
   61700     217.1186   -228.28587    132109.95   -41145.982    2701.3681    -43847.35    64.343122   0.94537538 
   61800    214.06562   -255.75617    132175.97   -41208.266    2663.3833   -43871.649    64.757854   0.94490317 
   61900    214.30828   -338.94314    132023.09   -41148.648    2666.4025    -43815.05    64.731454   0.94599735 
   62000     221.8702   -314.04168     132140.1   -41108.134    2760.4871   -43868.622    64.797413   0.94515967 
   62100    218.54801    18.530489    132169.56    -41134.82    2719.1528   -43853.973    64.974945   0.94494895 
   62200    221.13418   -74.217483    132222.37   -41091.085    2751.3296   -43842.415    65.003201   0.94457157 
   62300    217.08631   -262.61679    132225.31   -41123.614    2700.9664   -43824.581    64.827176   0.94455059 
   62400    219.60317   -247.98052    132398.71   -41066.815    2732.2809   -43799.096    65.281202    0.9433135 
   62500    220.23021   -447.81891    132357.96   -41080.408    2740.0825    -43820.49    65.412263   0.94360396 
   62600     221.8502   -260.46397    132268.55   -41090.337    2760.2382   -43850.575    65.374133   0.94424181 
   62700    220.23278   -210.70422    132256.62   -41116.728    2740.1144   -43856.843    65.504804   0.94432697 
   62800    218.27791   -241.47292    132370.56   -41115.427    2715.7922   -43831.219    65.235291   0.94351413 
   62900    223.91588   -227.23301    132433.03   -41074.405    2785.9392   -43860.345    65.422568   0.94306901 
   63000    225.92265   -250.44757    132399.63   -41042.654    2810.9072   -43853.562     65.55045   0.94330693 
   63100    225.04315    -347.6168    132398.51   -41031.978    2799.9647   -43831.942    65.710921   0.94331496 
   63200    221.22776   -241.34695    132481.24   -41071.732    2752.4939   -43824.226      65.8356   0.94272585 
   63300    221.57946   -235.75768    132404.52   -41105.645    2756.8698   -43862.514     66.07832    0.9432721 
   63400    222.79543   -228.89578    132302.74   -41032.939    2771.9988   -43804.938    66.181459   0.94399777 
   63500    215.28499    -262.9274    132406.52   -41128.635    2678.5545   -43807.189    66.307893   0.94325787 
   63600    218.45569   -191.12755    132278.76   -41117.315    2718.0041   -43835.319    66.004379   0.94416889 
   63700    218.81878   -249.54647    132404.97   -41101.908    2722.5216   -43824.429    65.990556   0.94326889 
   63800    216.68095   -209.64044    132496.42    -41205.22     2695.923   -43901.143    66.001473   0.94261786 
   63900    217.98181   -417.78999    132677.42   -41192.081    2712.1081   -43904.189    65.959581   0.94133195 
   64000    216.26603   -294.85419    132525.03   -41187.499    2690.7606   -43878.259    65.909654   0.94241438 
   64100    221.77098   -237.76705    132452.18   -41108.983    2759.2526   -43868.235    66.168472   0.94293268 
   64200    215.17867   -199.22718    132610.08   -41098.777    2677.2318   -43776.008    66.331679   0.94180996 
   64300     222.4038   -235.52036    132485.16   -40999.302     2767.126   -43766.428    66.254796   0.94269793 
   64400    221.17133    -313.3794    132516.49   -41012.972    2751.7918   -43764.764     66.43597   0.94247506 
   64500     225.2767   -611.21636    132508.27   -41018.224    2802.8704   -43821.094    66.667314   0.94253356 
   64600     223.8074   -389.20239    132489.57   -41082.797    2784.5896   -43867.386    66.663516   0.94266662 
   64700    221.90366    -352.0757    132420.97   -41111.008    2760.9034   -43871.911    66.806536   0.94315496 
   64800    216.12505   -227.91418    132472.83   -41134.935    2689.0065   -43823.941    66.964544   0.94278574 
   64900    220.70934   -207.29458    132619.06   -41111.986    2746.0438    -43858.03     67.04045    0.9417462 
   65000     221.6071   -385.06737     132576.7    -41075.94    2757.2136   -43833.153    67.177088   0.94204704 
   65100    219.69171   -283.86292    132366.32   -41095.022    2733.3825   -43828.404    67.109186   0.94354434 
   65200    222.28194   -175.56703    132415.19   -41090.405    2765.6099   -43856.015    67.040748   0.94319609 
   65300    215.66006   -216.93119    132460.62   -41086.002    2683.2212   -43769.223    67.166124   0.94287261 
   65400    224.59923   -229.20679    132546.45    -41023.39    2794.4414   -43817.831    67.126881   0.94226209 
   65500    221.12685   -208.84383    132705.03   -41091.414    2751.2384   -43842.653    67.283828   0.94113607 
   65600    220.61988   -278.84003    132606.61   -41142.072    2744.9308   -43887.003    67.395838   0.94183456 
   65700    220.68769   -297.40918    132439.72   -41210.106    2745.7744    -43955.88     67.27813    0.9430214 
   65800    214.84469   -291.23511    132381.21   -41223.975    2673.0764   -43897.051    67.350066   0.94343821 
   65900    218.25536    -271.4173    132457.23   -41185.506    2715.5116   -43901.017    67.192386   0.94289671 
   66000    222.17934   -291.22699    132301.59   -41083.374    2764.3333   -43847.707    67.202157   0.94400594 
   66100     222.1746   -397.23155    132273.46   -41039.103    2764.2744   -43803.377    67.071931   0.94420676 
   66200    227.79289   -241.83711    132301.31   -41010.099    2834.1766   -43844.276    67.300838     0.944008 
   66300    220.03873    20.647965    132480.89   -41030.432    2737.7001   -43768.132    67.400199   0.94272837 
   66400    221.57964    -205.0615    132370.94   -41069.407     2756.872   -43826.279    67.493628    0.9435114 
   66500    220.86363   -177.38168    132317.58   -41076.289    2747.9634   -43824.253    67.707057    0.9438919 
   66600    222.07055   -279.13149    132336.99   -41093.491    2762.9798    -43856.47    67.650833   0.94375346 
   66700    213.32929   -135.19175     132266.6   -41114.477     2654.222   -43768.699    67.896176   0.94425572 
   66800     220.3093   -151.32377    132327.79   -41067.057    2741.0665   -43808.123    67.611099   0.94381906 
[...]
   84600     217.3507   -249.78668    132621.72   -41177.591     2704.256   -43881.847    77.205873   0.94172731 
   84700    217.26639   -182.96173    132504.05   -41182.283     2703.207    -43885.49    77.306823   0.94256355 
   84800    217.56002   -206.06151    132694.04   -41153.684    2706.8603   -43860.544    77.388903     0.941214 
   84900    220.64504   -266.23817    132752.25    -41146.26    2745.2437   -43891.504    77.355907   0.94080134 
   85000    219.15666   -183.95405    132719.13   -41095.661    2726.7255   -43822.386    77.735532    0.9410361 
   85100    222.24628   -234.19756    132778.75   -41100.454    2765.1662    -43865.62    77.530022   0.94061354 
   85200    219.75873   -196.35984    132795.62   -41121.994    2734.2163   -43856.211    77.474374   0.94049405 
   85300    218.38118   -419.28001    132836.19   -41162.581    2717.0771   -43879.659    77.654877    0.9402068 
   85400    219.37912   -232.12384    132749.43    -41156.12    2729.4933   -43885.614    77.707728   0.94082128 
   85500    217.92139   -52.903672     132786.5   -41121.299    2711.3564   -43832.655    77.909529   0.94055868 
   85600    220.25041   -230.28902    132806.75   -41102.503    2740.3338   -43842.837     78.06275   0.94041527 
   85700    215.83089   -301.31586    132786.48   -41132.762    2685.3466   -43818.108    78.104931   0.94055878 
   85800    216.26041   -282.08933    132783.34   -41121.226    2690.6907   -43811.917     78.15058   0.94058102 
   85900     223.2591   -241.02936    132771.12   -41029.063    2777.7677    -43806.83    78.280078   0.94066758 
   86000    221.24352   -176.19495     132714.4   -41084.541    2752.6901   -43837.231    78.228009   0.94106964 
   86100    220.04904   -212.77944    132921.39   -41068.685    2737.8284   -43806.513    78.211577   0.93960418 
   86200    219.22991   -294.94363    132877.22   -41047.754    2727.6369   -43775.391    78.428965   0.93991649 
   86300    221.59251   -129.28362    132935.89   -41084.414    2757.0321   -43841.446    78.608347   0.93950167 
   86400    222.47791   -227.88111    133183.74   -41117.927    2768.0481   -43885.975    78.767172   0.93775327 
   86500    217.40077   -262.40402    133162.82   -41104.373    2704.8789   -43809.252    78.543385   0.93790058 
   86600    225.61285    -47.46561    133016.72   -41063.877    2807.0527    -43870.93    78.641879   0.93893077 
   86700    223.78521   -422.11953    133077.84   -41064.646    2784.3135   -43848.959    78.811187   0.93849954 
   86800    221.32699   -233.06214    133032.13   -41136.677    2753.7285   -43890.406    78.571298   0.93882199 
   86900    220.10206    -186.7472    133006.43    -41104.92    2738.4881   -43843.408    78.548032   0.93900338 
   87000    219.73319   -246.38577    132933.14   -41098.451    2733.8986   -43832.349    78.621844   0.93952113 
   87100    218.37326   -326.23921    132967.78    -41126.38    2716.9785   -43843.359    78.958972   0.93927635 
   87200     221.4638   -238.37776    132795.27   -41109.344    2755.4308   -43864.775    78.956484   0.94049652 
   87300    220.58198   -159.39851    133000.79    -41103.23    2744.4592   -43847.689    79.410659   0.93904326 
   87400    224.29335   -220.59141    133062.01   -41125.438    2790.6357   -43916.074    79.455829   0.93861118 
   87500    219.26632    -301.2675    133070.32   -41144.607    2728.0899   -43872.697     79.36105   0.93855259 
   87600     218.9557   -430.25688    133082.08   -41158.714    2724.2251   -43882.939     79.39761   0.93846965 
   87700    219.51155   -147.67768    133082.95   -41167.231    2731.1411   -43898.372     79.38213   0.93846348 
   87800    218.76675   -352.43858    133018.87   -41156.567    2721.8743   -43878.441    79.418693    0.9389156 
   87900      219.946   -223.85152    132944.03   -41169.673    2736.5464    -43906.22      79.5318   0.93944418 
   88000    217.43227   -233.89416    133040.45    -41184.15    2705.2708    -43889.42    79.457518   0.93876328 
   88100    222.11905   -180.54995    132944.77   -41112.103    2763.5833   -43875.686    79.280966   0.93943893 
   88200    222.46373   -229.27944    132987.83   -41079.114    2767.8717   -43846.986    79.645324   0.93913474 
   88300    220.96316   -375.68718    132814.72    -41109.72    2749.2018   -43858.922    79.765538   0.94035878 
   88400    213.26806   -101.86494    132799.17   -41203.939    2653.4602     -43857.4    79.627462    0.9404689 
   88500    222.38778   -164.86936    132936.06   -41104.064    2766.9267   -43870.991    79.515954   0.93950044 
   88600    221.78419   -396.63732    132699.23    -41058.32     2759.417   -43817.737     79.29051   0.94117722 
   88700      220.167   -246.77888     132725.4   -41045.028     2739.296   -43784.324    79.357406   0.94099164 
   88800    229.09303   -129.02425    132641.01   -40969.187    2850.3529    -43819.54     79.42386   0.94159029 
   88900    217.35326   -175.79512    132379.21   -41021.388    2704.2878   -43725.676    79.385584   0.94345247 
   89000    221.94013   -192.81644    132613.67   -41008.828    2761.3571   -43770.185    79.865299   0.94178441 
   89100     215.5094    -408.3257    132591.76   -41111.147    2681.3466   -43792.494    80.015442   0.94194005 
   89200    217.94333   -318.72628    132674.88   -41132.139    2711.6293   -43843.769     79.92176   0.94134995 
   89300    218.00437   -129.55426    132582.13   -41157.671    2712.3888   -43870.059    79.880595    0.9420085 
   89400    216.13347   -383.68828    132466.06   -41180.259    2689.1113    -43869.37    79.888118    0.9428339 
   89500    216.40583   -123.11461    132496.78    -41210.29       2692.5    -43902.79    79.902436    0.9426153 
   89600    212.01706   -307.84716    132627.22   -41263.455    2637.8953    -43901.35    80.112039   0.94168825 
   89700    215.41521   -177.34839    132635.25   -41219.128    2680.1748   -43899.303    80.067261   0.94163124 
   89800    217.55517   -211.04938    132682.97   -41171.556       2706.8   -43878.356    80.028299   0.94129252 
   89900    218.43127   -378.40939    132613.92   -41230.674    2717.7003   -43948.375    80.398902   0.94178266 
   90000    217.25952   -270.82825    132497.71   -41144.924    2703.1215   -43848.045    80.022894   0.94260866 
   90100    214.31761   -362.96207    132513.42   -41151.323    2666.5185   -43817.841    80.418973   0.94249694 
   90200     214.8381   -174.27577    132481.11   -41168.925    2672.9943    -43841.92    80.398534   0.94272679 
   90300    218.64939   -88.058392    132402.43   -41172.977    2720.4141   -43893.391    80.434229   0.94328701 
   90400    216.67456   -459.17744    132464.63   -41154.805    2695.8434   -43850.649    80.750042    0.9428441 
   90500    216.40662   -383.03852    132436.46   -41118.785    2692.5098   -43811.295    80.711731   0.94304462 
   90600      221.085   -156.06596    132521.55   -41015.423    2750.7177   -43766.141    80.765506   0.94243911 
   90700    223.24317   -124.54147    132647.77   -41016.524    2777.5694   -43794.093    80.889944   0.94154234 
   90800    221.17441   -454.29628    132324.55   -41059.109    2751.8302   -43810.939     80.89759   0.94384218 
   90900    217.59546    -322.7656     132355.9   -41154.986    2707.3012   -43862.287    80.685555   0.94361861 
   91000    213.61057   -225.69793    132274.94   -41178.923    2657.7215   -43836.644    80.483015   0.94419619 
   91100    217.83888   -281.52447    132292.23   -41167.794    2710.3298   -43878.124    80.646795   0.94407277 
   91200    221.02608   -81.113539    132316.02   -41128.731    2749.9846   -43878.715    80.690672   0.94390305 
   91300     219.9061   -359.85682    132290.51   -41033.582      2736.05   -43769.632    80.804806   0.94408501 
   91400    220.75019   -287.12042    132450.93    -41006.08     2746.552   -43752.632    80.960934   0.94294162 
   91500    220.16493   -105.17426    132446.64   -41020.327    2739.2703   -43759.597     81.09565   0.94297211 
   91600     220.3846   -139.75701    132749.01   -41064.079    2742.0034   -43806.082    81.054194   0.94082428 
   91700    220.86742   -143.72857    132678.85   -41132.224    2748.0107   -43880.235    81.186238   0.94132178 
   91800    223.30431   -229.81787    132569.67   -41103.854    2778.3302   -43882.184    81.194108   0.94209705 
   91900    221.43059   -283.74803     132687.4   -41115.603    2755.0175   -43870.621    81.473958    0.9412611 
   92000    218.51836   -315.03732    132613.85   -41121.785    2718.7838   -43840.569    81.211284   0.94178318 
   92100    217.36095   -286.23391    132492.03    -41160.19    2704.3835   -43864.573     81.15611   0.94264912 
   92200    223.25998   -189.61005    132558.52    -41091.87    2777.7786   -43869.649    81.188208    0.9421763 
   92300    223.82163   -310.92714    132563.03   -41007.374    2784.7666   -43792.141    81.292691   0.94214423 
   92400    219.92318   -164.73786    132630.87   -41030.134    2736.2625   -43766.396    81.615232   0.94166232 
   92500    221.80236   -285.70685    132826.34   -41076.855     2759.643   -43836.498    81.566812   0.94027653 
   92600    225.09205   -203.53789    132698.99     -41054.9     2800.573   -43855.473    81.528609    0.9411789 
   92700     219.4903   -264.64427    132610.67   -41042.127    2730.8766   -43773.003    81.527058   0.94180577 
   92800    217.28887   -227.09488    132763.74   -41084.525    2703.4866   -43788.012    81.790756    0.9407199 
   92900    219.61727   -190.96922    132697.56   -41062.092    2732.4564   -43794.549     81.89028   0.94118907 
   93000    221.78575   -246.59697    132799.66   -41088.429    2759.4363   -43847.865    81.729237   0.94046547 
   93100    224.34755   -273.56275    132867.87   -41026.659      2791.31   -43817.969    82.055911   0.93998265 
   93200    223.06097   -324.62861    132823.22   -41040.185    2775.3026   -43815.488    82.177725   0.94029864 
   93300    216.60229   -281.01092    132720.19   -41064.055    2694.9443   -43758.999    82.354695   0.94102858 
   93400    217.82771   -254.78709    132742.73   -41088.601    2710.1908   -43798.792    82.403399   0.94086876 
   93500    216.69013   -408.24374    132774.88   -41125.997    2696.0372   -43822.035    82.561488   0.94064096 
   93600    215.92442   -247.58369     132571.9   -41197.363    2686.5103   -43883.873    82.176517   0.94208115 
   93700    218.60678   -322.62894    132518.52    -41153.57    2719.8839   -43873.454    82.452143   0.94246067 
   93800    219.44789   -266.74519    132604.23   -41119.104    2730.3489   -43849.453    82.206024   0.94185152 
   93900    220.20826   -159.58615    132485.35   -41099.742    2739.8094   -43839.552    82.235129   0.94269662 
   94000    220.97089   -393.97083    132429.81   -41099.499     2749.298   -43848.797    82.366009     0.943092 
   94100     221.5358   -244.56415     132680.7   -41091.556    2756.3265   -43847.882    82.548404   0.94130864 
   94200     219.3917    -332.9192    132573.84   -41109.786    2729.6498   -43839.436     82.51239   0.94206736 
   94300    222.09727   -325.17681    132625.78   -41071.739    2763.3123   -43835.051    82.631166   0.94169842 
   94400    219.24276    -344.4716     132540.1   -41060.723    2727.7968   -43788.519    82.537438    0.9423072 
   94500    223.67312    -212.9331    132720.94   -41003.779    2782.9189   -43786.698    82.584498   0.94102323 
   94600    224.33093   -290.07826    132628.55   -41054.971    2791.1033   -43846.074    82.873381   0.94167881 
   94700    224.66075    -292.4378    132529.16    -41100.02    2795.2068   -43895.227    82.677716     0.942385 
   94800    217.76884    -291.7888    132634.92   -41104.334    2709.4584   -43813.792    82.859616   0.94163355 
   94900    218.71282   -270.60807    132772.66   -41073.999    2721.2033   -43795.202    82.901143   0.94065671 
   95000    224.99842   -345.09002    132870.32     -41074.7    2799.4081   -43874.108     82.84445   0.93996534 
   95100    220.44741   -262.03002    132836.55   -41065.139    2742.7849   -43807.924    82.770718    0.9402043 
   95200    217.18955   -298.30623    132875.96   -41071.617    2702.2509   -43773.868      82.8343    0.9399254 
   95300    222.00086   -291.47153    132687.26     -40964.2    2762.1127   -43726.312    82.734546   0.94126213 
   95400    221.98035   -195.58126    132596.44   -41013.978    2761.8576   -43775.835    82.862275   0.94190685 
   95500    221.66273   -236.31453    132684.01   -41022.438    2757.9058   -43780.344    83.040066   0.94128515 
   95600    222.60902   -448.81657    132663.22   -41009.768    2769.6795   -43779.447     83.08288   0.94143267 
   95700     220.8717   -293.36527     132517.3   -41059.159    2748.0638   -43807.223    82.705201   0.94246934 
   95800    218.60967   -239.10462    132512.93   -41119.037    2719.9199   -43838.956    82.967022   0.94250042 
   95900    220.99552   -86.045962    132592.36   -41063.251    2749.6044   -43812.855    82.871283   0.94193578 
   96000    222.41487   -206.96796    132466.07   -41151.533    2767.2638   -43918.797    82.795035    0.9428338 
   96100    217.36824   -286.71814     132524.7   -41112.752    2704.4741   -43817.226    83.065482   0.94241671 
   96200    225.01481   -82.611938    132569.58    -41165.84     2799.612   -43965.452    83.185902   0.94209767 
   96300    218.97686   -342.06322    132514.11   -41119.158    2724.4884   -43843.646    83.282738   0.94249204 
   96400     222.3533   -142.04062    132573.01   -41094.926    2766.4978   -43861.424    83.553671   0.94207328 
   96500    216.65016   -217.88691    132651.09   -41136.061    2695.5399   -43831.601      83.5513   0.94151875 
   96600    219.48086   -88.579583    132601.16   -41125.404    2730.7592   -43856.163     83.37925   0.94187329 
   96700    218.02963   -313.36899    132642.97   -41194.206    2712.7031   -43906.909    83.458573   0.94157644 
   96800    213.33638   -285.17912     132547.7   -41239.207    2654.3101   -43893.517    83.506465   0.94225318 
   96900    215.56392    33.677464    132618.62   -41174.513     2682.025   -43856.538    83.563611   0.94174931 
   97000    218.38249   -328.76868    132591.47   -41171.731    2717.0933   -43888.825    83.679598   0.94194212 
   97100    217.87736   -134.85176    132551.75   -41168.811    2710.8085    -43879.62    83.854769    0.9422244 
   97200    218.70328   -331.67136     132758.3   -41173.861    2721.0845   -43894.946     83.98988   0.94075845 
   97300    214.07345   -269.33127    132606.05   -41175.667    2663.4808   -43839.147     84.09862   0.94183857 
   97400     221.1559   -178.66127    132737.49   -41189.886    2751.5999   -43941.485    84.130333   0.94090592 
   97500     220.4992   -199.32325     132959.4   -41099.601    2743.4292    -43843.03    84.245024   0.93933552 
   97600     217.3339   -257.72364    132883.46   -41178.675    2704.0469   -43882.722    84.278616   0.93987235 
   97700    219.53307   -308.72753    132688.71   -41111.162    2731.4088   -43842.571    84.341074   0.94125184 
   97800    223.36686   -212.33944    132573.16   -41087.641    2779.1084    -43866.75    84.171812    0.9420722 
   97900    221.97489   -273.38043    132682.31    -41050.73    2761.7897   -43812.519    84.641689   0.94129725 
   98000    226.10093   -111.99483     132559.8   -41072.939    2813.1255   -43886.065    84.473083   0.94216719 
   98100    223.38075   -236.45564    132667.48   -41150.247    2779.2812   -43929.529    84.409523   0.94140243 
   98200     224.2928   -161.13606    132707.91   -41132.398    2790.6289   -43923.027    84.544814   0.94111566 
   98300    221.97448   -229.79833    132672.47    -41154.11    2761.7845   -43915.895    84.699314   0.94136701 
   98400    220.40723   -237.35928    132754.34   -41172.018    2742.2849   -43914.303    84.682626   0.94078653 
   98500    216.38015   -271.53271    132743.16   -41181.643    2692.1805   -43873.824    84.446164   0.94086575 
   98600    218.09972   -242.41048    132720.52   -41201.046    2713.5752   -43914.621    84.662226   0.94102624 
   98700    217.84395   -161.01081    132873.09   -41252.628    2710.3929    -43963.02    84.941957   0.93994569 
   98800    221.94219   -57.959865    132878.24   -41221.004    2761.3828   -43982.387    84.857268   0.93990927 
   98900    218.46894   -312.92758    133143.33   -41224.908    2718.1689   -43943.077    84.692879   0.93803789 
   99000    214.26713   -313.99281    133229.87   -41265.562    2665.8904   -43931.452     84.68166   0.93742859 
   99100    217.54854   -395.80444    133003.73    -41189.71    2706.7175   -43896.427    84.776632   0.93902244 
   99200    216.47621   -191.45914     132838.1   -41172.864    2693.3757    -43866.24    85.112976   0.94019331 
   99300    216.35884   -359.76104    132672.97   -41114.543    2691.9153   -43806.458    85.063698   0.94136351 
   99400     222.2464   -92.900135     132586.8   -41085.686    2765.1678   -43850.854    84.819531   0.94197532 
   99500    225.56207   -151.38542     132708.3   -40963.575     2806.421   -43769.996    85.025583   0.94111285 
   99600    222.29965   -196.32442     132599.7   -40991.641    2765.8303   -43757.471    85.334242   0.94188366 
   99700    226.63559   -92.641788    132867.01   -41006.292    2819.7776    -43826.07    85.341793   0.93998873 
   99800    222.73883    -254.3284    132783.47   -41036.514    2771.2944   -43807.808    85.450977   0.94058008 
   99900    217.82568   -133.44292     132727.2   -41093.433    2710.1656   -43803.599     85.37723   0.94097885 
  100000    216.17262   -320.97761    132740.68   -41089.478    2689.5984   -43779.076    85.604329    0.9408833 
  100100    221.64983   -203.52114    132706.95   -41015.837    2757.7453   -43773.582    85.682245   0.94112243 
  100200    222.23596    -89.15303    132709.63   -41014.438    2765.0378   -43779.476    85.678539   0.94110345 
  100300    222.20879   -119.69788    132655.14   -40999.423    2764.6998   -43764.123    85.666612   0.94149003 
  100400    222.03172   -205.45371    132638.62   -41035.769    2762.4967   -43798.265    85.976701   0.94160732 
  100500    224.61812   -268.38613    132711.89   -40972.883    2794.6764    -43767.56     85.84214   0.94108745 
  100600    222.35013   -215.60479     132631.7   -41064.227    2766.4584   -43830.685     85.78837   0.94165644 
  100630    219.02879   -100.34084    132765.51   -41043.327    2725.1346   -43768.462    85.906422   0.94070732 
Loop time of 78.8913 on 6 procs for 100000 steps with 4175 atoms

Performance: 547.589 ns/day, 0.044 hours/ns, 1267.566 timesteps/s
98.4% CPU use with 6 MPI tasks x no OpenMP threads

MPI task timing breakdown:
Section |  min time  |  avg time  |  max time  |%varavg| %total
---------------------------------------------------------------
Pair    | 62.776     | 64.2       | 64.94      |   9.1 | 81.38
Neigh   | 5.0704     | 5.1032     | 5.134      |   0.9 |  6.47
Comm    | 6.2218     | 6.9918     | 8.4118     |  27.9 |  8.86
Output  | 0.15903    | 0.15983    | 0.16324    |   0.4 |  0.20
Modify  | 1.7439     | 1.7629     | 1.7772     |   0.9 |  2.23
Other   |            | 0.6736     |            |       |  0.85

Nlocal:        695.833 ave         703 max         690 min
Histogram: 1 0 1 1 1 0 1 0 0 1
Nghost:        1462.83 ave        1480 max        1434 min
Histogram: 1 0 0 0 1 0 1 1 0 2
Neighs:        0.00000 ave           0 max           0 min
Histogram: 6 0 0 0 0 0 0 0 0 0
FullNghs:      19109.7 ave       19496 max       18880 min
Histogram: 1 1 1 1 1 0 0 0 0 1

Total # of neighbors = 114658
Ave neighs/atom = 27.462994
Neighbor list builds = 5485
Dangerous builds = 0

undump              1
unfix               2
unfix               3
unfix               4


################################################
#######         Run Simulation         #########
################################################

reset_timestep      0
log                 log.run_${NAME}
log                 log.run_liquid_density_MLmW
